   * xtb version 6.7.1 (edcfbbe) compiled by 'conda@3ef47c1a292c' on 2024-11-25

   ID    Z sym.   atoms
    1    9 F      1, 5, 6, 8-12, 14-17
    2    6 C      2-4, 13
    3    5 B      7

          program call               : xtb A001.xyz --opt --namespace A001 --charge -1
          :  Hamiltonian                  GFN2-xTB          :
 * total energy  :   -66.7989064 Eh     change       -0.2712852E-09 Eh
 * total energy  :   -66.9515699 Eh     change       -0.1526635E+00 Eh
 * total energy  :   -66.9798134 Eh     change       -0.2824346E-01 Eh
 * total energy  :   -66.9953142 Eh     change       -0.1550083E-01 Eh
 * total energy  :   -67.0015934 Eh     change       -0.6279179E-02 Eh
 * total energy  :   -67.0047795 Eh     change       -0.3186190E-02 Eh
 * total energy  :   -67.0064593 Eh     change       -0.1679737E-02 Eh
 * total energy  :   -67.0072457 Eh     change       -0.7864638E-03 Eh
 * total energy  :   -67.0075494 Eh     change       -0.3036676E-03 Eh
 * total energy  :   -67.0076541 Eh     change       -0.1046904E-03 Eh
 * total energy  :   -67.0080012 Eh     change       -0.6276930E-04 Eh
 * total energy  :   -67.0080457 Eh     change       -0.4456294E-04 Eh
 * total energy  :   -67.0080794 Eh     change       -0.3360897E-04 Eh
 * total energy  :   -67.0081066 Eh     change       -0.2728498E-04 Eh
 * total energy  :   -67.0081211 Eh     change       -0.1444288E-04 Eh
 * total energy  :   -67.0081238 Eh     change       -0.2695587E-05 Eh
 * total energy  :   -67.0081452 Eh     change       -0.2145319E-04 Eh
 * total energy  :   -67.0081561 Eh     change       -0.1087421E-04 Eh
 * total energy  :   -67.0081581 Eh     change       -0.2038441E-05 Eh
   *** GEOMETRY OPTIMIZATION CONVERGED AFTER 24 ITERATIONS ***

 final structure:
================
17
 xtb: 6.7.1 (edcfbbe)
F            1.00919374571481        0.29653044436562        0.22278218266653
C            2.31115667495779        0.04577394662216        0.04763943285441
C            2.70143278035019       -1.39228382369832        0.47428052409104
C            2.19842983760648       -2.53775169523506       -0.42230324158435
F            2.80591220714342       -2.34195178712961       -1.64322942456803
F            2.79538733888504       -3.67034693713332        0.06693178827575
B            0.49528668857925       -2.68960057765319       -0.55598770742787
F           -0.04838943981880       -2.62914423287047        0.70840204986245
F            0.04774799341469       -1.62680251901015       -1.31744759653079
F            0.19247211184348       -3.88181212913620       -1.16176226882814
F            4.06789951705884       -1.39668548253873        0.54855873140443
F            2.28784358279155       -1.55736718000166        1.74683838083281
C            2.72895686762320        0.48988876649823       -1.38003923102889
F            2.66630447716230        1.83195781367586       -1.44196192343467
F            3.99364609800767        0.16864382684848       -1.65006190688658
F            1.96417253890234        0.03331014340366       -2.35035021484624
F            2.95942697977777        0.90315142299273        0.88940042514815

          :  Hamiltonian                  GFN2-xTB          :
         :: total energy             -67.008158143051 Eh    ::
         :: gradient norm              0.000510639072 Eh/a0 ::
         :: HOMO-LUMO gap              8.584854866732 eV    ::
         :: SCC energy               -67.164387254397 Eh    ::
         :: -> dispersion             -0.015621601972 Eh    ::
         :: repulsion energy           0.156229111345 Eh    ::

    * Orbital Energies and Occupations

         #    Occupation            Energy/Eh            Energy/eV
      -------------------------------------------------------------
         1        2.0000           -0.8185194             -22.2730
       ...           ...                  ...                  ...
        40        2.0000           -0.3996978             -10.8763
        41        2.0000           -0.3968429             -10.7986
        42        2.0000           -0.3883160             -10.5666
        43        2.0000           -0.3818988             -10.3920
        44        2.0000           -0.3790042             -10.3132
        45        2.0000           -0.3770927             -10.2612
        46        2.0000           -0.3639800              -9.9044
        47        2.0000           -0.3396939              -9.2435
        48        2.0000           -0.3379371              -9.1957
        49        2.0000           -0.3308273              -9.0023
        50        2.0000           -0.3286330              -8.9426
        51        2.0000           -0.3279296              -8.9234
        52        2.0000           -0.2935820              -7.9888 (HOMO)
        53                          0.0219056               0.5961 (LUMO)
        54                          0.0289069               0.7866
        55                          0.0477164               1.2984
        56                          0.0762098               2.0738
        57                          0.1050057               2.8574
        58                          0.1343059               3.6546
        59                          0.1723107               4.6888
        60                          0.1822657               4.9597
        61                          0.1903150               5.1787
        62                          0.2308096               6.2806
        63                          0.2406450               6.5483
       ...                                ...                  ...
        68                          0.5248017              14.2806
      -------------------------------------------------------------
                  HL-Gap            0.3154876 Eh            8.5849 eV

     #   Z          covCN         q      C6AA      α(0)
     1   9 F        0.789    -0.165    10.882     3.897
     2   6 C        3.520     0.312    16.988     6.076
     3   6 C        3.522     0.320    16.873     6.052
     4   6 C        3.403     0.198    20.436     6.976
     5   9 F        0.788    -0.253    11.793     4.056
     6   9 F        0.788    -0.227    11.523     4.010
     7   5 B        3.024     0.592    13.572     6.145
     8   9 F        0.721    -0.388    13.383     4.320
     9   9 F        0.721    -0.397    13.497     4.338
    10   9 F        0.722    -0.372    13.180     4.287
    11   9 F        0.789    -0.211    11.352     3.980
    12   9 F        0.790    -0.186    11.091     3.934
    13   6 C        3.329     0.487    17.370     6.615
    14   9 F        0.793    -0.186    11.093     3.934
    15   9 F        0.791    -0.175    10.982     3.915
    16   9 F        0.791    -0.152    10.749     3.873
    17   9 F        0.791    -0.196    11.195     3.952

Wiberg/Mayer (AO) data.
largest (>0.10) Wiberg bond orders for each atom

     #   Z sym  total        # sym  WBO       # sym  WBO       # sym  WBO
 ---------------------------------------------------------------------------
     1   9 F    1.101 --     2 C    0.986
     2   6 C    3.880 --     1 F    0.986    17 F    0.948     3 C    0.918
                            13 C    0.901
     3   6 C    3.858 --    12 F    0.969    11 F    0.938     4 C    0.932
                             2 C    0.918
     4   6 C    3.649 --     6 F    0.946     3 C    0.932     5 F    0.927
                             7 B    0.722
     5   9 F    1.015 --     4 C    0.927
     6   9 F    1.039 --     4 C    0.946
     7   5 B    3.337 --    10 F    0.876     8 F    0.857     9 F    0.846
                             4 C    0.722
     8   9 F    0.944 --     7 B    0.857
     9   9 F    0.933 --     7 B    0.846
    10   9 F    0.965 --     7 B    0.876
    11   9 F    1.051 --     3 C    0.938
    12   9 F    1.080 --     3 C    0.969
    13   6 C    3.870 --    16 F    0.994    15 F    0.968    14 F    0.951
                             2 C    0.901
    14   9 F    1.081 --    13 C    0.951
    15   9 F    1.098 --    13 C    0.968
    16   9 F    1.128 --    13 C    0.994
    17   9 F    1.059 --     2 C    0.948
 ---------------------------------------------------------------------------

molecular dipole:
                 x           y           z       tot (Debye)
 q only:       -2.457       4.217       0.803
   full:       -2.293       4.274       0.820      12.503

           -------------------------------------------------
          | TOTAL ENERGY              -67.008158143051 Eh   |
          | GRADIENT NORM               0.000510639072 Eh/α |
          | HOMO-LUMO GAP               8.584854866732 eV   |
           -------------------------------------------------

 * finished run on 2024/12/20 at 01:52:14.483
