   * xtb version 6.7.1 (edcfbbe) compiled by 'conda@3ef47c1a292c' on 2024-11-25

   ID    Z sym.   atoms
    1    8 O      1, 3
    2    6 C      2, 4-10
    3    9 F      11-25

          program call               : xtb A002.xyz --opt --namespace A002 --charge -1
          :  Hamiltonian                  GFN2-xTB          :
 * total energy  :   -96.4471837 Eh     change       -0.8522250E-10 Eh
 * total energy  :   -96.4633129 Eh     change       -0.1612924E-01 Eh
 * total energy  :   -96.4703647 Eh     change       -0.7051837E-02 Eh
 * total energy  :   -96.4724733 Eh     change       -0.2108574E-02 Eh
 * total energy  :   -96.4738975 Eh     change       -0.1424184E-02 Eh
 * total energy  :   -96.4745633 Eh     change       -0.6657580E-03 Eh
 * total energy  :   -96.4748587 Eh     change       -0.2954262E-03 Eh
 * total energy  :   -96.4750006 Eh     change       -0.1419458E-03 Eh
 * total energy  :   -96.4750785 Eh     change       -0.7783979E-04 Eh
 * total energy  :   -96.4751415 Eh     change       -0.6300775E-04 Eh
 * total energy  :   -96.4752156 Eh     change       -0.3176572E-04 Eh
 * total energy  :   -96.4752508 Eh     change       -0.3512817E-04 Eh
 * total energy  :   -96.4752859 Eh     change       -0.3517450E-04 Eh
 * total energy  :   -96.4753177 Eh     change       -0.3180002E-04 Eh
 * total energy  :   -96.4753420 Eh     change       -0.2424355E-04 Eh
 * total energy  :   -96.4753462 Eh     change       -0.4168467E-05 Eh
 * total energy  :   -96.4753620 Eh     change       -0.1585738E-04 Eh
 * total energy  :   -96.4753686 Eh     change       -0.6586267E-05 Eh
 * total energy  :   -96.4753713 Eh     change       -0.2703598E-05 Eh
   *** GEOMETRY OPTIMIZATION CONVERGED AFTER 20 ITERATIONS ***

 final structure:
================
25
 xtb: 6.7.1 (edcfbbe)
O            1.62644317650435        0.59754858295092       -0.93780594454494
C            2.60015564191139        0.59947959980699       -0.23346398349616
O            3.18356365831276        1.31348822563295        0.53103433915499
C            3.41587234535928       -0.97878728705099       -0.36495639690089
C            2.76839965528674       -2.05652536585378        0.50148255586679
C            1.28431728132403       -2.39447746150438        0.19721040852363
C            0.86554490483425       -2.87289538579467       -1.22393440464989
C            1.54040062248732       -4.15717703500790       -1.80401231470492
C            1.28589258115205       -5.52360453135294       -1.08976164778795
C           -0.19823828498399       -5.97116543815770       -0.90980029690814
F           -0.93253016579903       -5.72870587584489       -1.98965798581970
F           -0.22392145039041       -7.29051833133898       -0.70770355128429
F           -0.78051537434174       -5.40508668766216        0.13448440701062
F            1.87018836417198       -6.46517511198917       -1.86760429995100
F            1.89572805104872       -5.59045582724084        0.09959205496831
F            1.05785582839419       -4.30271760705335       -3.06141249653024
F            2.86265064747558       -4.01619284092734       -1.92823477546699
F           -0.46392535026261       -3.16739338100350       -1.14197788549189
F            0.96439605858007       -1.91792378020998       -2.14248529591281
F            0.92977361171042       -3.41749675043701        1.03181433671950
F            0.48366357634496       -1.37963213381443        0.53658371540541
F            3.43510373128921       -3.26171427484167        0.46884603467403
F            2.80552803236621       -1.68595579086403        1.79922898316793
F            3.41568360327675       -1.42810624304890       -1.66486246572453
F            4.73539925394744       -0.91508926739213       -0.01373309031718

          :  Hamiltonian                  GFN2-xTB          :
         :: total energy             -96.475371298493 Eh    ::
         :: gradient norm              0.000362746925 Eh/a0 ::
         :: HOMO-LUMO gap              5.612938754928 eV    ::
         :: SCC energy               -96.775342391745 Eh    ::
         :: -> dispersion             -0.028069358924 Eh    ::
         :: repulsion energy           0.299971093252 Eh    ::

    * Orbital Energies and Occupations

         #    Occupation            Energy/Eh            Energy/eV
      -------------------------------------------------------------
         1        2.0000           -0.8659206             -23.5629
       ...           ...                  ...                  ...
        63        2.0000           -0.4390765             -11.9479
        64        2.0000           -0.4356672             -11.8551
        65        2.0000           -0.4317464             -11.7484
        66        2.0000           -0.4206315             -11.4460
        67        2.0000           -0.4092025             -11.1350
        68        2.0000           -0.3984888             -10.8434
        69        2.0000           -0.3953470             -10.7579
        70        2.0000           -0.3866455             -10.5212
        71        2.0000           -0.3853393             -10.4856
        72        2.0000           -0.3709662             -10.0945
        73        2.0000           -0.3009688              -8.1898
        74        2.0000           -0.2920485              -7.9470
        75        2.0000           -0.2612032              -7.1077 (HOMO)
        76                         -0.0549315              -1.4948 (LUMO)
        77                         -0.0509899              -1.3875
        78                         -0.0348816              -0.9492
        79                         -0.0216900              -0.5902
        80                         -0.0128889              -0.3507
        81                          0.0057361               0.1561
        82                          0.0284416               0.7739
        83                          0.0309924               0.8433
        84                          0.0562182               1.5298
        85                          0.0676214               1.8401
        86                          0.0800594               2.1785
       ...                                ...                  ...
       100                          1.0062224              27.3807
      -------------------------------------------------------------
                  HL-Gap            0.2062717 Eh            5.6129 eV

     #   Z          covCN         q      C6AA      α(0)
     1   8 O        0.856    -0.475    23.231     6.462
     2   6 C        2.571     0.386    20.505     7.403
     3   8 O        0.856    -0.450    22.698     6.387
     4   6 C        3.403     0.198    20.428     6.972
     5   6 C        3.521     0.318    16.907     6.061
     6   6 C        3.520     0.317    16.921     6.065
     7   6 C        3.518     0.317    16.944     6.072
     8   6 C        3.517     0.317    16.954     6.075
     9   6 C        3.517     0.310    17.042     6.091
    10   6 C        3.328     0.485    17.407     6.625
    11   9 F        0.791    -0.166    10.889     3.898
    12   9 F        0.793    -0.166    10.886     3.898
    13   9 F        0.791    -0.158    10.806     3.883
    14   9 F        0.791    -0.170    10.932     3.906
    15   9 F        0.789    -0.160    10.835     3.888
    16   9 F        0.791    -0.175    10.983     3.915
    17   9 F        0.790    -0.151    10.739     3.871
    18   9 F        0.791    -0.198    11.212     3.955
    19   9 F        0.790    -0.134    10.576     3.842
    20   9 F        0.791    -0.208    11.317     3.974
    21   9 F        0.790    -0.154    10.774     3.877
    22   9 F        0.788    -0.224    11.483     4.003
    23   9 F        0.791    -0.185    11.085     3.933
    24   9 F        0.786    -0.254    11.807     4.059
    25   9 F        0.787    -0.222    11.468     4.000

Wiberg/Mayer (AO) data.
largest (>0.10) Wiberg bond orders for each atom

     #   Z sym  total        # sym  WBO       # sym  WBO       # sym  WBO
 ---------------------------------------------------------------------------
     1   8 O    2.026 --     2 C    1.654     3 O    0.265
     2   6 C    3.946 --     3 O    1.677     1 O    1.654     4 C    0.571
     3   8 O    2.053 --     2 C    1.677     1 O    0.265
     4   6 C    3.613 --    25 F    0.947     5 C    0.938    24 F    0.924
                             2 C    0.571
     5   6 C    3.852 --    23 F    0.968     4 C    0.938    22 F    0.922
                             6 C    0.915
     6   6 C    3.875 --    21 F    0.993    20 F    0.941     5 C    0.915
                             7 C    0.912
     7   6 C    3.890 --    19 F    1.007    18 F    0.945     6 C    0.912
                             8 C    0.908
     8   6 C    3.893 --    17 F    0.992    16 F    0.965     9 C    0.909
                             7 C    0.908
     9   6 C    3.893 --    15 F    0.987    14 F    0.968     8 C    0.909
                            10 C    0.893
    10   6 C    3.878 --    13 F    0.984    11 F    0.975    12 F    0.968
                             9 C    0.893
    11   9 F    1.108 --    10 C    0.975
    12   9 F    1.103 --    10 C    0.968
    13   9 F    1.119 --    10 C    0.984
    14   9 F    1.085 --     9 C    0.968
    15   9 F    1.104 --     9 C    0.987
    16   9 F    1.082 --     8 C    0.965
    17   9 F    1.116 --     8 C    0.992
    18   9 F    1.060 --     7 C    0.945
    19   9 F    1.134 --     7 C    1.007
    20   9 F    1.052 --     6 C    0.941
    21   9 F    1.112 --     6 C    0.993
    22   9 F    1.042 --     5 C    0.922
    23   9 F    1.080 --     5 C    0.968
    24   9 F    1.020 --     4 C    0.924
    25   9 F    1.050 --     4 C    0.947
 ---------------------------------------------------------------------------

molecular dipole:
                 x           y           z       tot (Debye)
 q only:       -4.929       1.305       0.538
   full:       -4.859       1.067       0.541      12.720

           -------------------------------------------------
          | TOTAL ENERGY              -96.475371298493 Eh   |
          | GRADIENT NORM               0.000362746925 Eh/α |
          | HOMO-LUMO GAP               5.612938754928 eV   |
           -------------------------------------------------

 * finished run on 2024/12/20 at 01:52:15.140
