   * xtb version 6.7.1 (edcfbbe) compiled by 'conda@3ef47c1a292c' on 2024-11-25

   ID    Z sym.   atoms
    1    9 F      1, 7-10
    2    6 C      2, 3, 6
    3    8 O      4, 5

          program call               : xtb A003.xyz --opt --namespace A003 --charge -1
          :  Hamiltonian                  GFN2-xTB          :
 * total energy  :   -38.4754172 Eh     change       -0.3870326E-10 Eh
 * total energy  :   -38.4846443 Eh     change       -0.9227076E-02 Eh
 * total energy  :   -38.4882364 Eh     change       -0.3592082E-02 Eh
 * total energy  :   -38.4892929 Eh     change       -0.1056544E-02 Eh
 * total energy  :   -38.4898712 Eh     change       -0.5783066E-03 Eh
 * total energy  :   -38.4900077 Eh     change       -0.1364330E-03 Eh
 * total energy  :   -38.4900387 Eh     change       -0.3103114E-04 Eh
 * total energy  :   -38.4900429 Eh     change       -0.4251692E-05 Eh
   *** GEOMETRY OPTIMIZATION CONVERGED AFTER 8 ITERATIONS ***

 final structure:
================
10
 xtb: 6.7.1 (edcfbbe)
F            1.02489068730367        0.06177768780724        0.03217322123868
C            2.39552117547066        0.04573350769637        0.11145150014138
C            2.93628113655190        0.01006637616464        1.74665178096580
O            3.62008417733368       -0.96602259112563        1.95871349003013
O            2.53315738397334        0.96021421081854        2.37164414778845
C            2.87807380807115       -1.13643351574647       -0.72410785663417
F            2.44178774263941       -1.09213777998248       -2.01242603681548
F            4.20989364565195       -1.19628249483875       -0.81047938374219
F            2.44816977517351       -2.31000187516490       -0.25217124516701
F            2.80529046783072        1.18731647437145       -0.53201961780560

          :  Hamiltonian                  GFN2-xTB          :
         :: total energy             -38.490042943656 Eh    ::
         :: gradient norm              0.000609315646 Eh/a0 ::
         :: HOMO-LUMO gap              5.469213166046 eV    ::
         :: SCC energy               -38.628106021940 Eh    ::
         :: -> dispersion             -0.007383468876 Eh    ::
         :: repulsion energy           0.138063078284 Eh    ::

    * Orbital Energies and Occupations

         #    Occupation            Energy/Eh            Energy/eV
      -------------------------------------------------------------
         1        2.0000           -0.7586325             -20.6434
       ...           ...                  ...                  ...
        18        2.0000           -0.4128766             -11.2349
        19        2.0000           -0.4125667             -11.2265
        20        2.0000           -0.4122098             -11.2168
        21        2.0000           -0.4102285             -11.1629
        22        2.0000           -0.3955080             -10.7623
        23        2.0000           -0.3801928             -10.3456
        24        2.0000           -0.3790936             -10.3157
        25        2.0000           -0.3729874             -10.1495
        26        2.0000           -0.3645052              -9.9187
        27        2.0000           -0.3482146              -9.4754
        28        2.0000           -0.2760942              -7.5129
        29        2.0000           -0.2655411              -7.2257
        30        2.0000           -0.2405143              -6.5447 (HOMO)
        31                         -0.0395244              -1.0755 (LUMO)
        32                          0.0761107               2.0711
        33                          0.1142718               3.1095
        34                          0.1357363               3.6936
        35                          0.1799178               4.8958
        36                          0.2531807               6.8894
        37                          0.2839713               7.7273
        38                          0.2864886               7.7958
        39                          0.5625459              15.3077
        40                          0.9644793              26.2448
      -------------------------------------------------------------
                  HL-Gap            0.2009899 Eh            5.4692 eV

     #   Z          covCN         q      C6AA      α(0)
     1   9 F        0.787    -0.241    11.671     4.035
     2   6 C        3.455     0.218    19.196     6.613
     3   6 C        2.623     0.383    20.529     7.411
     4   8 O        0.856    -0.506    23.918     6.557
     5   8 O        0.856    -0.478    23.310     6.473
     6   6 C        3.331     0.486    17.355     6.608
     7   9 F        0.791    -0.224    11.487     4.004
     8   9 F        0.791    -0.198    11.211     3.955
     9   9 F        0.791    -0.198    11.211     3.955
    10   9 F        0.787    -0.241    11.671     4.035

Wiberg/Mayer (AO) data.
largest (>0.10) Wiberg bond orders for each atom

     #   Z sym  total        # sym  WBO       # sym  WBO       # sym  WBO
 ---------------------------------------------------------------------------
     1   9 F    1.030 --     2 C    0.933
     2   6 C    3.667 --     1 F    0.933    10 F    0.933     6 C    0.926
                             3 C    0.646
     3   6 C    3.947 --     5 O    1.641     4 O    1.616     2 C    0.646
     4   8 O    1.975 --     3 C    1.616     5 O    0.261
     5   8 O    2.006 --     3 C    1.641     4 O    0.261
     6   6 C    3.823 --     9 F    0.961     8 F    0.961     2 C    0.926
                             7 F    0.923
     7   9 F    1.050 --     6 C    0.923
     8   9 F    1.081 --     6 C    0.961
     9   9 F    1.081 --     6 C    0.961
    10   9 F    1.030 --     2 C    0.933
 ---------------------------------------------------------------------------

molecular dipole:
                 x           y           z       tot (Debye)
 q only:       -5.267       0.242      -1.894
   full:       -5.324       0.209      -2.141      14.596

           -------------------------------------------------
          | TOTAL ENERGY              -38.490042943656 Eh   |
          | GRADIENT NORM               0.000609315646 Eh/α |
          | HOMO-LUMO GAP               5.469213166046 eV   |
           -------------------------------------------------

 * finished run on 2024/12/20 at 01:52:15.211
