   * xtb version 6.7.1 (edcfbbe) compiled by 'conda@3ef47c1a292c' on 2024-11-25

   ID    Z sym.   atoms
    1    8 O      1, 5, 6
    2    6 C      2, 7-12
    3    7 N      3
    4   16 S      4
    5    1 H      13-16

          program call               : xtb A004.xyz --opt --namespace A004 --charge -1
          :  Hamiltonian                  GFN2-xTB          :
 * total energy  :   -35.6241391 Eh     change       -0.3774261E-09 Eh
 * total energy  :   -35.6313482 Eh     change       -0.7209145E-02 Eh
 * total energy  :   -35.6338817 Eh     change       -0.2533471E-02 Eh
 * total energy  :   -35.6341948 Eh     change       -0.3130487E-03 Eh
 * total energy  :   -35.6343447 Eh     change       -0.1499239E-03 Eh
 * total energy  :   -35.6343646 Eh     change       -0.1992430E-04 Eh
 * total energy  :   -35.6343743 Eh     change       -0.9635520E-05 Eh
 * total energy  :   -35.6343768 Eh     change       -0.2541203E-05 Eh
   *** GEOMETRY OPTIMIZATION CONVERGED AFTER 8 ITERATIONS ***

 final structure:
================
16
 xtb: 6.7.1 (edcfbbe)
O            1.12746277410783        0.28620267641363        0.06598845804288
C            2.35529049274003        0.21220085381703        0.07582902296230
N            3.21094393927200        1.21968754149156        0.08783317695633
S            4.74697441809198        0.73451430279471        0.09873521600161
O            5.45688003422514        1.10522848599765       -1.10981178733770
O            5.43541188044185        1.09211680427485        1.32355888541069
C            4.41942271153310       -1.04586968987512        0.08659952151708
C            5.23135730508998       -2.15469310562296        0.08761139600253
C            4.62514803255023       -3.40610522576608        0.07618153220827
C            3.24229111287974       -3.52048938726264        0.06421469035812
C            2.43614680735150       -2.39163562363320        0.06335537361170
C            3.04276454137701       -1.14667862034972        0.07472576712420
H            6.30643716171603       -2.05098055375518        0.09700394590281
H            5.23645318889840       -4.29922161136035        0.07660875299593
H            2.79120215758225       -4.50470131371418        0.05545577754826
H            1.35833344214292       -2.46327553344997        0.05411027069499

          :  Hamiltonian                  GFN2-xTB          :
         :: total energy             -35.634376792063 Eh    ::
         :: gradient norm              0.000451844726 Eh/a0 ::
         :: HOMO-LUMO gap              2.480781546531 eV    ::
         :: SCC energy               -36.051130798134 Eh    ::
         :: -> dispersion             -0.019662626669 Eh    ::
         :: repulsion energy           0.416754006070 Eh    ::

    * Orbital Energies and Occupations

         #    Occupation            Energy/Eh            Energy/eV
      -------------------------------------------------------------
         1        2.0000           -0.6092327             -16.5781
       ...           ...                  ...                  ...
        19        2.0000           -0.3526528              -9.5962
        20        2.0000           -0.3519752              -9.5777
        21        2.0000           -0.3395569              -9.2398
        22        2.0000           -0.3246133              -8.8332
        23        2.0000           -0.3074371              -8.3658
        24        2.0000           -0.2993835              -8.1466
        25        2.0000           -0.2967342              -8.0745
        26        2.0000           -0.2929657              -7.9720
        27        2.0000           -0.2794917              -7.6054
        28        2.0000           -0.2753218              -7.4919
        29        2.0000           -0.2418610              -6.5814
        30        2.0000           -0.2324542              -6.3254
        31        2.0000           -0.2234226              -6.0796 (HOMO)
        32                         -0.1322555              -3.5989 (LUMO)
        33                         -0.1246307              -3.3914
        34                         -0.0423330              -1.1519
        35                          0.0317894               0.8650
        36                          0.0389476               1.0598
        37                          0.0653102               1.7772
        38                          0.1025858               2.7915
        39                          0.1553195               4.2265
        40                          0.2175553               5.9200
        41                          0.2398652               6.5271
        42                          0.2622545               7.1363
       ...                                ...                  ...
        57                          1.3420688              36.5196
      -------------------------------------------------------------
                  HL-Gap            0.0911670 Eh            2.4808 eV

     #   Z          covCN         q      C6AA      α(0)
     1   8 O        0.858    -0.500    23.776     6.538
     2   6 C        3.093     0.275    22.275     7.736
     3   7 N        1.835    -0.480    33.755     8.610
     4  16 S        4.152     1.043   105.416    17.280
     5   8 O        0.860    -0.597    26.044     6.842
     6   8 O        0.860    -0.597    26.045     6.842
     7   6 C        2.986    -0.091    30.284     9.027
     8   6 C        2.920    -0.025    28.631     8.775
     9   6 C        2.925    -0.037    28.924     8.820
    10   6 C        2.921    -0.037    28.931     8.820
    11   6 C        2.918    -0.024    28.596     8.769
    12   6 C        3.188    -0.034    28.359     8.688
    13   1 H        0.926     0.028     2.611     2.527
    14   1 H        0.925     0.017     2.781     2.608
    15   1 H        0.925     0.016     2.788     2.611
    16   1 H        0.926     0.043     2.412     2.428

Wiberg/Mayer (AO) data.
largest (>0.10) Wiberg bond orders for each atom

     #   Z sym  total        # sym  WBO       # sym  WBO       # sym  WBO
 ---------------------------------------------------------------------------
     1   8 O    1.928 --     2 C    1.580     3 N    0.204
     2   6 C    3.961 --     1 O    1.580     3 N    1.377    12 C    0.934
     3   7 N    2.962 --     2 C    1.377     4 S    1.060     1 O    0.204
     4  16 S    5.050 --     5 O    1.580     6 O    1.580     3 N    1.060
                             7 C    0.738
     5   8 O    1.884 --     4 S    1.580     6 O    0.110
     6   8 O    1.884 --     4 S    1.580     5 O    0.110
     7   6 C    3.974 --     8 C    1.445    12 C    1.396     4 S    0.738
                            10 C    0.104
     8   6 C    3.992 --     7 C    1.445     9 C    1.421    13 H    0.969
                            11 C    0.107
     9   6 C    3.991 --    10 C    1.441     8 C    1.421    14 H    0.971
                            12 C    0.108
    10   6 C    3.992 --     9 C    1.441    11 C    1.439    15 H    0.971
                             7 C    0.104
    11   6 C    3.991 --    10 C    1.439    12 C    1.409    16 H    0.968
                             8 C    0.107
    12   6 C    3.969 --    11 C    1.409     7 C    1.396     2 C    0.934
                             9 C    0.108
    13   1 H    0.999 --     8 C    0.969
    14   1 H    0.998 --     9 C    0.971
    15   1 H    0.999 --    10 C    0.971
    16   1 H    0.997 --    11 C    0.968
 ---------------------------------------------------------------------------

molecular dipole:
                 x           y           z       tot (Debye)
 q only:       -6.854      -1.932      -0.172
   full:       -6.665      -2.339      -0.173      17.958

           -------------------------------------------------
          | TOTAL ENERGY              -35.634376792063 Eh   |
          | GRADIENT NORM               0.000451844726 Eh/α |
          | HOMO-LUMO GAP               2.480781546531 eV   |
           -------------------------------------------------

 * finished run on 2024/12/20 at 01:52:15.437
