   * xtb version 6.7.1 (edcfbbe) compiled by 'conda@3ef47c1a292c' on 2024-11-25

   ID    Z sym.   atoms
    1   16 S      1
    2    6 C      2
    3    8 O      3-5
    4    1 H      6-8

          program call               : xtb A005.xyz --opt --namespace A005 --charge -1
          :  Hamiltonian                  GFN2-xTB          :
 * total energy  :   -19.3488726 Eh     change       -0.1232294E-09 Eh
 * total energy  :   -19.3512031 Eh     change       -0.2330525E-02 Eh
 * total energy  :   -19.3518350 Eh     change       -0.6319150E-03 Eh
 * total energy  :   -19.3518722 Eh     change       -0.3714236E-04 Eh
 * total energy  :   -19.3518824 Eh     change       -0.1022080E-04 Eh
 * total energy  :   -19.3518832 Eh     change       -0.7828813E-06 Eh
   *** GEOMETRY OPTIMIZATION CONVERGED AFTER 6 ITERATIONS ***

 final structure:
================
8
 xtb: 6.7.1 (edcfbbe)
S            1.13550152524127       -0.00211386149296        0.01618381675105
C            0.50640168286018       -1.55178193008695       -0.76087541019777
O            0.59486237916822       -0.02787478301788        1.37545458604578
O            0.59487079200660        1.07176286591272       -0.81752998762259
O            2.59200124890260       -0.12591312673820       -0.04588921851374
H            0.87901426594117       -2.38412179448406       -0.17989968648644
H           -0.57399452939856       -1.51274706025894       -0.74130772042538
H            0.87902263527852       -1.58408030983373       -1.77540637955091

          :  Hamiltonian                  GFN2-xTB          :
         :: total energy             -19.351883160588 Eh    ::
         :: gradient norm              0.000275046180 Eh/a0 ::
         :: HOMO-LUMO gap              8.395203439715 eV    ::
         :: SCC energy               -19.466490860266 Eh    ::
         :: -> dispersion             -0.005652695567 Eh    ::
         :: repulsion energy           0.114607699678 Eh    ::

    * Orbital Energies and Occupations

         #    Occupation            Energy/Eh            Energy/eV
      -------------------------------------------------------------
         1        2.0000           -0.5541279             -15.0786
       ...           ...                  ...                  ...
         4        2.0000           -0.4470213             -12.1641
         5        2.0000           -0.4094381             -11.1414
         6        2.0000           -0.3431180              -9.3367
         7        2.0000           -0.3431179              -9.3367
         8        2.0000           -0.3213951              -8.7456
         9        2.0000           -0.3071110              -8.3569
        10        2.0000           -0.3071110              -8.3569
        11        2.0000           -0.2424872              -6.5984
        12        2.0000           -0.2424871              -6.5984
        13        2.0000           -0.2229624              -6.0671
        14        2.0000           -0.2229623              -6.0671
        15        2.0000           -0.2123212              -5.7776
        16        2.0000           -0.2103942              -5.7251 (HOMO)
        17                          0.0981239               2.6701 (LUMO)
        18                          0.1478002               4.0218
        19                          0.1988065               5.4098
        20                          0.1988071               5.4098
        21                          0.2986963               8.1279
        22                          0.3528554               9.6017
        23                          0.3528555               9.6017
        24                          0.4465440              12.1511
        25                          0.4465442              12.1511
        26                          0.8265783              22.4923
        27                          1.3477211              36.6734
        28                          1.3477216              36.6734
      -------------------------------------------------------------
                  HL-Gap            0.3085180 Eh            8.3952 eV

     #   Z          covCN         q      C6AA      α(0)
     1  16 S        3.545     1.090   104.093    17.172
     2   6 C        3.743    -0.182    24.135     7.009
     3   8 O        0.860    -0.667    27.810     7.070
     4   8 O        0.860    -0.667    27.810     7.070
     5   8 O        0.860    -0.667    27.810     7.070
     6   1 H        0.926     0.030     2.582     2.513
     7   1 H        0.926     0.030     2.582     2.513
     8   1 H        0.926     0.030     2.582     2.513

Wiberg/Mayer (AO) data.
largest (>0.10) Wiberg bond orders for each atom

     #   Z sym  total        # sym  WBO       # sym  WBO       # sym  WBO
 ---------------------------------------------------------------------------
     1  16 S    5.195 --     5 O    1.481     3 O    1.481     4 O    1.481
                             2 C    0.746
     2   6 C    3.986 --     6 H    0.992     8 H    0.992     7 H    0.992
                             1 S    0.746
     3   8 O    1.788 --     1 S    1.481     5 O    0.107     4 O    0.107
     4   8 O    1.788 --     1 S    1.481     5 O    0.107     3 O    0.107
     5   8 O    1.788 --     1 S    1.481     3 O    0.107     4 O    0.107
     6   1 H    0.999 --     2 C    0.992
     7   1 H    0.999 --     2 C    0.992
     8   1 H    0.999 --     2 C    0.992
 ---------------------------------------------------------------------------

molecular dipole:
                 x           y           z       tot (Debye)
 q only:       -2.530      -0.942      -0.505
   full:       -2.611      -1.141      -0.605       7.404

           -------------------------------------------------
          | TOTAL ENERGY              -19.351883160588 Eh   |
          | GRADIENT NORM               0.000275046180 Eh/α |
          | HOMO-LUMO GAP               8.395203439715 eV   |
           -------------------------------------------------

 * finished run on 2024/12/20 at 01:52:15.480
