   * xtb version 6.7.1 (edcfbbe) compiled by 'conda@3ef47c1a292c' on 2024-11-25

   ID    Z sym.   atoms
    1    9 F      1, 4, 5, 7-9, 11-14
    2    6 C      2, 3, 10
    3    5 B      6

          program call               : xtb A006.xyz --opt --namespace A006 --charge -1
          :  Hamiltonian                  GFN2-xTB          :
 * total energy  :   -55.3918048 Eh     change       -0.1394419E-08 Eh
 * total energy  :   -55.4031290 Eh     change       -0.1132420E-01 Eh
 * total energy  :   -55.4090651 Eh     change       -0.5936079E-02 Eh
 * total energy  :   -55.4099047 Eh     change       -0.8396150E-03 Eh
 * total energy  :   -55.4103651 Eh     change       -0.4604109E-03 Eh
 * total energy  :   -55.4103875 Eh     change       -0.2237332E-04 Eh
 * total energy  :   -55.4103964 Eh     change       -0.8910950E-05 Eh
 * total energy  :   -55.4104007 Eh     change       -0.4255260E-05 Eh
   *** GEOMETRY OPTIMIZATION CONVERGED AFTER 8 ITERATIONS ***

 final structure:
================
14
 xtb: 6.7.1 (edcfbbe)
F            1.06053507469388        0.16172743589481        0.08433963280173
C            2.40955450745093        0.08401961625701        0.03123988606716
C            2.88038394616775       -0.53887028441760       -1.29714484715944
F            2.47855380776379        0.33255017254628       -2.28111961405202
F            4.25046297046562       -0.43643754569353       -1.29994524518989
B            2.34270879817833       -2.14642047332626       -1.57369856790951
F            2.85998715700173       -2.95193493782192       -0.58157208988789
F            0.96476469549651       -2.15908786268976       -1.53211559091330
F            2.79120643852265       -2.55465234662249       -2.80870236289579
C            2.92852974976788        1.52186551108836        0.30167133723560
F            2.47176301223587        1.96662104001817        1.48693027168821
F            4.25666667770762        1.60040171045947        0.36430884325083
F            2.51788315857410        2.40310427926856       -0.60861233962432
F            2.79305000597336       -0.65958631496110        1.09276068658864

          :  Hamiltonian                  GFN2-xTB          :
         :: total energy             -55.410400666558 Eh    ::
         :: gradient norm              0.000807274477 Eh/a0 ::
         :: HOMO-LUMO gap              9.095050151066 eV    ::
         :: SCC energy               -55.534361403799 Eh    ::
         :: -> dispersion             -0.011049162427 Eh    ::
         :: repulsion energy           0.123960737241 Eh    ::

    * Orbital Energies and Occupations

         #    Occupation            Energy/Eh            Energy/eV
      -------------------------------------------------------------
         1        2.0000           -0.8039669             -21.8771
       ...           ...                  ...                  ...
        31        2.0000           -0.3931698             -10.6987
        32        2.0000           -0.3921159             -10.6700
        33        2.0000           -0.3840804             -10.4514
        34        2.0000           -0.3767724             -10.2525
        35        2.0000           -0.3702732             -10.0756
        36        2.0000           -0.3694868             -10.0542
        37        2.0000           -0.3590977              -9.7715
        38        2.0000           -0.3305030              -8.9934
        39        2.0000           -0.3297482              -8.9729
        40        2.0000           -0.3220801              -8.7642
        41        2.0000           -0.3201296              -8.7112
        42        2.0000           -0.3200948              -8.7102
        43        2.0000           -0.2861742              -7.7872 (HOMO)
        44                          0.0480628               1.3079 (LUMO)
        45                          0.0591706               1.6101
        46                          0.1027268               2.7953
        47                          0.1402065               3.8152
        48                          0.1443253               3.9273
        49                          0.1878385               5.1113
        50                          0.2055210               5.5925
        51                          0.2495135               6.7896
        52                          0.2685615               7.3079
        53                          0.2905481               7.9062
        54                          0.4987041              13.5704
       ...                                ...                  ...
        56                          0.5317043              14.4684
      -------------------------------------------------------------
                  HL-Gap            0.3342369 Eh            9.0951 eV

     #   Z          covCN         q      C6AA      α(0)
     1   9 F        0.789    -0.197    11.205     3.954
     2   6 C        3.520     0.317    16.929     6.065
     3   6 C        3.401     0.205    20.347     6.964
     4   9 F        0.788    -0.245    11.707     4.042
     5   9 F        0.787    -0.245    11.711     4.042
     6   5 B        3.022     0.597    13.524     6.134
     7   9 F        0.721    -0.389    13.388     4.321
     8   9 F        0.721    -0.389    13.393     4.322
     9   9 F        0.721    -0.380    13.282     4.304
    10   6 C        3.330     0.485    17.370     6.613
    11   9 F        0.792    -0.198    11.216     3.956
    12   9 F        0.791    -0.182    11.055     3.928
    13   9 F        0.791    -0.182    11.056     3.928
    14   9 F        0.789    -0.197    11.204     3.954

Wiberg/Mayer (AO) data.
largest (>0.10) Wiberg bond orders for each atom

     #   Z sym  total        # sym  WBO       # sym  WBO       # sym  WBO
 ---------------------------------------------------------------------------
     1   9 F    1.067 --     2 C    0.959
     2   6 C    3.853 --    14 F    0.959     1 F    0.959     3 C    0.927
                            10 C    0.896
     3   6 C    3.640 --     5 F    0.935     4 F    0.935     2 C    0.927
                             6 B    0.717
     4   9 F    1.024 --     3 C    0.935
     5   9 F    1.023 --     3 C    0.935
     6   5 B    3.333 --     9 F    0.866     7 F    0.857     8 F    0.857
                             3 C    0.717
     7   9 F    0.944 --     6 B    0.857
     8   9 F    0.943 --     6 B    0.857
     9   9 F    0.954 --     6 B    0.866
    10   6 C    3.847 --    12 F    0.969    13 F    0.969    11 F    0.948
                             2 C    0.896
    11   9 F    1.074 --    10 C    0.948
    12   9 F    1.094 --    10 C    0.969
    13   9 F    1.094 --    10 C    0.969
    14   9 F    1.068 --     2 C    0.959
 ---------------------------------------------------------------------------

molecular dipole:
                 x           y           z       tot (Debye)
 q only:       -4.735       2.521       2.333
   full:       -4.681       2.747       2.416      15.100

           -------------------------------------------------
          | TOTAL ENERGY              -55.410400666558 Eh   |
          | GRADIENT NORM               0.000807274477 Eh/α |
          | HOMO-LUMO GAP               9.095050151066 eV   |
           -------------------------------------------------

 * finished run on 2024/12/20 at 01:52:15.570
