   * xtb version 6.7.1 (edcfbbe) compiled by 'conda@3ef47c1a292c' on 2024-11-25

   ID    Z sym.   atoms
    1    9 F      1, 3, 4, 6, 7, 16, 17, 19-21
    2    6 C      2, 5, 15, 18
    3   16 S      8, 12
    4    8 O      9, 10, 13, 14
    5    7 N      11

          program call               : xtb A007.xyz --opt --namespace A007 --charge -1
          :  Hamiltonian                  GFN2-xTB          :
 * total energy  :   -81.8146607 Eh     change       -0.9399059E-10 Eh
 * total energy  :   -81.8267473 Eh     change       -0.1208661E-01 Eh
 * total energy  :   -81.8317886 Eh     change       -0.5041356E-02 Eh
 * total energy  :   -81.8322182 Eh     change       -0.4295155E-03 Eh
 * total energy  :   -81.8324541 Eh     change       -0.2359521E-03 Eh
 * total energy  :   -81.8324822 Eh     change       -0.2809965E-04 Eh
 * total energy  :   -81.8325077 Eh     change       -0.2548603E-04 Eh
 * total energy  :   -81.8325208 Eh     change       -0.1314289E-04 Eh
 * total energy  :   -81.8325337 Eh     change       -0.1280684E-04 Eh
 * total energy  :   -81.8325432 Eh     change       -0.9526983E-05 Eh
 * total energy  :   -81.8325499 Eh     change       -0.6737199E-05 Eh
 * total energy  :   -81.8325551 Eh     change       -0.5142475E-05 Eh
 * total energy  :   -81.8325588 Eh     change       -0.3783902E-05 Eh
   *** GEOMETRY OPTIMIZATION CONVERGED AFTER 13 ITERATIONS ***

 final structure:
================
21
 xtb: 6.7.1 (edcfbbe)
F            0.87961192124497       -0.67886206745961        0.28367377987712
C            2.17594385953655       -0.34305422231676        0.11506596874909
F            2.33497875804357       -0.14936309098304       -1.19125208167991
F            2.32982595232605        0.83082022034483        0.72135905331683
C            3.13528493231918       -1.40016796079926        0.65931615827429
F            2.87636352211984       -1.58588781143056        1.97183064786672
F            2.88127779251265       -2.57461404165435        0.04254049681960
S            4.97086158754154       -0.92827672786031        0.42265780284269
O            5.11261125934939       -0.82978468595793       -0.99541238602672
O            5.10575544373020        0.27946910839536        1.17367162030693
N            5.57068969075640       -2.22166940453624        1.08583336781937
S            7.14097783419117       -2.29811695032604        1.11442329846589
O            7.77872350583179       -2.52972193438553       -0.14270412818172
O            7.79381370082025       -1.40510758404351        2.01841868263705
C            7.25514720477826       -3.98988032913284        1.99358959439645
F            6.62106242585520       -3.93087179146799        3.18469357249169
F            6.61982401996274       -4.92974387820784        1.26063242426079
C            8.69592867293485       -4.44099106049690        2.22743514081951
F            9.37066037442420       -4.56939782658760        1.08836829213333
F            9.36531604069018       -3.59215200906811        3.00248063436918
F            8.77382150103101       -5.64098595202589        2.84030806044190

          :  Hamiltonian                  GFN2-xTB          :
         :: total energy             -81.832558840949 Eh    ::
         :: gradient norm              0.000205022398 Eh/a0 ::
         :: HOMO-LUMO gap              6.177285971945 eV    ::
         :: SCC energy               -82.103870804735 Eh    ::
         :: -> dispersion             -0.027507959399 Eh    ::
         :: repulsion energy           0.271311963786 Eh    ::

    * Orbital Energies and Occupations

         #    Occupation            Energy/Eh            Energy/eV
      -------------------------------------------------------------
         1        2.0000           -0.8191309             -22.2897
       ...           ...                  ...                  ...
        52        2.0000           -0.4276411             -11.6367
        53        2.0000           -0.4165624             -11.3352
        54        2.0000           -0.4101223             -11.1600
        55        2.0000           -0.4003001             -10.8927
        56        2.0000           -0.3732701             -10.1572
        57        2.0000           -0.3677171             -10.0061
        58        2.0000           -0.3649582              -9.9310
        59        2.0000           -0.3520207              -9.5790
        60        2.0000           -0.3503729              -9.5341
        61        2.0000           -0.3456044              -9.4044
        62        2.0000           -0.3317912              -9.0285
        63        2.0000           -0.3296222              -8.9695
        64        2.0000           -0.3030721              -8.2470 (HOMO)
        65                         -0.0760610              -2.0697 (LUMO)
        66                         -0.0472071              -1.2846
        67                         -0.0371709              -1.0115
        68                          0.0020222               0.0550
        69                          0.0228424               0.6216
        70                          0.0264637               0.7201
        71                          0.0408064               1.1104
        72                          0.0496178               1.3502
        73                          0.0842904               2.2937
        74                          0.0964884               2.6256
        75                          0.1020973               2.7782
       ...                                ...                  ...
        94                          1.3874146              37.7535
      -------------------------------------------------------------
                  HL-Gap            0.2270111 Eh            6.1773 eV

     #   Z          covCN         q      C6AA      α(0)
     1   9 F        0.791    -0.187    11.097     3.935
     2   6 C        3.341     0.483    17.256     6.567
     3   9 F        0.792    -0.178    11.009     3.919
     4   9 F        0.792    -0.178    11.009     3.919
     5   6 C        3.501     0.193    18.928     6.454
     6   9 F        0.797    -0.191    11.142     3.943
     7   9 F        0.797    -0.191    11.143     3.943
     8  16 S        4.202     1.245    99.914    16.823
     9   8 O        0.860    -0.585    25.742     6.802
    10   8 O        0.860    -0.584    25.733     6.801
    11   7 N        1.829    -0.653    39.703     9.337
    12  16 S        4.202     1.245    99.914    16.823
    13   8 O        0.860    -0.584    25.729     6.801
    14   8 O        0.860    -0.585    25.745     6.803
    15   6 C        3.501     0.193    18.928     6.454
    16   9 F        0.797    -0.191    11.143     3.943
    17   9 F        0.797    -0.191    11.143     3.943
    18   6 C        3.341     0.483    17.255     6.567
    19   9 F        0.792    -0.178    11.010     3.920
    20   9 F        0.792    -0.178    11.008     3.919
    21   9 F        0.791    -0.187    11.097     3.935

Wiberg/Mayer (AO) data.
largest (>0.10) Wiberg bond orders for each atom

     #   Z sym  total        # sym  WBO       # sym  WBO       # sym  WBO
 ---------------------------------------------------------------------------
     1   9 F    1.079 --     2 C    0.946
     2   6 C    3.862 --     4 F    0.970     3 F    0.970     1 F    0.946
                             5 C    0.926
     3   9 F    1.097 --     2 C    0.970
     4   9 F    1.097 --     2 C    0.970
     5   6 C    3.796 --     6 F    0.966     7 F    0.966     2 C    0.926
                             8 S    0.657
     6   9 F    1.078 --     5 C    0.966
     7   9 F    1.077 --     5 C    0.966
     8  16 S    5.014 --    10 O    1.580     9 O    1.579    11 N    1.093
                             5 C    0.657
     9   8 O    1.897 --     8 S    1.579    10 O    0.114    11 N    0.105
    10   8 O    1.898 --     8 S    1.580     9 O    0.114    11 N    0.104
    11   7 N    2.740 --     8 S    1.093    12 S    1.093     9 O    0.105
                            13 O    0.105    14 O    0.105    10 O    0.104
    12  16 S    5.014 --    13 O    1.580    14 O    1.579    11 N    1.093
                            15 C    0.657
    13   8 O    1.898 --    12 S    1.580    14 O    0.114    11 N    0.105
    14   8 O    1.897 --    12 S    1.579    13 O    0.114    11 N    0.105
    15   6 C    3.796 --    17 F    0.966    16 F    0.966    18 C    0.926
                            12 S    0.657
    16   9 F    1.078 --    15 C    0.966
    17   9 F    1.078 --    15 C    0.966
    18   6 C    3.862 --    20 F    0.970    19 F    0.970    21 F    0.946
                            15 C    0.926
    19   9 F    1.097 --    18 C    0.970
    20   9 F    1.097 --    18 C    0.970
    21   9 F    1.079 --    18 C    0.946
 ---------------------------------------------------------------------------

molecular dipole:
                 x           y           z       tot (Debye)
 q only:      -11.303       3.226      -1.543
   full:      -11.381       3.128      -1.492      30.240

           -------------------------------------------------
          | TOTAL ENERGY              -81.832558840949 Eh   |
          | GRADIENT NORM               0.000205022398 Eh/α |
          | HOMO-LUMO GAP               6.177285971945 eV   |
           -------------------------------------------------

 * finished run on 2024/12/20 at 01:52:16.015
