   * xtb version 6.7.1 (edcfbbe) compiled by 'conda@3ef47c1a292c' on 2024-11-25

   ID    Z sym.   atoms
    1    9 F      1, 7
    2   16 S      2, 6
    3    8 O      3, 4, 8, 9
    4    7 N      5

          program call               : xtb A008.xyz --opt --namespace A008 --charge -1
          :  Hamiltonian                  GFN2-xTB          :
 * total energy  :   -35.4926393 Eh     change       -0.9215739E-11 Eh
 * total energy  :   -35.4987428 Eh     change       -0.6103491E-02 Eh
 * total energy  :   -35.5030159 Eh     change       -0.4273125E-02 Eh
 * total energy  :   -35.5035341 Eh     change       -0.5181322E-03 Eh
 * total energy  :   -35.5044825 Eh     change       -0.9484487E-03 Eh
 * total energy  :   -35.5047696 Eh     change       -0.2870449E-03 Eh
 * total energy  :   -35.5056077 Eh     change       -0.8380807E-03 Eh
 * total energy  :   -35.5062428 Eh     change       -0.6351959E-03 Eh
 * total energy  :   -35.5068101 Eh     change       -0.5672090E-03 Eh
 * total energy  :   -35.5072091 Eh     change       -0.3990725E-03 Eh
 * total energy  :   -35.5073166 Eh     change       -0.1074319E-03 Eh
 * total energy  :   -35.5075432 Eh     change       -0.2265991E-03 Eh
 * total energy  :   -35.5075732 Eh     change       -0.2999129E-04 Eh
 * total energy  :   -35.5075890 Eh     change       -0.1589251E-04 Eh
 * total energy  :   -35.5075946 Eh     change       -0.5586619E-05 Eh
 * total energy  :   -35.5075981 Eh     change       -0.3442881E-05 Eh
   *** GEOMETRY OPTIMIZATION CONVERGED AFTER 16 ITERATIONS ***

 final structure:
================
9
 xtb: 6.7.1 (edcfbbe)
F            1.38599693833458       -0.36466990016040        0.16002670091546
S            2.98110426951570        0.13494245151358        0.09412221761824
O            3.51845102101765       -0.70531797999669       -0.91753440378416
O            2.83431568642044        1.52659374186109       -0.16550334582938
N            3.34239879223131       -0.23923917155836        1.58959788016270
S            4.89317755826824       -0.18314496780940        1.67070537997250
F            5.34665054332467       -1.72134730463033        1.22294138920365
O            5.48938331696159        0.64754878998956        0.67563212578491
O            5.40157187392582       -0.10443565920903        3.00302205595607

          :  Hamiltonian                  GFN2-xTB          :
         :: total energy             -35.507598075468 Eh    ::
         :: gradient norm              0.000862393616 Eh/a0 ::
         :: HOMO-LUMO gap              7.332499213224 eV    ::
         :: SCC energy               -35.648171856725 Eh    ::
         :: -> dispersion             -0.011644350018 Eh    ::
         :: repulsion energy           0.140573781257 Eh    ::

    * Orbital Energies and Occupations

         #    Occupation            Energy/Eh            Energy/eV
      -------------------------------------------------------------
         1        2.0000           -0.6794506             -18.4888
       ...           ...                  ...                  ...
        16        2.0000           -0.3700027             -10.0683
        17        2.0000           -0.3659120              -9.9570
        18        2.0000           -0.3655591              -9.9474
        19        2.0000           -0.3603203              -9.8048
        20        2.0000           -0.3415797              -9.2949
        21        2.0000           -0.3364136              -9.1543
        22        2.0000           -0.3330574              -9.0630
        23        2.0000           -0.3267430              -8.8911
        24        2.0000           -0.3182377              -8.6597
        25        2.0000           -0.3166009              -8.6151
        26        2.0000           -0.3153667              -8.5816
        27        2.0000           -0.2924596              -7.9582
        28        2.0000           -0.2745339              -7.4704 (HOMO)
        29                         -0.0050695              -0.1379 (LUMO)
        30                          0.0021387               0.0582
        31                          0.0478326               1.3016
        32                          0.0710376               1.9330
        33                          0.1297640               3.5311
        34                          0.1482848               4.0350
        35                          0.1847729               5.0279
        36                          0.2103402               5.7236
        37                          0.3152433               8.5782
        38                          0.3271196               8.9014
        39                          0.3545091               9.6467
       ...                                ...                  ...
        46                          1.4557063              39.6118
      -------------------------------------------------------------
                  HL-Gap            0.2694644 Eh            7.3325 eV

     #   Z          covCN         q      C6AA      α(0)
     1   9 F        0.785    -0.431    13.919     4.407
     2  16 S        4.227     1.635    90.258    15.990
     3   8 O        0.860    -0.656    27.529     7.035
     4   8 O        0.860    -0.651    27.397     7.018
     5   7 N        1.829    -0.747    43.420     9.764
     6  16 S        4.210     1.595    91.198    16.073
     7   9 F        0.786    -0.431    13.921     4.407
     8   8 O        0.877    -0.687    28.352     7.140
     9   8 O        0.860    -0.627    26.784     6.939

Wiberg/Mayer (AO) data.
largest (>0.10) Wiberg bond orders for each atom

     #   Z sym  total        # sym  WBO       # sym  WBO       # sym  WBO
 ---------------------------------------------------------------------------
     1   9 F    0.912 --     2 S    0.738
     2  16 S    4.729 --     4 O    1.481     3 O    1.481     5 N    0.982
                             1 F    0.738
     3   8 O    1.799 --     2 S    1.481     4 O    0.128     5 N    0.121
     4   8 O    1.802 --     2 S    1.481     3 O    0.128     5 N    0.118
     5   7 N    2.647 --     6 S    1.089     2 S    0.982     8 O    0.127
                             3 O    0.121     4 O    0.118     9 O    0.109
     6  16 S    4.809 --     9 O    1.515     8 O    1.446     5 N    1.089
                             7 F    0.727
     7   9 F    0.913 --     6 S    0.727
     8   8 O    1.780 --     6 S    1.446     5 N    0.127     9 O    0.121
     9   8 O    1.824 --     6 S    1.515     8 O    0.121     5 N    0.109
 ---------------------------------------------------------------------------

molecular dipole:
                 x           y           z       tot (Debye)
 q only:       -7.620       0.182      -1.139
   full:       -7.603       0.054      -1.249      19.584

           -------------------------------------------------
          | TOTAL ENERGY              -35.507598075468 Eh   |
          | GRADIENT NORM               0.000862393616 Eh/α |
          | HOMO-LUMO GAP               7.332499213224 eV   |
           -------------------------------------------------

 * finished run on 2024/12/20 at 01:52:16.191
