   * xtb version 6.7.1 (edcfbbe) compiled by 'conda@3ef47c1a292c' on 2024-11-25

   ID    Z sym.   atoms
    1    6 C      1-5
    2    8 O      6, 8-10
    3   16 S      7
    4    1 H      11-21

          program call               : xtb A009.xyz --opt --namespace A009 --charge -1
          :  Hamiltonian                  GFN2-xTB          :
 * total energy  :   -36.1143158 Eh     change       -0.1677591E-09 Eh
 * total energy  :   -36.1179833 Eh     change       -0.3667570E-02 Eh
 * total energy  :   -36.1202882 Eh     change       -0.2304819E-02 Eh
 * total energy  :   -36.1207137 Eh     change       -0.4255848E-03 Eh
 * total energy  :   -36.1209286 Eh     change       -0.2149049E-03 Eh
 * total energy  :   -36.1209891 Eh     change       -0.6046368E-04 Eh
 * total energy  :   -36.1210284 Eh     change       -0.3924540E-04 Eh
 * total energy  :   -36.1210556 Eh     change       -0.2725730E-04 Eh
 * total energy  :   -36.1210888 Eh     change       -0.3315598E-04 Eh
 * total energy  :   -36.1211331 Eh     change       -0.4429049E-04 Eh
 * total energy  :   -36.1229882 Eh     change       -0.1129595E-03 Eh
 * total energy  :   -36.1230797 Eh     change       -0.9149207E-04 Eh
 * total energy  :   -36.1231940 Eh     change       -0.1142328E-03 Eh
 * total energy  :   -36.1232950 Eh     change       -0.1010357E-03 Eh
 * total energy  :   -36.1233322 Eh     change       -0.3719776E-04 Eh
 * total energy  :   -36.1233416 Eh     change       -0.9447819E-05 Eh
 * total energy  :   -36.1233517 Eh     change       -0.1007906E-04 Eh
 * total energy  :   -36.1233558 Eh     change       -0.4091575E-05 Eh
 * total energy  :   -36.1233575 Eh     change       -0.1681117E-05 Eh
   *** GEOMETRY OPTIMIZATION CONVERGED AFTER 35 ITERATIONS ***

 final structure:
================
21
 xtb: 6.7.1 (edcfbbe)
C            1.47259058119037       -0.33635168420977        0.53099026346646
C            0.46945969353309       -1.30627422934296       -0.10272660535535
C            0.32929877148913       -2.62662785743072        0.65714184343026
C           -0.03886487808890       -2.47270242732000        2.13308814238632
C           -1.36865211519009       -1.75936771366269        2.34220488406992
O            0.89060468628195        0.39470982233842        1.56237272424108
S            2.05331598231046        0.62767064382874        2.73240585177205
O            2.40617741111544       -0.71201696510729        3.17955793631398
O            3.13652764868375        1.30424309348768        2.04217853129337
O            1.36958182866328        1.42549573032937        3.72467506336609
H            1.84853819796807        0.36323917928958       -0.23260205805770
H            2.33214653085888       -0.87865429861019        0.94041251145582
H           -0.49608415011236       -0.80162660274409       -0.15731318548781
H            0.79509364414145       -1.52559972222765       -1.12482415711747
H           -0.42941749731815       -3.23818554553682        0.15134313466991
H            1.28093801115516       -3.16172469100035        0.59602781403422
H           -0.08644127265388       -3.47335398234631        2.57662258972799
H            0.74805693410370       -1.91139888097759        2.64120128317963
H           -2.15641990576204       -2.20290951364313        1.72935141614651
H           -1.66674557434386       -1.82098278095511        3.38689050322138
H           -1.25996452802295       -0.70953157415704        2.08713151324469

          :  Hamiltonian                  GFN2-xTB          :
         :: total energy             -36.123357488593 Eh    ::
         :: gradient norm              0.000513162020 Eh/a0 ::
         :: HOMO-LUMO gap              8.618864744146 eV    ::
         :: SCC energy               -36.430008052745 Eh    ::
         :: -> dispersion             -0.019341101725 Eh    ::
         :: repulsion energy           0.306650564152 Eh    ::

    * Orbital Energies and Occupations

         #    Occupation            Energy/Eh            Energy/eV
      -------------------------------------------------------------
         1        2.0000           -0.5731681             -15.5967
       ...           ...                  ...                  ...
        19        2.0000           -0.3251196              -8.8470
        20        2.0000           -0.3217214              -8.7545
        21        2.0000           -0.3179782              -8.6526
        22        2.0000           -0.3133744              -8.5274
        23        2.0000           -0.3033463              -8.2545
        24        2.0000           -0.3017999              -8.2124
        25        2.0000           -0.2716003              -7.3906
        26        2.0000           -0.2620032              -7.1295
        27        2.0000           -0.2578061              -7.0153
        28        2.0000           -0.2544520              -6.9240
        29        2.0000           -0.2434691              -6.6251
        30        2.0000           -0.2418454              -6.5809
        31        2.0000           -0.2322182              -6.3190 (HOMO)
        32                          0.0845192               2.2999 (LUMO)
        33                          0.1417757               3.8579
        34                          0.1970418               5.3618
        35                          0.2044691               5.5639
        36                          0.2087384               5.6801
        37                          0.2304403               6.2706
        38                          0.2337205               6.3599
        39                          0.2457712               6.6878
        40                          0.2614073               7.1133
        41                          0.2750003               7.4831
        42                          0.2867445               7.8027
       ...                                ...                  ...
        56                          1.4218980              38.6918
      -------------------------------------------------------------
                  HL-Gap            0.3167375 Eh            8.6189 eV

     #   Z          covCN         q      C6AA      α(0)
     1   6 C        3.973     0.100    18.876     6.173
     2   6 C        3.799    -0.061    21.668     6.628
     3   6 C        3.800    -0.049    21.450     6.594
     4   6 C        3.799    -0.062    21.685     6.630
     5   6 C        3.751    -0.098    22.427     6.754
     6   8 O        1.707    -0.483    22.509     6.406
     7  16 S        3.734     1.458    94.472    16.359
     8   8 O        0.860    -0.715    29.125     7.236
     9   8 O        0.860    -0.715    29.116     7.235
    10   8 O        0.860    -0.683    28.239     7.125
    11   1 H        0.923     0.010     2.898     2.662
    12   1 H        0.924     0.033     2.541     2.493
    13   1 H        0.924     0.043     2.414     2.430
    14   1 H        0.924     0.013     2.841     2.636
    15   1 H        0.923     0.011     2.876     2.652
    16   1 H        0.924     0.022     2.704     2.572
    17   1 H        0.924     0.009     2.904     2.665
    18   1 H        0.924     0.081     1.968     2.194
    19   1 H        0.924     0.010     2.885     2.656
    20   1 H        0.925     0.022     2.709     2.574
    21   1 H        0.925     0.053     2.282     2.362

Wiberg/Mayer (AO) data.
largest (>0.10) Wiberg bond orders for each atom

     #   Z sym  total        # sym  WBO       # sym  WBO       # sym  WBO
 ---------------------------------------------------------------------------
     1   6 C    3.952 --     2 C    0.994     6 O    0.994    11 H    0.969
                            12 H    0.963
     2   6 C    3.998 --     3 C    1.008     1 C    0.994    14 H    0.979
                            13 H    0.976
     3   6 C    3.999 --     4 C    1.008     2 C    1.008    16 H    0.979
                            15 H    0.978
     4   6 C    3.991 --     5 C    1.020     3 C    1.008    17 H    0.979
                            18 H    0.959
     5   6 C    3.997 --     4 C    1.020    20 H    0.988    19 H    0.988
                            21 H    0.983
     6   8 O    2.036 --     1 C    0.994     7 S    0.787
     7  16 S    5.040 --    10 O    1.447     9 O    1.404     8 O    1.382
                             6 O    0.787
     8   8 O    1.725 --     7 S    1.382     9 O    0.119    10 O    0.118
     9   8 O    1.719 --     7 S    1.404    10 O    0.119     8 O    0.119
    10   8 O    1.756 --     7 S    1.447     9 O    0.119     8 O    0.118
    11   1 H    1.000 --     1 C    0.969
    12   1 H    0.999 --     1 C    0.963
    13   1 H    0.998 --     2 C    0.976
    14   1 H    0.999 --     2 C    0.979
    15   1 H    1.000 --     3 C    0.978
    16   1 H    1.000 --     3 C    0.979
    17   1 H    1.000 --     4 C    0.979
    18   1 H    0.993 --     4 C    0.959
    19   1 H    1.000 --     5 C    0.988
    20   1 H    1.000 --     5 C    0.988
    21   1 H    0.997 --     5 C    0.983
 ---------------------------------------------------------------------------

molecular dipole:
                 x           y           z       tot (Debye)
 q only:       -3.880      -1.218      -5.514
   full:       -3.931      -1.267      -5.755      18.004

           -------------------------------------------------
          | TOTAL ENERGY              -36.123357488593 Eh   |
          | GRADIENT NORM               0.000513162020 Eh/α |
          | HOMO-LUMO GAP               8.618864744146 eV   |
           -------------------------------------------------

 * finished run on 2024/12/20 at 01:52:16.720
