   * xtb version 6.7.1 (edcfbbe) compiled by 'conda@3ef47c1a292c' on 2024-11-25

   ID    Z sym.   atoms
    1    8 O      1, 3, 11, 12
    2    6 C      2, 4-10
    3    1 H      13-17

          program call               : xtb A011.xyz --opt --namespace A011 --charge -1
          :  Hamiltonian                  GFN2-xTB          :
 * total energy  :   -36.1966070 Eh     change       -0.3978116E-09 Eh
 * total energy  :   -36.2041811 Eh     change       -0.7574087E-02 Eh
 * total energy  :   -36.2054234 Eh     change       -0.1242292E-02 Eh
 * total energy  :   -36.2061396 Eh     change       -0.7162003E-03 Eh
 * total energy  :   -36.2063390 Eh     change       -0.1993446E-03 Eh
 * total energy  :   -36.2065307 Eh     change       -0.1917632E-03 Eh
 * total energy  :   -36.2066322 Eh     change       -0.1014724E-03 Eh
 * total energy  :   -36.2067764 Eh     change       -0.1441905E-03 Eh
 * total energy  :   -36.2068897 Eh     change       -0.1133220E-03 Eh
 * total energy  :   -36.2069460 Eh     change       -0.5632844E-04 Eh
 * total energy  :   -36.2069713 Eh     change       -0.2526039E-04 Eh
 * total energy  :   -36.2069884 Eh     change       -0.1713862E-04 Eh
 * total energy  :   -36.2070051 Eh     change       -0.1663980E-04 Eh
 * total energy  :   -36.2070151 Eh     change       -0.9986593E-05 Eh
 * total energy  :   -36.2070218 Eh     change       -0.6761087E-05 Eh
 * total energy  :   -36.2070247 Eh     change       -0.2854888E-05 Eh
   *** GEOMETRY OPTIMIZATION CONVERGED AFTER 16 ITERATIONS ***

 final structure:
================
17
 xtb: 6.7.1 (edcfbbe)
O            1.18692295763904        0.15302598395389       -0.50975203335777
C            0.40856893307322        0.15412170036174       -1.53622687100754
O            0.81351186595000       -0.03519557320839       -2.67422180169606
C           -1.08638828097141        0.34234492200542       -1.32498141075681
C           -1.86502278498057       -0.15182328820059       -2.37297721374905
C           -3.24219957398860       -0.08120950794410       -2.36550210848580
C           -3.88166787180238        0.51975356735126       -1.29371046679936
C           -3.12620613929099        1.03025369999025       -0.25879206659158
C           -1.73370299257579        0.94865009311739       -0.23803244196693
C           -1.10363125570013        1.55986918177826        1.01911304847112
O           -1.75954465807865        2.39909459265754        1.62468027221289
O            0.03536303308598        1.12547714796064        1.39589630442016
H            0.65922562986864        0.55907125142635        0.44736014969506
H           -1.34212101850423       -0.59744634630528       -3.20763696603284
H           -3.81425968584207       -0.48670694942616       -3.19028086786249
H           -4.96158759320455        0.59219742328069       -1.26867119397987
H           -3.60126056467754        1.52177210120106        0.57875566748688

          :  Hamiltonian                  GFN2-xTB          :
         :: total energy             -36.207024691529 Eh    ::
         :: gradient norm              0.000694456633 Eh/a0 ::
         :: HOMO-LUMO gap              2.867674791282 eV    ::
         :: SCC energy               -36.617711726151 Eh    ::
         :: -> dispersion             -0.016975082093 Eh    ::
         :: repulsion energy           0.410687034622 Eh    ::

    * Orbital Energies and Occupations

         #    Occupation            Energy/Eh            Energy/eV
      -------------------------------------------------------------
         1        2.0000           -0.5651059             -15.3773
       ...           ...                  ...                  ...
        19        2.0000           -0.3634343              -9.8895
        20        2.0000           -0.3596206              -9.7858
        21        2.0000           -0.3587740              -9.7627
        22        2.0000           -0.3374351              -9.1821
        23        2.0000           -0.3338833              -9.0854
        24        2.0000           -0.3105268              -8.4499
        25        2.0000           -0.2936019              -7.9893
        26        2.0000           -0.2890094              -7.8643
        27        2.0000           -0.2876772              -7.8281
        28        2.0000           -0.2767191              -7.5299
        29        2.0000           -0.2565945              -6.9823
        30        2.0000           -0.2532682              -6.8918
        31        2.0000           -0.2398177              -6.5258 (HOMO)
        32                         -0.1344326              -3.6581 (LUMO)
        33                         -0.1169530              -3.1825
        34                         -0.0482006              -1.3116
        35                         -0.0381129              -1.0371
        36                          0.0443008               1.2055
        37                          0.2093244               5.6960
        38                          0.2119704               5.7680
        39                          0.2357892               6.4161
        40                          0.2656811               7.2296
        41                          0.2813653               7.6563
        42                          0.2921119               7.9488
       ...                                ...                  ...
        53                          0.8284321              22.5428
      -------------------------------------------------------------
                  HL-Gap            0.1053851 Eh            2.8677 eV

     #   Z          covCN         q      C6AA      α(0)
     1   8 O        1.504    -0.476    22.502     6.397
     2   6 C        2.696     0.361    20.872     7.477
     3   8 O        0.857    -0.491    23.580     6.510
     4   6 C        2.965    -0.036    28.881     8.815
     5   6 C        2.931    -0.029    28.733     8.791
     6   6 C        2.917    -0.037    28.922     8.819
     7   6 C        2.917    -0.036    28.899     8.815
     8   6 C        2.931    -0.029    28.717     8.788
     9   6 C        2.963    -0.035    28.867     8.813
    10   6 C        2.694     0.363    20.837     7.471
    11   8 O        0.857    -0.509    23.979     6.565
    12   8 O        1.255    -0.516    23.832     6.560
    13   1 H        1.047     0.365     0.542     1.149
    14   1 H        0.926     0.044     2.402     2.424
    15   1 H        0.925     0.007     2.934     2.679
    16   1 H        0.925     0.008     2.930     2.677
    17   1 H        0.926     0.045     2.384     2.415

Wiberg/Mayer (AO) data.
largest (>0.10) Wiberg bond orders for each atom

     #   Z sym  total        # sym  WBO       # sym  WBO       # sym  WBO
 ---------------------------------------------------------------------------
     1   8 O    2.135 --     2 C    1.300    13 H    0.486     3 O    0.192
     2   6 C    3.933 --     3 O    1.637     1 O    1.300     4 C    0.953
     3   8 O    1.951 --     2 C    1.637     1 O    0.192
     4   6 C    3.980 --     5 C    1.399     9 C    1.379     2 C    0.953
                             7 C    0.104
     5   6 C    3.991 --     6 C    1.455     4 C    1.399    14 H    0.965
                             8 C    0.107
     6   6 C    3.992 --     5 C    1.455     7 C    1.420    15 H    0.971
                             9 C    0.105
     7   6 C    3.993 --     8 C    1.454     6 C    1.420    16 H    0.971
                             4 C    0.104
     8   6 C    3.990 --     7 C    1.454     9 C    1.403    17 H    0.964
                             5 C    0.107
     9   6 C    3.974 --     8 C    1.403     4 C    1.379    10 C    0.934
                             6 C    0.105
    10   6 C    3.938 --    11 O    1.616    12 O    1.346     9 C    0.934
    11   8 O    1.936 --    10 C    1.616    12 O    0.202
    12   8 O    2.064 --    10 C    1.346    13 H    0.355    11 O    0.202
    13   1 H    0.867 --     1 O    0.486    12 O    0.355
    14   1 H    0.998 --     5 C    0.965
    15   1 H    0.999 --     6 C    0.971
    16   1 H    0.999 --     7 C    0.971
    17   1 H    0.998 --     8 C    0.964
 ---------------------------------------------------------------------------

molecular dipole:
                 x           y           z       tot (Debye)
 q only:        0.225      -2.028       0.202
   full:       -0.097      -2.094       0.083       5.333

           -------------------------------------------------
          | TOTAL ENERGY              -36.207024691529 Eh   |
          | GRADIENT NORM               0.000694456633 Eh/α |
          | HOMO-LUMO GAP               2.867674791282 eV   |
           -------------------------------------------------

 * finished run on 2024/12/20 at 01:52:19.210
