   * xtb version 6.7.1 (edcfbbe) compiled by 'conda@3ef47c1a292c' on 2024-11-25

   ID    Z sym.   atoms
    1    6 C      1-6, 8-25
    2    5 B      7
    3    1 H      26-45

          program call               : xtb A012.xyz --opt --namespace A012 --charge -1
          :  Hamiltonian                  GFN2-xTB          :
 * total energy  :   -62.8579877 Eh     change       -0.1211333E-09 Eh
 * total energy  :   -62.9278115 Eh     change       -0.6982376E-01 Eh
 * total energy  :   -62.9574979 Eh     change       -0.2968641E-01 Eh
 * total energy  :   -62.9708297 Eh     change       -0.1333179E-01 Eh
 * total energy  :   -62.9762277 Eh     change       -0.5397955E-02 Eh
 * total energy  :   -62.9779930 Eh     change       -0.1765352E-02 Eh
 * total energy  :   -62.9786571 Eh     change       -0.6641264E-03 Eh
 * total energy  :   -62.9791025 Eh     change       -0.4453274E-03 Eh
 * total energy  :   -62.9794742 Eh     change       -0.3717244E-03 Eh
 * total energy  :   -62.9797881 Eh     change       -0.3138880E-03 Eh
 * total energy  :   -62.9851969 Eh     change       -0.1816041E-04 Eh
 * total energy  :   -62.9852116 Eh     change       -0.1465935E-04 Eh
 * total energy  :   -62.9852373 Eh     change       -0.2569469E-04 Eh
 * total energy  :   -62.9852663 Eh     change       -0.2899916E-04 Eh
 * total energy  :   -62.9852889 Eh     change       -0.2266248E-04 Eh
 * total energy  :   -62.9853022 Eh     change       -0.1328022E-04 Eh
 * total energy  :   -62.9852994 Eh     change        0.2823855E-05 Eh
 * total energy  :   -62.9853097 Eh     change       -0.1034901E-04 Eh
 * total energy  :   -62.9853144 Eh     change       -0.4706355E-05 Eh
   *** GEOMETRY OPTIMIZATION CONVERGED AFTER 53 ITERATIONS ***

 final structure:
================
45
 xtb: 6.7.1 (edcfbbe)
C            1.36126956597754       -0.27171293554337        0.20391189130025
C            0.85625179203069        0.98050608442003        0.56194338029444
C           -0.49458795950934        1.27378939501469        0.51685691474863
C           -1.40208276429380        0.30974612478617        0.11042197870713
C           -0.93341346199889       -0.94293033504140       -0.24394497526176
C            0.42248769921816       -1.21990073280134       -0.19623841745376
B            2.96643502926302       -0.54811439770187        0.23900146117368
C            3.67229940740162        0.10742887965196       -1.07475261766829
C            4.95060303517570       -0.30009208049298       -1.46343655472305
C            5.60242715850751        0.24827418542217       -2.55312802334509
C            4.98839549830807        1.23482203996075       -3.30664551266947
C            3.71894890862654        1.65514071769615       -2.95105175312815
C            3.08095309460453        1.09825978504574       -1.85551252913975
C            3.57572108132975        0.12104165478918        1.59361316833467
C            4.79708585690886        0.78962413204212        1.64372808489413
C            5.30143767067662        1.31959192287792        2.81931800302189
C            4.59146165422129        1.19672307193821        4.00084132454591
C            3.37221640574836        0.54009660937978        3.98404535583996
C            2.88156135856131        0.01720696933182        2.80131077631479
C            3.25041293731066       -2.15206562580549        0.23436940547402
C            3.55688220067298       -2.88490137975010        1.37904773158523
C            3.75369586864152       -4.25512136740687        1.34821869464626
C            3.64834708957291       -4.94801629048074        0.15501173743782
C            3.35100957864057       -4.24752681476993       -1.00215190309284
C            3.15964202384761       -2.87853510951913       -0.95520476588210
H            1.54782861424805        1.74616308752505        0.89045906727467
H           -0.84794258659522        2.25947429293499        0.79991340583049
H           -2.46240830474988        0.53248873878254        0.07314163788670
H           -1.63330151244094       -1.70931519396750       -0.55938087637650
H            0.75988498142236       -2.20924559712605       -0.47522426096520
H            5.44528588991903       -1.07669545134933       -0.89362788697833
H            6.59654014742151       -0.09286632075262       -2.82184465443670
H            5.49309558440066        1.66840274524639       -4.16256787329846
H            3.22372163401911        2.42337490067653       -3.53519082311607
H            2.08691863052007        1.44338010063495       -1.60384229244279
H            5.37170906756298        0.90449782232851        0.73422449570550
H            6.25621509161671        1.83453978136130        2.81740827344684
H            4.98206171433504        1.60962274373542        4.92400185726410
H            2.80336166330826        0.43795283417564        4.90206023989804
H            1.92324170227886       -0.48673131281995        2.80958820531075
H            3.64759469211628       -2.36854701071645        2.32546565773809
H            3.99039660212620       -4.79064811302619        2.26144251683659
H            3.79784822674748       -6.02134928065618        0.12607509692380
H            3.26791430343822       -4.77711512434890       -1.94521716487740
H            2.93527312885502       -2.34918814568084       -1.87277747757725

          :  Hamiltonian                  GFN2-xTB          :
         :: total energy             -62.985314436840 Eh    ::
         :: gradient norm              0.000460273695 Eh/a0 ::
         :: HOMO-LUMO gap              3.775045501359 eV    ::
         :: SCC energy               -64.189505843443 Eh    ::
         :: -> dispersion             -0.059945347658 Eh    ::
         :: repulsion energy           1.204191406603 Eh    ::

    * Orbital Energies and Occupations

         #    Occupation            Energy/Eh            Energy/eV
      -------------------------------------------------------------
         1        2.0000           -0.5064274             -13.7806
       ...           ...                  ...                  ...
        48        2.0000           -0.2842748              -7.7355
        49        2.0000           -0.2835786              -7.7166
        50        2.0000           -0.2680613              -7.2943
        51        2.0000           -0.2666056              -7.2547
        52        2.0000           -0.2665961              -7.2544
        53        2.0000           -0.2662632              -7.2454
        54        2.0000           -0.2637406              -7.1767
        55        2.0000           -0.2612507              -7.1090
        56        2.0000           -0.2611159              -7.1053
        57        2.0000           -0.2565047              -6.9798
        58        2.0000           -0.2287636              -6.2250
        59        2.0000           -0.2268860              -6.1739
        60        2.0000           -0.2268614              -6.1732 (HOMO)
        61                         -0.0881311              -2.3982 (LUMO)
        62                         -0.0857810              -2.3342
        63                         -0.0845802              -2.3015
        64                         -0.0832232              -2.2646
        65                         -0.0831692              -2.2632
        66                         -0.0809152              -2.2018
        67                         -0.0808745              -2.2007
        68                         -0.0800993              -2.1796
        69                          0.0434340               1.1819
        70                          0.0444907               1.2107
        71                          0.0446086               1.2139
       ...                                ...                  ...
       120                          0.8083235              21.9956
      -------------------------------------------------------------
                  HL-Gap            0.1387304 Eh            3.7750 eV

     #   Z          covCN         q      C6AA      α(0)
     1   6 C        2.873    -0.052    29.282     8.871
     2   6 C        2.929    -0.035    28.880     8.813
     3   6 C        2.916    -0.043    29.056     8.839
     4   6 C        2.919    -0.048    29.190     8.860
     5   6 C        2.917    -0.042    29.046     8.838
     6   6 C        2.928    -0.041    29.018     8.834
     7   5 B        3.567     0.133    19.600     7.299
     8   6 C        2.873    -0.052    29.281     8.870
     9   6 C        2.929    -0.035    28.882     8.814
    10   6 C        2.916    -0.042    29.055     8.839
    11   6 C        2.919    -0.048    29.190     8.860
    12   6 C        2.917    -0.042    29.046     8.838
    13   6 C        2.928    -0.041    29.019     8.834
    14   6 C        2.873    -0.052    29.280     8.870
    15   6 C        2.928    -0.041    29.018     8.834
    16   6 C        2.917    -0.042    29.046     8.838
    17   6 C        2.919    -0.048    29.191     8.860
    18   6 C        2.916    -0.042    29.055     8.839
    19   6 C        2.929    -0.035    28.883     8.814
    20   6 C        2.873    -0.052    29.280     8.870
    21   6 C        2.928    -0.041    29.016     8.834
    22   6 C        2.917    -0.042    29.045     8.838
    23   6 C        2.919    -0.048    29.191     8.860
    24   6 C        2.916    -0.042    29.055     8.839
    25   6 C        2.929    -0.035    28.882     8.813
    26   1 H        0.925     0.007     2.933     2.678
    27   1 H        0.925    -0.012     3.271     2.828
    28   1 H        0.925    -0.015     3.325     2.852
    29   1 H        0.925    -0.012     3.274     2.830
    30   1 H        0.925     0.009     2.914     2.670
    31   1 H        0.925     0.007     2.934     2.679
    32   1 H        0.925    -0.012     3.271     2.828
    33   1 H        0.925    -0.015     3.325     2.852
    34   1 H        0.925    -0.012     3.274     2.829
    35   1 H        0.925     0.009     2.912     2.668
    36   1 H        0.925     0.009     2.913     2.669
    37   1 H        0.925    -0.012     3.274     2.830
    38   1 H        0.925    -0.015     3.325     2.851
    39   1 H        0.925    -0.012     3.271     2.828
    40   1 H        0.925     0.007     2.933     2.678
    41   1 H        0.925     0.008     2.916     2.670
    42   1 H        0.925    -0.012     3.274     2.830
    43   1 H        0.925    -0.015     3.325     2.851
    44   1 H        0.925    -0.012     3.271     2.828
    45   1 H        0.925     0.007     2.934     2.679

Wiberg/Mayer (AO) data.
largest (>0.10) Wiberg bond orders for each atom

     #   Z sym  total        # sym  WBO       # sym  WBO       # sym  WBO
 ---------------------------------------------------------------------------
     1   6 C    3.908 --     6 C    1.413     2 C    1.396     7 B    0.886
                             4 C    0.113
     2   6 C    3.990 --     3 C    1.454     1 C    1.396    26 H    0.970
                             5 C    0.106
     3   6 C    3.990 --     2 C    1.454     4 C    1.427    27 H    0.971
                             6 C    0.104
     4   6 C    3.988 --     5 C    1.435     3 C    1.427    28 H    0.972
                             1 C    0.113
     5   6 C    3.990 --     6 C    1.445     4 C    1.435    29 H    0.971
                             2 C    0.106
     6   6 C    3.990 --     5 C    1.445     1 C    1.413    30 H    0.966
                             3 C    0.104
     7   5 B    3.659 --     8 C    0.886    14 C    0.886    20 C    0.886
                             1 C    0.886
     8   6 C    3.908 --    13 C    1.413     9 C    1.397     7 B    0.886
                            11 C    0.113
     9   6 C    3.990 --    10 C    1.454     8 C    1.397    31 H    0.970
                            12 C    0.106
    10   6 C    3.990 --     9 C    1.454    11 C    1.428    32 H    0.971
                            13 C    0.104
    11   6 C    3.988 --    12 C    1.435    10 C    1.428    33 H    0.972
                             8 C    0.113
    12   6 C    3.990 --    13 C    1.446    11 C    1.435    34 H    0.971
                             9 C    0.106
    13   6 C    3.990 --    12 C    1.446     8 C    1.413    35 H    0.966
                            10 C    0.104
    14   6 C    3.908 --    15 C    1.412    19 C    1.397     7 B    0.886
                            17 C    0.113
    15   6 C    3.990 --    16 C    1.446    14 C    1.412    36 H    0.966
                            18 C    0.104
    16   6 C    3.990 --    15 C    1.446    17 C    1.435    37 H    0.971
                            19 C    0.106
    17   6 C    3.988 --    16 C    1.435    18 C    1.428    38 H    0.972
                            14 C    0.113
    18   6 C    3.990 --    19 C    1.454    17 C    1.428    39 H    0.971
                            15 C    0.104
    19   6 C    3.990 --    18 C    1.454    14 C    1.397    40 H    0.970
                            16 C    0.106
    20   6 C    3.908 --    21 C    1.412    25 C    1.396     7 B    0.886
                            23 C    0.113
    21   6 C    3.990 --    22 C    1.446    20 C    1.412    41 H    0.966
                            24 C    0.104
    22   6 C    3.990 --    21 C    1.446    23 C    1.435    42 H    0.971
                            25 C    0.106
    23   6 C    3.988 --    22 C    1.435    24 C    1.428    43 H    0.972
                            20 C    0.113
    24   6 C    3.990 --    25 C    1.454    23 C    1.428    44 H    0.971
                            21 C    0.104
    25   6 C    3.990 --    24 C    1.454    20 C    1.396    45 H    0.970
                            22 C    0.106
    26   1 H    1.000 --     2 C    0.970
    27   1 H    0.999 --     3 C    0.971
    28   1 H    0.999 --     4 C    0.972
    29   1 H    0.999 --     5 C    0.971
    30   1 H    1.000 --     6 C    0.966
    31   1 H    1.000 --     9 C    0.970
    32   1 H    0.999 --    10 C    0.971
    33   1 H    0.999 --    11 C    0.972
    34   1 H    0.999 --    12 C    0.971
    35   1 H    1.000 --    13 C    0.966
    36   1 H    1.000 --    15 C    0.966
    37   1 H    0.999 --    16 C    0.971
    38   1 H    0.999 --    17 C    0.972
    39   1 H    0.999 --    18 C    0.971
    40   1 H    1.000 --    19 C    0.970
    41   1 H    1.000 --    21 C    0.966
    42   1 H    0.999 --    22 C    0.971
    43   1 H    0.999 --    23 C    0.972
    44   1 H    0.999 --    24 C    0.971
    45   1 H    1.000 --    25 C    0.970
 ---------------------------------------------------------------------------

molecular dipole:
                 x           y           z       tot (Debye)
 q only:       -5.592       1.042      -0.453
   full:       -5.597       1.040      -0.453      14.514

           -------------------------------------------------
          | TOTAL ENERGY              -62.985314436840 Eh   |
          | GRADIENT NORM               0.000460273695 Eh/α |
          | HOMO-LUMO GAP               3.775045501359 eV   |
           -------------------------------------------------

 * finished run on 2024/12/20 at 01:52:20.725
