   * xtb version 6.7.1 (edcfbbe) compiled by 'conda@3ef47c1a292c' on 2024-11-25

   ID    Z sym.   atoms
    1   16 S      1
    2    8 O      2-4
    3    6 C      5-11
    4    1 H      12-18

          program call               : xtb A013.xyz --opt --namespace A013 --charge -1
          :  Hamiltonian                  GFN2-xTB          :
 * total energy  :   -34.2379440 Eh     change       -0.1237197E-09 Eh
 * total energy  :   -34.2404342 Eh     change       -0.2490213E-02 Eh
 * total energy  :   -34.2406471 Eh     change       -0.2128808E-03 Eh
 * total energy  :   -34.2406652 Eh     change       -0.1811116E-04 Eh
 * total energy  :   -34.2406706 Eh     change       -0.5352823E-05 Eh
 * total energy  :   -34.2406718 Eh     change       -0.1276099E-05 Eh
   *** GEOMETRY OPTIMIZATION CONVERGED AFTER 6 ITERATIONS ***

 final structure:
================
18
 xtb: 6.7.1 (edcfbbe)
S            0.94039166824695        0.01621285465664        0.11196624891929
O            0.58531126593362       -0.70628182093113       -1.10832871385244
O            0.62079827962868       -0.70367619366521        1.34352826841911
O            0.52995301420871        1.41836237894214        0.11638874596728
C            2.75191637213096        0.04547918465321        0.08545285721879
C            3.44615456712695        1.23426862398323        0.07506696669966
C            4.83272187745116        1.22505909258378        0.05419761911048
C            5.52757514635514        0.02298836797300        0.04369296079890
C            7.03139169504707       -0.00478027429439        0.01899602505705
C            4.81053492941292       -1.17048530307167        0.05455642359515
C            3.42724084532298       -1.15679491928125        0.07537249112230
H            2.87882226539397        2.15250790583286        0.08363824244637
H            5.38334703717576        2.15822315893698        0.04598527366359
H            7.41839874976503       -0.54912909212543        0.88077422095555
H            7.38944455949244       -0.50715762889108       -0.88021697416237
H            7.43895554604344        1.00396412153913        0.03581047222593
H            5.34994529196249       -2.10997770470038        0.04651718881447
H            2.84740688930173       -2.06658275214044        0.08416168300087

          :  Hamiltonian                  GFN2-xTB          :
         :: total energy             -34.240671846973 Eh    ::
         :: gradient norm              0.000412337305 Eh/a0 ::
         :: HOMO-LUMO gap              3.080678191375 eV    ::
         :: SCC energy               -34.650995088267 Eh    ::
         :: -> dispersion             -0.018665318801 Eh    ::
         :: repulsion energy           0.410323241294 Eh    ::

    * Orbital Energies and Occupations

         #    Occupation            Energy/Eh            Energy/eV
      -------------------------------------------------------------
         1        2.0000           -0.5618866             -15.2897
       ...           ...                  ...                  ...
        18        2.0000           -0.3507456              -9.5443
        19        2.0000           -0.3225064              -8.7758
        20        2.0000           -0.3209254              -8.7328
        21        2.0000           -0.3126188              -8.5068
        22        2.0000           -0.3022301              -8.2241
        23        2.0000           -0.2876562              -7.8275
        24        2.0000           -0.2801497              -7.6233
        25        2.0000           -0.2532202              -6.8905
        26        2.0000           -0.2514956              -6.8435
        27        2.0000           -0.2337357              -6.3603
        28        2.0000           -0.2334592              -6.3527
        29        2.0000           -0.2211519              -6.0178
        30        2.0000           -0.2190662              -5.9611 (HOMO)
        31                         -0.1058533              -2.8804 (LUMO)
        32                         -0.1045532              -2.8450
        33                          0.0205515               0.5592
        34                          0.0978569               2.6628
        35                          0.1403149               3.8182
        36                          0.1809208               4.9231
        37                          0.2051686               5.5829
        38                          0.2186565               5.9499
        39                          0.2357091               6.4140
        40                          0.2562785               6.9737
        41                          0.2780180               7.5653
       ...                                ...                  ...
        56                          1.3489251              36.7061
      -------------------------------------------------------------
                  HL-Gap            0.1132128 Eh            3.0807 eV

     #   Z          covCN         q      C6AA      α(0)
     1  16 S        3.614     1.110   103.556    17.127
     2   8 O        0.860    -0.664    27.747     7.062
     3   8 O        0.860    -0.664    27.747     7.062
     4   8 O        0.860    -0.661    27.665     7.052
     5   6 C        2.968    -0.080    30.002     8.984
     6   6 C        2.947    -0.031    28.775     8.798
     7   6 C        2.925    -0.045    29.112     8.848
     8   6 C        2.967     0.002    27.973     8.675
     9   6 C        3.757    -0.101    22.479     6.760
    10   6 C        2.926    -0.045    29.117     8.849
    11   6 C        2.959    -0.025    28.619     8.775
    12   1 H        0.926     0.048     2.341     2.393
    13   1 H        0.925     0.011     2.866     2.647
    14   1 H        0.924     0.031     2.579     2.511
    15   1 H        0.924     0.031     2.578     2.511
    16   1 H        0.925     0.028     2.618     2.530
    17   1 H        0.925     0.013     2.844     2.637
    18   1 H        0.926     0.042     2.419     2.432

Wiberg/Mayer (AO) data.
largest (>0.10) Wiberg bond orders for each atom

     #   Z sym  total        # sym  WBO       # sym  WBO       # sym  WBO
 ---------------------------------------------------------------------------
     1  16 S    5.205 --     4 O    1.487     3 O    1.479     2 O    1.479
                             5 C    0.733
     2   8 O    1.796 --     1 S    1.479     3 O    0.106     4 O    0.106
     3   8 O    1.796 --     1 S    1.479     2 O    0.106     4 O    0.106
     4   8 O    1.794 --     1 S    1.487     3 O    0.106     2 O    0.106
     5   6 C    3.967 --     6 C    1.435    11 C    1.420     1 S    0.733
                             8 C    0.106
     6   6 C    3.991 --     5 C    1.435     7 C    1.432    12 H    0.965
                            10 C    0.110
     7   6 C    3.990 --     6 C    1.432     8 C    1.422    13 H    0.969
                            11 C    0.109
     8   6 C    3.988 --     7 C    1.422    10 C    1.403     9 C    1.018
                             5 C    0.106
     9   6 C    3.997 --     8 C    1.018    16 H    0.987    14 H    0.978
                            15 H    0.977
    10   6 C    3.991 --    11 C    1.453     8 C    1.403    17 H    0.970
                             6 C    0.110
    11   6 C    3.991 --    10 C    1.453     5 C    1.420    18 H    0.967
                             7 C    0.109
    12   1 H    0.997 --     6 C    0.965
    13   1 H    0.999 --     7 C    0.969
    14   1 H    0.999 --     9 C    0.978
    15   1 H    0.999 --     9 C    0.977
    16   1 H    0.999 --     9 C    0.987
    17   1 H    0.999 --    10 C    0.970
    18   1 H    0.998 --    11 C    0.967
 ---------------------------------------------------------------------------

molecular dipole:
                 x           y           z       tot (Debye)
 q only:       -1.134       0.022      -0.221
   full:       -0.936      -0.004      -0.225       2.446

           -------------------------------------------------
          | TOTAL ENERGY              -34.240671846973 Eh   |
          | GRADIENT NORM               0.000412337305 Eh/α |
          | HOMO-LUMO GAP               3.080678191375 eV   |
           -------------------------------------------------

 * finished run on 2024/12/20 at 01:52:20.934
