   * xtb version 6.7.1 (edcfbbe) compiled by 'conda@3ef47c1a292c' on 2024-11-25

   ID    Z sym.   atoms
    1   17 Cl     1, 13
    2    6 C      2, 3, 5, 6, 9-12
    3    8 O      4, 7, 8
    4    1 H      14-18

          program call               : xtb A014.xyz --opt --namespace A014 --charge -1
          :  Hamiltonian                  GFN2-xTB          :
 * total energy  :   -41.2158502 Eh     change       -0.1244025E-08 Eh
 * total energy  :   -41.2203191 Eh     change       -0.4468932E-02 Eh
 * total energy  :   -41.2214431 Eh     change       -0.1124004E-02 Eh
 * total energy  :   -41.2216356 Eh     change       -0.1924561E-03 Eh
 * total energy  :   -41.2220193 Eh     change       -0.3837083E-03 Eh
 * total energy  :   -41.2221898 Eh     change       -0.1705379E-03 Eh
 * total energy  :   -41.2223982 Eh     change       -0.2083600E-03 Eh
 * total energy  :   -41.2226342 Eh     change       -0.2359936E-03 Eh
 * total energy  :   -41.2228121 Eh     change       -0.1778594E-03 Eh
 * total energy  :   -41.2229605 Eh     change       -0.1484552E-03 Eh
 * total energy  :   -41.2363346 Eh     change        0.9725806E-05 Eh
 * total energy  :   -41.2363740 Eh     change       -0.3933297E-04 Eh
 * total energy  :   -41.2363860 Eh     change       -0.1202923E-04 Eh
 * total energy  :   -41.2364141 Eh     change       -0.2811884E-04 Eh
 * total energy  :   -41.2364312 Eh     change       -0.1705491E-04 Eh
 * total energy  :   -41.2364488 Eh     change       -0.1763262E-04 Eh
 * total energy  :   -41.2364650 Eh     change       -0.1624806E-04 Eh
 * total energy  :   -41.2364682 Eh     change       -0.3185993E-05 Eh
 * total energy  :   -41.2364732 Eh     change       -0.4961750E-05 Eh
   *** GEOMETRY OPTIMIZATION CONVERGED AFTER 76 ITERATIONS ***

 final structure:
================
18
 xtb: 6.7.1 (edcfbbe)
Cl          -1.90207123265512        1.75894339107728       -1.61741587942703
C           -0.92313458069159        0.60313185682013       -0.79359481120342
C           -1.53875877510707       -0.55328400938004       -0.28008488280969
O           -2.83439072423712       -0.71510322987477       -0.53893071073661
C           -3.54265927766434       -1.72742147732348        0.15013142647515
C           -3.46270115577060       -1.56266031259321        1.76027782492863
O           -2.79993016173833       -0.60298569090971        2.14484812836882
O           -4.07456826639503       -2.44072860582390        2.36409372376465
C           -0.70651201692295       -1.47628757072443        0.36691977029928
C            0.64599486129071       -1.24894224801134        0.50710506113457
C            1.20845551527820       -0.09553884760244       -0.01312740905723
C            0.42882043730057        0.84249458450059       -0.66744739068197
Cl           2.91199074615884        0.18558182112182        0.14760955210061
H           -4.58194192163792       -1.62481214059262       -0.16538653274264
H           -3.18306262089154       -2.72640958958639       -0.12459660402184
H           -1.13878953458068       -2.36227940036791        0.79998865966780
H            1.26446411563058       -1.96694950344221        1.02360160929153
H            0.86097459263235        1.74494097271408       -1.07018153534928

          :  Hamiltonian                  GFN2-xTB          :
         :: total energy             -41.236473190157 Eh    ::
         :: gradient norm              0.000668903686 Eh/a0 ::
         :: HOMO-LUMO gap              1.919375741616 eV    ::
         :: SCC energy               -41.629941694766 Eh    ::
         :: -> dispersion             -0.020685880164 Eh    ::
         :: repulsion energy           0.393468504609 Eh    ::

    * Orbital Energies and Occupations

         #    Occupation            Energy/Eh            Energy/eV
      -------------------------------------------------------------
         1        2.0000           -0.9662380             -26.2927
       ...           ...                  ...                  ...
        23        2.0000           -0.3617246              -9.8430
        24        2.0000           -0.3477250              -9.4621
        25        2.0000           -0.3440913              -9.3632
        26        2.0000           -0.3316865              -9.0256
        27        2.0000           -0.3292638              -8.9597
        28        2.0000           -0.3265638              -8.8863
        29        2.0000           -0.3183205              -8.6619
        30        2.0000           -0.3138546              -8.5404
        31        2.0000           -0.3036402              -8.2625
        32        2.0000           -0.2762028              -7.5159
        33        2.0000           -0.2406043              -6.5472
        34        2.0000           -0.2278046              -6.1989
        35        2.0000           -0.2054893              -5.5916 (HOMO)
        36                         -0.1349535              -3.6723 (LUMO)
        37                         -0.1221859              -3.3248
        38                         -0.0590437              -1.6067
        39                         -0.0293826              -0.7995
        40                         -0.0088197              -0.2400
        41                         -0.0057761              -0.1572
        42                          0.1086884               2.9576
        43                          0.1129377               3.0732
        44                          0.1130631               3.0766
        45                          0.1210221               3.2932
        46                          0.1247858               3.3956
       ...                                ...                  ...
        67                          0.8879940              24.1635
      -------------------------------------------------------------
                  HL-Gap            0.0705358 Eh            1.9194 eV

     #   Z          covCN         q      C6AA      α(0)
     1  17 Cl       0.975    -0.179   104.779    15.660
     2   6 C        2.895     0.066    26.521     8.443
     3   6 C        2.901     0.165    24.452     8.108
     4   8 O        1.706    -0.238    17.942     5.719
     5   6 C        3.685     0.031    20.251     6.443
     6   6 C        2.670     0.370    20.737     7.451
     7   8 O        0.856    -0.552    24.976     6.700
     8   8 O        0.856    -0.567    25.326     6.747
     9   6 C        2.924    -0.053    29.312     8.879
    10   6 C        2.948    -0.046    29.135     8.853
    11   6 C        2.893     0.075    26.328     8.413
    12   6 C        2.994    -0.057    29.399     8.894
    13  17 Cl       0.964    -0.217   106.008    15.752
    14   1 H        0.924     0.028     2.613     2.528
    15   1 H        0.924     0.004     2.996     2.707
    16   1 H        0.926     0.065     2.146     2.291
    17   1 H        0.926     0.048     2.344     2.394
    18   1 H        0.926     0.059     2.214     2.327

Wiberg/Mayer (AO) data.
largest (>0.10) Wiberg bond orders for each atom

     #   Z sym  total        # sym  WBO       # sym  WBO       # sym  WBO
 ---------------------------------------------------------------------------
     1  17 Cl   1.094 --     2 C    0.964
     2   6 C    3.907 --    12 C    1.434     3 C    1.285     1 Cl   0.964
     3   6 C    3.952 --     9 C    1.315     2 C    1.285     4 O    1.148
     4   8 O    2.309 --     3 C    1.148     5 C    0.947
     5   6 C    3.870 --    14 H    0.972    15 H    0.967     4 O    0.947
                             6 C    0.807
     6   6 C    3.948 --     7 O    1.560     8 O    1.552     5 C    0.807
     7   8 O    1.918 --     6 C    1.560     8 O    0.237
     8   8 O    1.877 --     6 C    1.552     7 O    0.237
     9   6 C    3.986 --    10 C    1.466     3 C    1.315    16 H    0.961
    10   6 C    3.989 --     9 C    1.466    11 C    1.386    17 H    0.968
    11   6 C    3.895 --    12 C    1.388    10 C    1.386    13 Cl   0.940
    12   6 C    3.985 --     2 C    1.434    11 C    1.388    18 H    0.966
    13  17 Cl   1.051 --    11 C    0.940
    14   1 H    0.999 --     5 C    0.972
    15   1 H    1.000 --     5 C    0.967
    16   1 H    0.996 --     9 C    0.961
    17   1 H    0.997 --    10 C    0.968
    18   1 H    0.996 --    12 C    0.966
 ---------------------------------------------------------------------------

molecular dipole:
                 x           y           z       tot (Debye)
 q only:        4.741       1.380      -2.940
   full:        4.550       1.138      -2.964      14.103

           -------------------------------------------------
          | TOTAL ENERGY              -41.236473190157 Eh   |
          | GRADIENT NORM               0.000668903686 Eh/α |
          | HOMO-LUMO GAP               1.919375741616 eV   |
           -------------------------------------------------

 * finished run on 2024/12/20 at 01:52:22.010
