   * xtb version 6.7.1 (edcfbbe) compiled by 'conda@3ef47c1a292c' on 2024-11-25

   ID    Z sym.   atoms
    1    6 C      1-19, 22
    2    8 O      20, 21
    3    1 H      23-51

          program call               : xtb A015.xyz --opt --namespace A015 --charge -1
          :  Hamiltonian                  GFN2-xTB          :
 * total energy  :   -65.8857918 Eh     change       -0.1894051E-08 Eh
 * total energy  :   -65.9136432 Eh     change       -0.2785134E-01 Eh
 * total energy  :   -65.9228318 Eh     change       -0.9188584E-02 Eh
 * total energy  :   -65.9248601 Eh     change       -0.2028299E-02 Eh
 * total energy  :   -65.9277232 Eh     change       -0.2863108E-02 Eh
 * total energy  :   -65.9285066 Eh     change       -0.7833759E-03 Eh
 * total energy  :   -65.9290079 Eh     change       -0.5012983E-03 Eh
 * total energy  :   -65.9292855 Eh     change       -0.2776367E-03 Eh
 * total energy  :   -65.9296461 Eh     change       -0.3606406E-03 Eh
 * total energy  :   -65.9300291 Eh     change       -0.3829320E-03 Eh
 * total energy  :   -65.9349814 Eh     change       -0.1575633E-04 Eh
 * total energy  :   -65.9350094 Eh     change       -0.2802681E-04 Eh
 * total energy  :   -65.9350540 Eh     change       -0.4462512E-04 Eh
 * total energy  :   -65.9350922 Eh     change       -0.3810551E-04 Eh
 * total energy  :   -65.9351291 Eh     change       -0.3696131E-04 Eh
 * total energy  :   -65.9351522 Eh     change       -0.2310142E-04 Eh
 * total energy  :   -65.9351623 Eh     change       -0.1012315E-04 Eh
 * total energy  :   -65.9351675 Eh     change       -0.5200943E-05 Eh
 * total energy  :   -65.9351721 Eh     change       -0.4596350E-05 Eh
   *** GEOMETRY OPTIMIZATION CONVERGED AFTER 81 ITERATIONS ***

 final structure:
================
51
 xtb: 6.7.1 (edcfbbe)
C           -1.41092948215668        1.68632206081336       -0.49408100846820
C           -0.65479287487705        1.09884541136080       -1.68984543508020
C            0.83738841846661        1.29079568388557       -1.54216887205050
C            1.54002882363821        0.73247183436423       -0.53701533938465
C            2.92952656571676        0.94146858473789       -0.34626034993562
C            3.74567044437987        0.20155077542895        0.48665327403912
C            3.73256715272122       -1.22462963093244        0.15730014524212
C            4.38871985151331       -1.16546912328229       -1.29426633421893
C            4.30749539965919        0.15845932736141       -2.17376921477276
C            3.73170281801228        1.49645062873061       -1.45926676681817
C            2.94410439608382        2.51412987279836       -2.28927785436801
C            1.49900522910471        2.11715280322760       -2.60837471155860
C            5.74477269394521        0.53358158466485       -2.57286987043539
C            3.51556802943729       -0.14184396682983       -3.44933727320256
C            4.09187046936396       -1.29292547591330       -4.28224135364251
C            4.57990008183075       -2.45770122648659       -3.41563584352812
C            3.95172523179054       -2.44913107178514       -2.02407957955766
C            2.44563183566912       -2.70444892003294       -2.08950292812650
C            4.68713183331796       -3.65992218664934       -1.21623027567098
O            5.91194590753543       -3.52457649012397       -1.11981502857633
O            3.96201465785970       -4.56478833921088       -0.79942413674037
C           -1.00838978244795       -0.38009708131852       -1.86933398473090
H           -1.13503297936742        1.16817551374469        0.42062805448288
H           -2.48676871038245        1.58932710203920       -0.63548572713316
H           -1.16984663431241        2.74101390307193       -0.37487989369827
H           -0.98195252306505        1.63399424050711       -2.59061066559693
H            1.02522827361573        0.15927323304421        0.22394242587467
H            4.74082572665598        0.60941209228556        0.66308450580104
H            2.72958280726900       -1.63424300949473        0.09742153893202
H            4.34533302344832       -1.86810251139787        0.78588094703159
H            5.45861479245362       -1.31456412916162       -1.10715088897674
H            4.61525579662935        2.01330822972922       -1.07042721326159
H            3.47469171360831        2.76365107055492       -3.21176774735525
H            2.91444022178547        3.42551461215686       -1.68236308173324
H            1.45006373352927        1.57045109375275       -3.55556056669223
H            0.91345638484424        3.03383759402220       -2.75723396885562
H            6.23363988598467       -0.28515534426290       -3.09038996582277
H            5.74171011727983        1.40554287994547       -3.22900438097209
H            6.33899376711931        0.76911685234858       -1.69096064446530
H            3.49242169074414        0.74548868703911       -4.08686893774555
H            2.49435853858316       -0.38648864691380       -3.16875572000353
H            4.91111994500114       -0.92409260559731       -4.90610871750133
H            3.30800982619752       -1.63475375632442       -4.96484902072897
H            4.35515084266845       -3.41082542460591       -3.90155732570333
H            5.66348986075467       -2.41863010803139       -3.28443966831499
H            2.14009351818768       -2.97640072227236       -3.09904918785446
H            2.22611566679661       -3.55447420697940       -1.43835788773257
H            1.84886679673925       -1.85176245908685       -1.77183776986337
H           -2.07921660549565       -0.50192158308234       -2.02943911246187
H           -0.48143057785012       -0.79342558601351       -2.72629571308090
H           -0.72373259998904       -0.95159206590289       -0.99004092499255

          :  Hamiltonian                  GFN2-xTB          :
         :: total energy             -65.935172135255 Eh    ::
         :: gradient norm              0.000393504169 Eh/a0 ::
         :: HOMO-LUMO gap              0.707758733970 eV    ::
         :: SCC energy               -66.837393881538 Eh    ::
         :: -> dispersion             -0.061710464230 Eh    ::
         :: repulsion energy           0.902221746283 Eh    ::

    * Orbital Energies and Occupations

         #    Occupation            Energy/Eh            Energy/eV
      -------------------------------------------------------------
         1        2.0000           -0.5425264             -14.7629
       ...           ...                  ...                  ...
        49        2.0000           -0.3123998              -8.5008
        50        2.0000           -0.3099113              -8.4331
        51        2.0000           -0.3038030              -8.2669
        52        2.0000           -0.3015812              -8.2064
        53        2.0000           -0.2997792              -8.1574
        54        2.0000           -0.2937203              -7.9925
        55        2.0000           -0.2821911              -7.6788
        56        2.0000           -0.2779533              -7.5635
        57        2.0000           -0.2732327              -7.4350
        58        2.0000           -0.2164165              -5.8890
        59        2.0000           -0.2135656              -5.8114
        60        2.0000           -0.1975608              -5.3759
        61        2.0000           -0.1785058              -4.8574 (HOMO)
        62        0.0000           -0.1524961              -4.1496 (LUMO)
        63                         -0.0515448              -1.4026
        64                          0.0138064               0.3757
        65                          0.0948770               2.5817
        66                          0.1232777               3.3546
        67                          0.1511005               4.1117
        68                          0.1723954               4.6911
        69                          0.1730573               4.7091
        70                          0.1883467               5.1252
        71                          0.1973992               5.3715
        72                          0.2021608               5.5011
       ...                                ...                  ...
       117                          0.8743501              23.7923
      -------------------------------------------------------------
                  HL-Gap            0.0260097 Eh            0.7078 eV

     #   Z          covCN         q      C6AA      α(0)
     1   6 C        3.755    -0.098    22.421     6.752
     2   6 C        3.854    -0.012    20.754     6.479
     3   6 C        2.952    -0.024    28.597     8.771
     4   6 C        2.903    -0.043    29.061     8.839
     5   6 C        2.992    -0.021    28.520     8.760
     6   6 C        2.961    -0.064    29.589     8.922
     7   6 C        3.823    -0.039    21.247     6.559
     8   6 C        3.879    -0.023    20.942     6.506
     9   6 C        3.888     0.010    20.364     6.416
    10   6 C        3.881    -0.019    20.867     6.495
    11   6 C        3.803    -0.048    21.425     6.590
    12   6 C        3.806    -0.051    21.482     6.598
    13   6 C        3.760    -0.095    22.364     6.742
    14   6 C        3.807    -0.052    21.509     6.602
    15   6 C        3.800    -0.047    21.417     6.589
    16   6 C        3.810    -0.047    21.401     6.585
    17   6 C        3.886    -0.034    21.134     6.536
    18   6 C        3.752    -0.096    22.394     6.748
    19   6 C        2.675     0.364    20.820     7.466
    20   8 O        0.856    -0.590    25.875     6.820
    21   8 O        0.856    -0.576    25.527     6.774
    22   6 C        3.755    -0.097    22.412     6.750
    23   1 H        0.925     0.035     2.517     2.481
    24   1 H        0.925     0.021     2.721     2.580
    25   1 H        0.925     0.023     2.683     2.561
    26   1 H        0.924     0.014     2.833     2.632
    27   1 H        0.925     0.015     2.808     2.620
    28   1 H        0.925     0.002     3.021     2.718
    29   1 H        0.925     0.050     2.318     2.381
    30   1 H        0.925     0.039     2.465     2.455
    31   1 H        0.924     0.056     2.242     2.342
    32   1 H        0.924     0.024     2.669     2.555
    33   1 H        0.924     0.015     2.811     2.622
    34   1 H        0.924     0.017     2.775     2.605
    35   1 H        0.924     0.030     2.581     2.512
    36   1 H        0.924     0.014     2.826     2.629
    37   1 H        0.925     0.043     2.406     2.426
    38   1 H        0.924     0.013     2.842     2.636
    39   1 H        0.925     0.020     2.735     2.586
    40   1 H        0.924     0.010     2.897     2.662
    41   1 H        0.925     0.041     2.432     2.439
    42   1 H        0.924     0.005     2.966     2.693
    43   1 H        0.924     0.007     2.948     2.685
    44   1 H        0.924     0.014     2.828     2.630
    45   1 H        0.924     0.033     2.544     2.494
    46   1 H        0.925     0.006     2.963     2.692
    47   1 H        0.924     0.053     2.283     2.363
    48   1 H        0.925     0.009     2.914     2.669
    49   1 H        0.925     0.019     2.746     2.592
    50   1 H        0.925     0.033     2.538     2.491
    51   1 H        0.925     0.039     2.458     2.452

Wiberg/Mayer (AO) data.
largest (>0.10) Wiberg bond orders for each atom

     #   Z sym  total        # sym  WBO       # sym  WBO       # sym  WBO
 ---------------------------------------------------------------------------
     1   6 C    3.991 --     2 C    0.996    25 H    0.988    24 H    0.987
                            23 H    0.986
     2   6 C    3.994 --    22 C    0.997     3 C    0.996     1 C    0.996
                            26 H    0.970
     3   6 C    3.976 --     4 C    1.686    12 C    1.015     2 C    0.996
                             6 C    0.179
     4   6 C    3.990 --     3 C    1.686     5 C    1.218    27 H    0.960
     5   6 C    3.965 --     6 C    1.580     4 C    1.218    10 C    1.018
     6   6 C    3.931 --     5 C    1.580     7 C    1.067    28 H    0.964
                             3 C    0.179
     7   6 C    3.991 --     6 C    1.067    30 H    0.976    29 H    0.963
                             8 C    0.900
     8   6 C    3.974 --     9 C    0.972    17 C    0.969    31 H    0.960
                             7 C    0.900
     9   6 C    3.978 --    13 C    0.998    14 C    0.996     8 C    0.972
                            10 C    0.903
    10   6 C    3.989 --     5 C    1.018    11 C    0.995    32 H    0.958
                             9 C    0.903
    11   6 C    3.997 --    12 C    1.003    10 C    0.995    34 H    0.978
                            33 H    0.973
    12   6 C    3.998 --     3 C    1.015    11 C    1.003    36 H    0.965
                            35 H    0.957
    13   6 C    3.996 --     9 C    0.998    38 H    0.985    39 H    0.984
                            37 H    0.978
    14   6 C    3.998 --    15 C    1.000     9 C    0.996    40 H    0.972
                            41 H    0.969
    15   6 C    3.998 --    14 C    1.000    16 C    0.998    43 H    0.981
                            42 H    0.980
    16   6 C    3.992 --    15 C    0.998    17 C    0.984    44 H    0.976
                            45 H    0.972
    17   6 C    3.952 --    18 C    1.005    16 C    0.984     8 C    0.969
                            19 C    0.811
    18   6 C    3.995 --    17 C    1.005    46 H    0.986    48 H    0.976
                            47 H    0.970
    19   6 C    3.942 --    21 O    1.552    20 O    1.536    17 C    0.811
    20   8 O    1.862 --    19 C    1.536    21 O    0.228
    21   8 O    1.887 --    19 C    1.552    20 O    0.228
    22   6 C    3.990 --     2 C    0.997    50 H    0.987    49 H    0.987
                            51 H    0.985
    23   1 H    0.999 --     1 C    0.986
    24   1 H    0.999 --     1 C    0.987
    25   1 H    0.999 --     1 C    0.988
    26   1 H    1.000 --     2 C    0.970
    27   1 H    1.000 --     4 C    0.960
    28   1 H    0.999 --     6 C    0.964
    29   1 H    0.997 --     7 C    0.963
    30   1 H    0.998 --     7 C    0.976
    31   1 H    0.996 --     8 C    0.960
    32   1 H    0.999 --    10 C    0.958
    33   1 H    0.999 --    11 C    0.973
    34   1 H    0.999 --    11 C    0.978
    35   1 H    0.999 --    12 C    0.957
    36   1 H    0.998 --    12 C    0.965
    37   1 H    0.998 --    13 C    0.978
    38   1 H    0.999 --    13 C    0.985
    39   1 H    1.000 --    13 C    0.984
    40   1 H    1.000 --    14 C    0.972
    41   1 H    0.998 --    14 C    0.969
    42   1 H    1.000 --    15 C    0.980
    43   1 H    0.999 --    15 C    0.981
    44   1 H    0.997 --    16 C    0.976
    45   1 H    0.999 --    16 C    0.972
    46   1 H    1.000 --    18 C    0.986
    47   1 H    0.997 --    18 C    0.970
    48   1 H    1.000 --    18 C    0.976
    49   1 H    0.999 --    22 C    0.987
    50   1 H    0.999 --    22 C    0.987
    51   1 H    0.998 --    22 C    0.985
 ---------------------------------------------------------------------------

molecular dipole:
                 x           y           z       tot (Debye)
 q only:       -8.432       6.017       2.078
   full:       -8.506       6.331       1.675      27.286

           -------------------------------------------------
          | TOTAL ENERGY              -65.935172135255 Eh   |
          | GRADIENT NORM               0.000393504169 Eh/α |
          | HOMO-LUMO GAP               0.707758733970 eV   |
           -------------------------------------------------

 * finished run on 2024/12/20 at 01:52:25.765
