   * xtb version 6.7.1 (edcfbbe) compiled by 'conda@3ef47c1a292c' on 2024-11-25

   ID    Z sym.   atoms
    1    7 N      1
    2    8 O      2-4

          program call               : xtb A016.xyz --opt --namespace A016 --charge -1
          :  Hamiltonian                  GFN2-xTB          :
 * total energy  :   -15.2591176 Eh     change       -0.4494183E-12 Eh
 * total energy  :   -15.2593013 Eh     change       -0.1837338E-03 Eh
 * total energy  :   -15.2593154 Eh     change       -0.1412385E-04 Eh
 * total energy  :   -15.2593154 Eh     change       -0.6613112E-08 Eh
   *** GEOMETRY OPTIMIZATION CONVERGED AFTER 4 ITERATIONS ***

 final structure:
================
4
 xtb: 6.7.1 (edcfbbe)
N            0.97534772383559       -0.03584996653303        0.11568993116865
O            0.35779330891773        0.43185081044825       -0.84627677689830
O            0.35779100266019       -0.50355312417746        1.07765436595662
O            2.21045796458648       -0.03584771973777        0.11569247977303

          :  Hamiltonian                  GFN2-xTB          :
         :: total energy             -15.259315417518 Eh    ::
         :: gradient norm              0.000058626795 Eh/a0 ::
         :: HOMO-LUMO gap              4.391255881085 eV    ::
         :: SCC energy               -15.302423784127 Eh    ::
         :: -> dispersion             -0.001613857211 Eh    ::
         :: repulsion energy           0.043108366609 Eh    ::

    * Orbital Energies and Occupations

         #    Occupation            Energy/Eh            Energy/eV
      -------------------------------------------------------------
         1        2.0000           -0.5403428             -14.7035
         2        2.0000           -0.5166168             -14.0579
         3        2.0000           -0.5166168             -14.0579
         4        2.0000           -0.4231155             -11.5136
         5        2.0000           -0.4117195             -11.2035
         6        2.0000           -0.3733155             -10.1584
         7        2.0000           -0.3733155             -10.1584
         8        2.0000           -0.2376139              -6.4658
         9        2.0000           -0.2376138              -6.4658
        10        2.0000           -0.2283282              -6.2131
        11        2.0000           -0.2283282              -6.2131
        12        2.0000           -0.2074856              -5.6460 (HOMO)
        13                         -0.0461099              -1.2547 (LUMO)
        14                          0.2906320               7.9085
        15                          0.5738369              15.6149
        16                          0.5738377              15.6149
      -------------------------------------------------------------
                  HL-Gap            0.1613757 Eh            4.3913 eV

     #   Z          covCN         q      C6AA      α(0)
     1   7 N        2.768     0.695    12.030     5.151
     2   8 O        0.926    -0.565    25.230     6.736
     3   8 O        0.926    -0.565    25.230     6.736
     4   8 O        0.926    -0.565    25.230     6.736

Wiberg/Mayer (AO) data.
largest (>0.10) Wiberg bond orders for each atom

     #   Z sym  total        # sym  WBO       # sym  WBO       # sym  WBO
 ---------------------------------------------------------------------------
     1   7 N    3.953 --     4 O    1.318     2 O    1.318     3 O    1.318
     2   8 O    1.740 --     1 N    1.318     4 O    0.211     3 O    0.211
     3   8 O    1.740 --     1 N    1.318     4 O    0.211     2 O    0.211
     4   8 O    1.740 --     1 N    1.318     2 O    0.211     3 O    0.211
 ---------------------------------------------------------------------------

molecular dipole:
                 x           y           z       tot (Debye)
 q only:       -1.843       0.068      -0.219
   full:       -1.843       0.068      -0.219       4.721

           -------------------------------------------------
          | TOTAL ENERGY              -15.259315417518 Eh   |
          | GRADIENT NORM               0.000058626795 Eh/α |
          | HOMO-LUMO GAP               4.391255881085 eV   |
           -------------------------------------------------

 * finished run on 2024/12/20 at 01:52:25.794
