   * xtb version 6.7.1 (edcfbbe) compiled by 'conda@3ef47c1a292c' on 2024-11-25

   ID    Z sym.   atoms
    1    6 C      1, 2, 5-7
    2    7 N      3, 4
    3    9 F      8-10
    4    1 H      11-14

          program call               : xtb A017.xyz --opt --namespace A017 --charge -1
          :  Hamiltonian                  GFN2-xTB          :
 * total energy  :   -33.0130533 Eh     change       -0.1412559E-10 Eh
 * total energy  :   -33.0157563 Eh     change       -0.2703034E-02 Eh
 * total energy  :   -33.0161919 Eh     change       -0.4355488E-03 Eh
 * total energy  :   -33.0162244 Eh     change       -0.3250877E-04 Eh
 * total energy  :   -33.0162429 Eh     change       -0.1856741E-04 Eh
 * total energy  :   -33.0162465 Eh     change       -0.3558979E-05 Eh
   *** GEOMETRY OPTIMIZATION CONVERGED AFTER 6 ITERATIONS ***

 final structure:
================
14
 xtb: 6.7.1 (edcfbbe)
C            1.05417442289399       -0.08384225491169       -0.06015967463041
C            0.41093982929787        1.26392292389574        0.00888134808507
N            1.12358173589781        2.39482982281038       -0.10022541141207
N            0.31024487114230        3.43346328700174       -0.01226860892065
C           -0.94092279864583        2.96778503928100        0.15681873003498
C           -0.93669990972917        1.56777610629445        0.17754733969407
C           -2.10264645846565        3.84687493699004        0.29343620263227
F           -3.05483903456305        3.67217221876185       -0.68157904608408
F           -2.81691015080357        3.65159163684447        1.44983690941886
F           -1.83874046620536        5.16680689823246        0.27585409620214
H            0.81319745607974       -0.58401392448981       -1.00204150529165
H            0.70996686506154       -0.72041894156351        0.75762166596206
H            2.13481822723089        0.02692794456006        0.00569798811777
H           -1.77644458919148        0.90630430629283        0.29833996619164

          :  Hamiltonian                  GFN2-xTB          :
         :: total energy             -33.016246498899 Eh    ::
         :: gradient norm              0.000901387704 Eh/a0 ::
         :: HOMO-LUMO gap              4.308849443144 eV    ::
         :: SCC energy               -33.278106574566 Eh    ::
         :: -> dispersion             -0.011303727006 Eh    ::
         :: repulsion energy           0.261860075667 Eh    ::

    * Orbital Energies and Occupations

         #    Occupation            Energy/Eh            Energy/eV
      -------------------------------------------------------------
         1        2.0000           -0.7152543             -19.4631
       ...           ...                  ...                  ...
        16        2.0000           -0.3722449             -10.1293
        17        2.0000           -0.3718418             -10.1183
        18        2.0000           -0.3616172              -9.8401
        19        2.0000           -0.3512638              -9.5584
        20        2.0000           -0.3372696              -9.1776
        21        2.0000           -0.3337344              -9.0814
        22        2.0000           -0.3137722              -8.5382
        23        2.0000           -0.2957339              -8.0473
        24        2.0000           -0.2848696              -7.7517
        25        2.0000           -0.2097113              -5.7065
        26        2.0000           -0.2078550              -5.6560
        27        2.0000           -0.2014926              -5.4829
        28        2.0000           -0.1753507              -4.7715 (HOMO)
        29                         -0.0170034              -0.4627 (LUMO)
        30                          0.0150943               0.4107
        31                          0.1690823               4.6010
        32                          0.2081621               5.6644
        33                          0.2146160               5.8400
        34                          0.2666984               7.2572
        35                          0.3106661               8.4537
        36                          0.3131259               8.5206
        37                          0.3243382               8.8257
        38                          0.3503634               9.5339
        39                          0.3551914               9.6652
       ...                                ...                  ...
        44                          0.8134437              22.1349
      -------------------------------------------------------------
                  HL-Gap            0.1583473 Eh            4.3088 eV

     #   Z          covCN         q      C6AA      α(0)
     1   6 C        3.753    -0.090    22.277     6.730
     2   6 C        3.134     0.036    26.977     8.502
     3   7 N        2.057    -0.272    27.786     7.819
     4   7 N        2.036    -0.271    27.785     7.819
     5   6 C        3.152    -0.013    28.057     8.663
     6   6 C        2.984    -0.104    30.621     9.077
     7   6 C        3.332     0.472    17.540     6.642
     8   9 F        0.790    -0.257    11.836     4.064
     9   9 F        0.790    -0.256    11.830     4.063
    10   9 F        0.790    -0.225    11.502     4.006
    11   1 H        0.924     0.003     3.008     2.712
    12   1 H        0.924     0.002     3.029     2.722
    13   1 H        0.925     0.021     2.713     2.576
    14   1 H        0.926    -0.045     3.981     3.120

Wiberg/Mayer (AO) data.
largest (>0.10) Wiberg bond orders for each atom

     #   Z sym  total        # sym  WBO       # sym  WBO       # sym  WBO
 ---------------------------------------------------------------------------
     1   6 C    3.994 --     2 C    1.010    13 H    0.987    12 H    0.983
                            11 H    0.979
     2   6 C    3.969 --     6 C    1.417     3 N    1.412     1 C    1.010
     3   7 N    2.982 --     2 C    1.412     4 N    1.347     5 C    0.105
     4   7 N    2.978 --     5 C    1.382     3 N    1.347     6 C    0.102
     5   6 C    3.918 --     4 N    1.382     6 C    1.358     7 C    0.973
                             3 N    0.105
     6   6 C    3.962 --     2 C    1.417     5 C    1.358    14 H    0.973
                             4 N    0.102
     7   6 C    3.772 --     5 C    0.973    10 F    0.944     9 F    0.901
                             8 F    0.900
     8   9 F    1.023 --     7 C    0.900
     9   9 F    1.024 --     7 C    0.901
    10   9 F    1.059 --     7 C    0.944
    11   1 H    1.000 --     1 C    0.979
    12   1 H    1.000 --     1 C    0.983
    13   1 H    0.999 --     1 C    0.987
    14   1 H    0.998 --     6 C    0.973
 ---------------------------------------------------------------------------

molecular dipole:
                 x           y           z       tot (Debye)
 q only:        1.320      -5.673      -0.226
   full:        0.727      -6.187      -0.147      15.838

           -------------------------------------------------
          | TOTAL ENERGY              -33.016246498899 Eh   |
          | GRADIENT NORM               0.000901387704 Eh/α |
          | HOMO-LUMO GAP               4.308849443144 eV   |
           -------------------------------------------------

 * finished run on 2024/12/20 at 01:52:26.017
