   * xtb version 6.7.1 (edcfbbe) compiled by 'conda@3ef47c1a292c' on 2024-11-25

   ID    Z sym.   atoms
    1    6 C      1-3, 5, 8-10
    2    7 N      4
    3    8 O      6, 7
    4    1 H      11-24

          program call               : xtb A018.xyz --opt --namespace A018 --charge -1
          :  Hamiltonian                  GFN2-xTB          :
 * total energy  :   -33.4279140 Eh     change       -0.3929301E-10 Eh
 * total energy  :   -33.4397339 Eh     change       -0.1181988E-01 Eh
 * total energy  :   -33.4431368 Eh     change       -0.3402942E-02 Eh
 * total energy  :   -33.4436473 Eh     change       -0.5104626E-03 Eh
 * total energy  :   -33.4438471 Eh     change       -0.1997931E-03 Eh
 * total energy  :   -33.4438576 Eh     change       -0.1054842E-04 Eh
 * total energy  :   -33.4438502 Eh     change        0.7435544E-05 Eh
 * total energy  :   -33.4438573 Eh     change       -0.7153473E-05 Eh
 * total energy  :   -33.4438560 Eh     change        0.1357359E-05 Eh
 * total energy  :   -33.4438617 Eh     change       -0.5714002E-05 Eh
 * total energy  :   -33.4438618 Eh     change       -0.9447827E-07 Eh
   *** GEOMETRY OPTIMIZATION CONVERGED AFTER 11 ITERATIONS ***

 final structure:
================
24
 xtb: 6.7.1 (edcfbbe)
C            0.90320556850589       -0.01403925730853       -0.05137001895563
C            0.60303613072934        1.31502628005029       -0.76533550855021
C            0.60313488518787       -1.18332997169488       -1.00476777119351
N            0.34394990937124       -0.14014893392114        1.26394611651623
C            1.29823723564571       -0.24718897183371        2.38174742773685
O            0.79141264055526       -0.35440757452418        3.50204814836165
O            2.49066972925152       -0.21658662658867        2.06455830810315
C           -1.05030194709227       -0.17241628465081        1.60121148198372
C           -1.82839402750645        1.11794560122558        1.29167964013209
C           -1.82846727417016       -1.38040199378092        1.05214239239179
H            1.98398438187793       -0.03452399928546        0.16280658729994
H            1.29552370022686        1.44682133899984       -1.59717160682420
H           -0.41001328865224        1.33889974968872       -1.16352680885122
H            0.73073319369945        2.14389178570119       -0.07454755352801
H            0.73094830808327       -2.12829854188737       -0.48398827851502
H           -0.40993368461289       -1.13123388690371       -1.40020080906709
H            1.29559618686384       -1.15465490189568       -1.84651223473672
H           -1.01228568559641       -0.27752621059410        2.69751483345351
H           -2.05848812489327        1.20536376722483        0.23110886311693
H           -2.76966380113899        1.11729478664463        1.84201633800289
H           -1.24834169532657        1.98344179632844        1.59984696570715
H           -1.24848301320636       -2.28872745966106        1.19025479845045
H           -2.76974889627701       -1.48425839019021        1.59256814479759
H           -2.05853043152555       -1.26468210114309       -0.00571945583229

          :  Hamiltonian                  GFN2-xTB          :
         :: total energy             -33.443861792677 Eh    ::
         :: gradient norm              0.000072267076 Eh/a0 ::
         :: HOMO-LUMO gap              6.171828713726 eV    ::
         :: SCC energy               -33.825603852834 Eh    ::
         :: -> dispersion             -0.020498037745 Eh    ::
         :: repulsion energy           0.381742060157 Eh    ::

    * Orbital Energies and Occupations

         #    Occupation            Energy/Eh            Energy/eV
      -------------------------------------------------------------
         1        2.0000           -0.4873630             -13.2618
       ...           ...                  ...                  ...
        18        2.0000           -0.3343180              -9.0973
        19        2.0000           -0.3309254              -9.0049
        20        2.0000           -0.3242205              -8.8225
        21        2.0000           -0.3234444              -8.8014
        22        2.0000           -0.3083135              -8.3896
        23        2.0000           -0.3032598              -8.2521
        24        2.0000           -0.2852555              -7.7622
        25        2.0000           -0.2776233              -7.5545
        26        2.0000           -0.2724066              -7.4126
        27        2.0000           -0.1980597              -5.3895
        28        2.0000           -0.1891337              -5.1466
        29        2.0000           -0.1811490              -4.9293
        30        2.0000           -0.1780263              -4.8443 (HOMO)
        31                          0.0487842               1.3275 (LUMO)
        32                          0.1629970               4.4354
        33                          0.2185948               5.9483
        34                          0.2359869               6.4215
        35                          0.2462134               6.6998
        36                          0.2522832               6.8650
        37                          0.2639385               7.1821
        38                          0.2642439               7.1904
        39                          0.2762727               7.5178
        40                          0.2954681               8.0401
        41                          0.3259794               8.8703
       ...                                ...                  ...
        54                          0.9024685              24.5574
      -------------------------------------------------------------
                  HL-Gap            0.2268105 Eh            6.1718 eV

     #   Z          covCN         q      C6AA      α(0)
     1   6 C        3.786     0.049    19.766     6.333
     2   6 C        3.752    -0.098    22.422     6.753
     3   6 C        3.752    -0.098    22.422     6.753
     4   7 N        2.729    -0.240    26.274     7.613
     5   6 C        2.628     0.411    20.083     7.330
     6   8 O        0.857    -0.606    26.266     6.871
     7   8 O        0.857    -0.606    26.266     6.871
     8   6 C        3.786     0.049    19.766     6.333
     9   6 C        3.752    -0.098    22.422     6.753
    10   6 C        3.752    -0.098    22.422     6.753
    11   1 H        0.923     0.069     2.100     2.266
    12   1 H        0.924     0.007     2.938     2.681
    13   1 H        0.925     0.013     2.843     2.637
    14   1 H        0.925     0.029     2.601     2.522
    15   1 H        0.925     0.029     2.601     2.522
    16   1 H        0.925     0.013     2.843     2.637
    17   1 H        0.924     0.007     2.938     2.681
    18   1 H        0.923     0.069     2.100     2.266
    19   1 H        0.925     0.013     2.843     2.637
    20   1 H        0.924     0.007     2.938     2.681
    21   1 H        0.925     0.029     2.601     2.522
    22   1 H        0.925     0.029     2.601     2.522
    23   1 H        0.924     0.007     2.938     2.681
    24   1 H        0.925     0.013     2.843     2.637

Wiberg/Mayer (AO) data.
largest (>0.10) Wiberg bond orders for each atom

     #   Z sym  total        # sym  WBO       # sym  WBO       # sym  WBO
 ---------------------------------------------------------------------------
     1   6 C    3.980 --     4 N    1.022     3 C    0.987     2 C    0.987
                            11 H    0.939
     2   6 C    3.997 --    12 H    0.988    14 H    0.988     1 C    0.987
                            13 H    0.984
     3   6 C    3.997 --    17 H    0.988    15 H    0.988     1 C    0.987
                            16 H    0.984
     4   7 N    3.275 --     8 C    1.022     1 C    1.022     5 C    0.920
     5   6 C    3.941 --     7 O    1.495     6 O    1.495     4 N    0.920
     6   8 O    1.843 --     5 C    1.495     7 O    0.191
     7   8 O    1.843 --     5 C    1.495     6 O    0.191
     8   6 C    3.980 --     4 N    1.022    10 C    0.987     9 C    0.987
                            18 H    0.939
     9   6 C    3.997 --    20 H    0.988    21 H    0.988     8 C    0.987
                            19 H    0.984
    10   6 C    3.997 --    23 H    0.988    22 H    0.988     8 C    0.987
                            24 H    0.984
    11   1 H    0.995 --     1 C    0.939
    12   1 H    0.999 --     2 C    0.988
    13   1 H    1.000 --     2 C    0.984
    14   1 H    0.999 --     2 C    0.988
    15   1 H    0.999 --     3 C    0.988
    16   1 H    1.000 --     3 C    0.984
    17   1 H    0.999 --     3 C    0.988
    18   1 H    0.995 --     8 C    0.939
    19   1 H    1.000 --     9 C    0.984
    20   1 H    0.999 --     9 C    0.988
    21   1 H    0.999 --     9 C    0.988
    22   1 H    0.999 --    10 C    0.988
    23   1 H    0.999 --    10 C    0.988
    24   1 H    1.000 --    10 C    0.984
 ---------------------------------------------------------------------------

molecular dipole:
                 x           y           z       tot (Debye)
 q only:       -2.559       0.479      -4.625
   full:       -2.819       0.508      -4.929      14.491

           -------------------------------------------------
          | TOTAL ENERGY              -33.443861792677 Eh   |
          | GRADIENT NORM               0.000072267076 Eh/α |
          | HOMO-LUMO GAP               6.171828713726 eV   |
           -------------------------------------------------

 * finished run on 2024/12/20 at 01:52:26.269
