   * xtb version 6.7.1 (edcfbbe) compiled by 'conda@3ef47c1a292c' on 2024-11-25

   ID    Z sym.   atoms
    1    6 C      1-7
    2    8 O      8, 9
    3    1 H      10-14

          program call               : xtb A019.xyz --opt --namespace A019 --charge -1
          :  Hamiltonian                  GFN2-xTB          :
 * total energy  :   -25.8815336 Eh     change       -0.7575913E-09 Eh
 * total energy  :   -25.8846291 Eh     change       -0.3095560E-02 Eh
 * total energy  :   -25.8852407 Eh     change       -0.6115666E-03 Eh
 * total energy  :   -25.8853856 Eh     change       -0.1448499E-03 Eh
 * total energy  :   -25.8854171 Eh     change       -0.3153039E-04 Eh
 * total energy  :   -25.8853952 Eh     change        0.2192231E-04 Eh
 * total energy  :   -25.8854163 Eh     change       -0.2114847E-04 Eh
 * total energy  :   -25.8854184 Eh     change       -0.2057627E-05 Eh
   *** GEOMETRY OPTIMIZATION CONVERGED AFTER 8 ITERATIONS ***

 final structure:
================
14
 xtb: 6.7.1 (edcfbbe)
C            0.99931438397502       -0.01625471823694        0.08257135390661
C            0.17117218684160        0.76796282797364       -0.98685998098203
C           -0.95877755462902        1.48507239614469       -0.61796898724157
C           -1.69323063301787        2.18046557486933       -1.56150756380822
C           -1.30308392285964        2.16544946145560       -2.89126101490188
C           -0.17663417343646        1.45237572906010       -3.26983878208553
C            0.55357133630164        0.75927515070171       -2.32132958269514
O            0.56770027019432        0.05202622151676        1.24275655458920
O            1.99101492116090       -0.61997967817684       -0.35221026924651
H           -1.24295803361570        1.48126235502570        0.42562227504672
H           -2.57509404517718        2.73910612217613       -1.26677335075186
H           -1.87727768519650        2.70979101537182       -3.63300803612198
H            0.12738745516889        1.44153434762866       -4.31103225875897
H            1.43627549429000        0.19576319448964       -2.59178035694883

          :  Hamiltonian                  GFN2-xTB          :
         :: total energy             -25.885418378173 Eh    ::
         :: gradient norm              0.000577310140 Eh/a0 ::
         :: HOMO-LUMO gap              2.316168591255 eV    ::
         :: SCC energy               -26.249057934940 Eh    ::
         :: -> dispersion             -0.012280523407 Eh    ::
         :: repulsion energy           0.363639556767 Eh    ::

    * Orbital Energies and Occupations

         #    Occupation            Energy/Eh            Energy/eV
      -------------------------------------------------------------
         1        2.0000           -0.5054952             -13.7552
       ...           ...                  ...                  ...
        11        2.0000           -0.3496600              -9.5147
        12        2.0000           -0.3421391              -9.3101
        13        2.0000           -0.3407162              -9.2714
        14        2.0000           -0.3360603              -9.1447
        15        2.0000           -0.3165795              -8.6146
        16        2.0000           -0.2962230              -8.0606
        17        2.0000           -0.2942008              -8.0056
        18        2.0000           -0.2762533              -7.5172
        19        2.0000           -0.2660247              -7.2389
        20        2.0000           -0.2551757              -6.9437
        21        2.0000           -0.2025703              -5.5122
        22        2.0000           -0.1879287              -5.1138
        23        2.0000           -0.1737076              -4.7268 (HOMO)
        24                         -0.0885899              -2.4107 (LUMO)
        25                         -0.0839532              -2.2845
        26                          0.0141274               0.3844
        27                          0.0804096               2.1881
        28                          0.2381136               6.4794
        29                          0.2548177               6.9339
        30                          0.2948051               8.0221
        31                          0.2966247               8.0716
        32                          0.3351037               9.1186
        33                          0.3357239               9.1355
        34                          0.5244892              14.2721
       ...                                ...                  ...
        41                          0.9071850              24.6858
      -------------------------------------------------------------
                  HL-Gap            0.0851176 Eh            2.3162 eV

     #   Z          covCN         q      C6AA      α(0)
     1   6 C        2.684     0.364    20.833     7.469
     2   6 C        2.963    -0.036    28.887     8.816
     3   6 C        2.923    -0.029    28.726     8.789
     4   6 C        2.918    -0.042    29.051     8.839
     5   6 C        2.920    -0.045    29.112     8.848
     6   6 C        2.918    -0.042    29.051     8.839
     7   6 C        2.923    -0.029    28.726     8.789
     8   8 O        0.856    -0.590    25.878     6.820
     9   8 O        0.856    -0.590    25.878     6.820
    10   1 H        0.925     0.034     2.529     2.487
    11   1 H        0.925    -0.008     3.203     2.799
    12   1 H        0.925    -0.012     3.271     2.828
    13   1 H        0.925    -0.008     3.203     2.799
    14   1 H        0.925     0.034     2.529     2.487

Wiberg/Mayer (AO) data.
largest (>0.10) Wiberg bond orders for each atom

     #   Z sym  total        # sym  WBO       # sym  WBO       # sym  WBO
 ---------------------------------------------------------------------------
     1   6 C    3.948 --     8 O    1.520     9 O    1.520     2 C    0.878
     2   6 C    3.945 --     3 C    1.409     7 C    1.409     1 C    0.878
                             5 C    0.112
     3   6 C    3.991 --     4 C    1.448     2 C    1.409    10 H    0.966
                             6 C    0.107
     4   6 C    3.991 --     3 C    1.448     5 C    1.433    11 H    0.971
                             7 C    0.107
     5   6 C    3.990 --     6 C    1.433     4 C    1.433    12 H    0.972
                             2 C    0.112
     6   6 C    3.991 --     7 C    1.448     5 C    1.433    13 H    0.971
                             3 C    0.107
     7   6 C    3.991 --     6 C    1.448     2 C    1.409    14 H    0.966
                             4 C    0.107
     8   8 O    1.853 --     1 C    1.520     9 O    0.241
     9   8 O    1.853 --     1 C    1.520     8 O    0.241
    10   1 H    0.999 --     3 C    0.966
    11   1 H    0.999 --     4 C    0.971
    12   1 H    0.999 --     5 C    0.972
    13   1 H    0.999 --     6 C    0.971
    14   1 H    0.999 --     7 C    0.966
 ---------------------------------------------------------------------------

molecular dipole:
                 x           y           z       tot (Debye)
 q only:       -1.804      -0.044      -0.050
   full:       -2.006       0.148      -0.310       5.173

           -------------------------------------------------
          | TOTAL ENERGY              -25.885418378173 Eh   |
          | GRADIENT NORM               0.000577310140 Eh/α |
          | HOMO-LUMO GAP               2.316168591255 eV   |
           -------------------------------------------------

 * finished run on 2024/12/20 at 01:52:26.450
