   * xtb version 6.7.1 (edcfbbe) compiled by 'conda@3ef47c1a292c' on 2024-11-25

   ID    Z sym.   atoms
    1    9 F      1, 6-12, 17
    2    6 C      2-5
    3   16 S      13
    4    8 O      14-16

          program call               : xtb A020.xyz --opt --namespace A020 --charge -1
          :  Hamiltonian                  GFN2-xTB          :
 * total energy  :   -66.8484824 Eh     change       -0.6454570E-10 Eh
 * total energy  :   -66.8572712 Eh     change       -0.8788774E-02 Eh
 * total energy  :   -66.8611311 Eh     change       -0.3859883E-02 Eh
 * total energy  :   -66.8614500 Eh     change       -0.3189131E-03 Eh
 * total energy  :   -66.8617012 Eh     change       -0.2511779E-03 Eh
 * total energy  :   -66.8618383 Eh     change       -0.1371277E-03 Eh
 * total energy  :   -66.8619851 Eh     change       -0.1468215E-03 Eh
 * total energy  :   -66.8620871 Eh     change       -0.1019961E-03 Eh
 * total energy  :   -66.8621709 Eh     change       -0.8380401E-04 Eh
 * total energy  :   -66.8621948 Eh     change       -0.2385599E-04 Eh
 * total energy  :   -66.8622074 Eh     change       -0.1261744E-04 Eh
 * total energy  :   -66.8622196 Eh     change       -0.1223343E-04 Eh
 * total energy  :   -66.8622391 Eh     change       -0.1953242E-04 Eh
 * total energy  :   -66.8622632 Eh     change       -0.2401319E-04 Eh
 * total energy  :   -66.8622806 Eh     change       -0.1745292E-04 Eh
 * total energy  :   -66.8622871 Eh     change       -0.6499753E-05 Eh
 * total energy  :   -66.8622921 Eh     change       -0.4981101E-05 Eh
   *** GEOMETRY OPTIMIZATION CONVERGED AFTER 17 ITERATIONS ***

 final structure:
================
17
 xtb: 6.7.1 (edcfbbe)
F            1.01387352546249        0.62018844706349       -0.23522533134799
C            2.27224894274468        0.18202834485756        0.01998080102705
C            2.94957891432922       -0.25813799499210       -1.27425904199970
C            2.32538085735652        0.29033832770763       -2.58722334616103
C            2.29609568781359        1.81143915227048       -2.90094822337932
F            3.50077555025715        2.33668969166969       -3.00709310207852
F            1.74177846296618        1.92421505845198       -4.13417901828973
F            1.52731028099720        2.52297957489535       -2.10464664069257
F            3.00547149421443       -0.27297375772749       -3.62034552648495
F            1.06042071904669       -0.16950983727425       -2.70433934226658
F            4.26073443069316        0.02647166535151       -1.27459765813415
F            2.89705656987651       -1.61875086037484       -1.41134767322783
S            3.27172374943645        1.61422977251084        0.78566260227480
O            2.36477535186045        2.17305392283613        1.75137014339580
O            4.43398846667906        0.95460434645802        1.31684644530933
O            3.46352936066910        2.37959251897337       -0.42665452762198
F            2.13578763559744       -0.87728837267740        0.84927943967731

          :  Hamiltonian                  GFN2-xTB          :
         :: total energy             -66.862292086223 Eh    ::
         :: gradient norm              0.000819859253 Eh/a0 ::
         :: HOMO-LUMO gap              7.449836163476 eV    ::
         :: SCC energy               -67.059956988559 Eh    ::
         :: -> dispersion             -0.019899599741 Eh    ::
         :: repulsion energy           0.197664902336 Eh    ::

    * Orbital Energies and Occupations

         #    Occupation            Energy/Eh            Energy/eV
      -------------------------------------------------------------
         1        2.0000           -0.8156594             -22.1952
       ...           ...                  ...                  ...
        40        2.0000           -0.4252266             -11.5710
        41        2.0000           -0.4175765             -11.3628
        42        2.0000           -0.4123867             -11.2216
        43        2.0000           -0.3998962             -10.8817
        44        2.0000           -0.3894304             -10.5969
        45        2.0000           -0.3877092             -10.5501
        46        2.0000           -0.3823182             -10.4034
        47        2.0000           -0.3234888              -8.8026
        48        2.0000           -0.3216542              -8.7527
        49        2.0000           -0.3058134              -8.3216
        50        2.0000           -0.3048628              -8.2957
        51        2.0000           -0.2919126              -7.9433
        52        2.0000           -0.2901007              -7.8940 (HOMO)
        53                         -0.0163243              -0.4442 (LUMO)
        54                          0.0118451               0.3223
        55                          0.0257456               0.7006
        56                          0.0324315               0.8825
        57                          0.0564811               1.5369
        58                          0.0640993               1.7442
        59                          0.0956354               2.6024
        60                          0.1154344               3.1411
        61                          0.1491764               4.0593
        62                          0.1776519               4.8342
        63                          0.1863635               5.0712
       ...                                ...                  ...
        73                          1.3997547              38.0893
      -------------------------------------------------------------
                  HL-Gap            0.2737764 Eh            7.4498 eV

     #   Z          covCN         q      C6AA      α(0)
     1   9 F        0.798    -0.223    11.471     4.001
     2   6 C        3.501     0.189    18.986     6.464
     3   6 C        3.543     0.322    16.653     5.977
     4   6 C        3.521     0.314    16.960     6.070
     5   6 C        3.329     0.491    17.307     6.603
     6   9 F        0.791    -0.150    10.731     3.869
     7   9 F        0.795    -0.193    11.164     3.947
     8   9 F        0.791    -0.150    10.734     3.870
     9   9 F        0.791    -0.185    11.083     3.933
    10   9 F        0.790    -0.180    11.035     3.924
    11   9 F        0.792    -0.183    11.056     3.928
    12   9 F        0.791    -0.196    11.189     3.951
    13  16 S        3.576     1.241   100.002    16.831
    14   8 O        0.860    -0.608    26.318     6.878
    15   8 O        0.860    -0.618    26.555     6.909
    16   8 O        0.860    -0.671    27.923     7.085
    17   9 F        0.792    -0.201    11.243     3.961

Wiberg/Mayer (AO) data.
largest (>0.10) Wiberg bond orders for each atom

     #   Z sym  total        # sym  WBO       # sym  WBO       # sym  WBO
 ---------------------------------------------------------------------------
     1   9 F    1.050 --     2 C    0.947
     2   6 C    3.734 --    17 F    0.961     1 F    0.947     3 C    0.941
                            13 S    0.615
     3   6 C    3.876 --    11 F    0.972    12 F    0.944     2 C    0.941
                             4 C    0.917
     4   6 C    3.882 --    10 F    0.970     9 F    0.960     3 C    0.917
                             5 C    0.900
     5   6 C    3.878 --     8 F    0.995     6 F    0.993     7 F    0.935
                             4 C    0.900
     6   9 F    1.129 --     5 C    0.993
     7   9 F    1.068 --     5 C    0.935
     8   9 F    1.132 --     5 C    0.995
     9   9 F    1.071 --     4 C    0.960
    10   9 F    1.079 --     4 C    0.970
    11   9 F    1.087 --     3 C    0.972
    12   9 F    1.061 --     3 C    0.944
    13  16 S    5.189 --    14 O    1.530    15 O    1.523    16 O    1.475
                             2 C    0.615
    14   8 O    1.852 --    13 S    1.530    15 O    0.120    16 O    0.115
    15   8 O    1.844 --    13 S    1.523    14 O    0.120    16 O    0.113
    16   8 O    1.792 --    13 S    1.475    14 O    0.115    15 O    0.113
    17   9 F    1.071 --     2 C    0.961
 ---------------------------------------------------------------------------

molecular dipole:
                 x           y           z       tot (Debye)
 q only:       -5.745      -2.346      -0.276
   full:       -5.811      -2.449      -0.337      16.051

           -------------------------------------------------
          | TOTAL ENERGY              -66.862292086223 Eh   |
          | GRADIENT NORM               0.000819859253 Eh/α |
          | HOMO-LUMO GAP               7.449836163476 eV   |
           -------------------------------------------------

 * finished run on 2024/12/20 at 01:52:26.870
