   * xtb version 6.7.1 (edcfbbe) compiled by 'conda@3ef47c1a292c' on 2024-11-25

   ID    Z sym.   atoms
    1    9 F      1, 3, 4, 6-8
    2    6 C      2
    3    5 B      5

          program call               : xtb A021.xyz --opt --namespace A021 --charge -1
          :  Hamiltonian                  GFN2-xTB          :
 * total energy  :   -32.1882851 Eh     change       -0.2299316E-10 Eh
 * total energy  :   -32.1937353 Eh     change       -0.5450219E-02 Eh
 * total energy  :   -32.1985045 Eh     change       -0.4769251E-02 Eh
 * total energy  :   -32.1995749 Eh     change       -0.1070379E-02 Eh
 * total energy  :   -32.2003357 Eh     change       -0.7607316E-03 Eh
 * total energy  :   -32.2004490 Eh     change       -0.1133490E-03 Eh
 * total energy  :   -32.2005058 Eh     change       -0.5676994E-04 Eh
 * total energy  :   -32.2005132 Eh     change       -0.7412759E-05 Eh
 * total energy  :   -32.2005161 Eh     change       -0.2936628E-05 Eh
   *** GEOMETRY OPTIMIZATION CONVERGED AFTER 9 ITERATIONS ***

 final structure:
================
8
 xtb: 6.7.1 (edcfbbe)
F            1.04156244831842       -0.09241528304010       -0.14319062621129
C            2.40009329055120       -0.06270840213066       -0.02813106028054
F            2.79955062863729       -1.27313327541923       -0.51318016917115
F            2.79388979703667        0.82285645031520       -0.98764981259352
B            2.96068197484549        0.28884745264006        1.51876497459246
F            2.49815566591951        1.53927268328777        1.89952862456644
F            2.49294353539149       -0.67064882008495        2.40369892399177
F            4.34756265929993        0.28439919443192        1.51362914510583

          :  Hamiltonian                  GFN2-xTB          :
         :: total energy             -32.200516122260 Eh    ::
         :: gradient norm              0.000673688402 Eh/a0 ::
         :: HOMO-LUMO gap             12.024713337769 eV    ::
         :: SCC energy               -32.257525736936 Eh    ::
         :: -> dispersion             -0.004277118856 Eh    ::
         :: repulsion energy           0.057009614676 Eh    ::

    * Orbital Energies and Occupations

         #    Occupation            Energy/Eh            Energy/eV
      -------------------------------------------------------------
         1        2.0000           -0.6992036             -19.0263
       ...           ...                  ...                  ...
        13        2.0000           -0.3726972             -10.1416
        14        2.0000           -0.3599066              -9.7936
        15        2.0000           -0.3584435              -9.7537
        16        2.0000           -0.3584067              -9.7527
        17        2.0000           -0.3520333              -9.5793
        18        2.0000           -0.3520289              -9.5792
        19        2.0000           -0.3465578              -9.4303
        20        2.0000           -0.3129432              -8.5156
        21        2.0000           -0.3129421              -8.5156
        22        2.0000           -0.3048499              -8.2954
        23        2.0000           -0.3029934              -8.2449
        24        2.0000           -0.3029645              -8.2441
        25        2.0000           -0.2634267              -7.1682 (HOMO)
        26                          0.1784734               4.8565 (LUMO)
        27                          0.1789265               4.8688
        28                          0.2254691               6.1353
        29                          0.3337978               9.0831
        30                          0.5034686              13.7001
        31                          0.5038527              13.7105
        32                          0.5404348              14.7060
      -------------------------------------------------------------
                  HL-Gap            0.4419001 Eh           12.0247 eV

     #   Z          covCN         q      C6AA      α(0)
     1   9 F        0.789    -0.250    11.768     4.052
     2   6 C        3.225     0.363    20.288     7.319
     3   9 F        0.789    -0.250    11.768     4.052
     4   9 F        0.789    -0.250    11.768     4.052
     5   5 B        3.037     0.585    13.646     6.162
     6   9 F        0.721    -0.399    13.514     4.341
     7   9 F        0.721    -0.399    13.514     4.341
     8   9 F        0.721    -0.399    13.516     4.342

Wiberg/Mayer (AO) data.
largest (>0.10) Wiberg bond orders for each atom

     #   Z sym  total        # sym  WBO       # sym  WBO       # sym  WBO
 ---------------------------------------------------------------------------
     1   9 F    1.030 --     2 C    0.931
     2   6 C    3.621 --     1 F    0.931     3 F    0.931     4 F    0.931
                             5 B    0.764
     3   9 F    1.030 --     2 C    0.931
     4   9 F    1.030 --     2 C    0.931
     5   5 B    3.337 --     6 F    0.845     7 F    0.845     8 F    0.845
                             2 C    0.764
     6   9 F    0.929 --     5 B    0.845
     7   9 F    0.929 --     5 B    0.845
     8   9 F    0.929 --     5 B    0.845
 ---------------------------------------------------------------------------

molecular dipole:
                 x           y           z       tot (Debye)
 q only:       -5.261      -0.336      -1.946
   full:       -5.308      -0.366      -2.078      14.520

           -------------------------------------------------
          | TOTAL ENERGY              -32.200516122260 Eh   |
          | GRADIENT NORM               0.000673688402 Eh/α |
          | HOMO-LUMO GAP              12.024713337769 eV   |
           -------------------------------------------------

 * finished run on 2024/12/20 at 01:52:26.924
