   * xtb version 6.7.1 (edcfbbe) compiled by 'conda@3ef47c1a292c' on 2024-11-25

   ID    Z sym.   atoms
    1    9 F      1, 3-5
    2    5 B      2

          program call               : xtb A022.xyz --opt --namespace A022 --charge -1
          :  Hamiltonian                  GFN2-xTB          :
 * total energy  :   -20.6260376 Eh     change       -0.9592327E-13 Eh
 * total energy  :   -20.6268078 Eh     change       -0.7702070E-03 Eh
 * total energy  :   -20.6270231 Eh     change       -0.2152876E-03 Eh
 * total energy  :   -20.6270241 Eh     change       -0.9412101E-06 Eh
   *** GEOMETRY OPTIMIZATION CONVERGED AFTER 4 ITERATIONS ***

 final structure:
================
5
 xtb: 6.7.1 (edcfbbe)
F            1.06813695073191       -0.03106399326303        0.08178940468666
B            2.45842817617963       -0.03106162913047        0.08179002237716
F            2.92185933069324       -0.88142357936274        1.07930002778520
F            2.92185967633407       -0.46974893697014       -1.15340003144327
F            2.92185586606115        1.25798813872638        0.31947057659424

          :  Hamiltonian                  GFN2-xTB          :
         :: total energy             -20.627024078254 Eh    ::
         :: gradient norm              0.000545153683 Eh/a0 ::
         :: HOMO-LUMO gap             21.727299537137 eV    ::
         :: SCC energy               -20.659580882667 Eh    ::
         :: -> dispersion             -0.001692695594 Eh    ::
         :: repulsion energy           0.032556804412 Eh    ::

    * Orbital Energies and Occupations

         #    Occupation            Energy/Eh            Energy/eV
      -------------------------------------------------------------
         1        2.0000           -0.5934549             -16.1487
       ...           ...                  ...                  ...
         4        2.0000           -0.5786900             -15.7470
         5        2.0000           -0.3445523              -9.3757
         6        2.0000           -0.3234773              -8.8023
         7        2.0000           -0.3234773              -8.8023
         8        2.0000           -0.3234773              -8.8023
         9        2.0000           -0.2838317              -7.7235
        10        2.0000           -0.2838317              -7.7235
        11        2.0000           -0.2730992              -7.4314
        12        2.0000           -0.2730991              -7.4314
        13        2.0000           -0.2730991              -7.4314
        14        2.0000           -0.2698887              -7.3440
        15        2.0000           -0.2698886              -7.3440
        16        2.0000           -0.2698886              -7.3440 (HOMO)
        17                          0.5285749              14.3833 (LUMO)
        18                          0.5285751              14.3833
        19                          0.5285766              14.3833
        20                          0.5825964              15.8533
      -------------------------------------------------------------
                  HL-Gap            0.7984636 Eh           21.7273 eV

     #   Z          covCN         q      C6AA      α(0)
     1   9 F        0.721    -0.430    13.917     4.405
     2   5 B        2.882     0.720    12.423     5.883
     3   9 F        0.721    -0.430    13.917     4.405
     4   9 F        0.721    -0.430    13.917     4.405
     5   9 F        0.721    -0.430    13.917     4.405

Wiberg/Mayer (AO) data.
largest (>0.10) Wiberg bond orders for each atom

     #   Z sym  total        # sym  WBO       # sym  WBO       # sym  WBO
 ---------------------------------------------------------------------------
     1   9 F    0.888 --     2 B    0.809
     2   5 B    3.235 --     5 F    0.809     1 F    0.809     4 F    0.809
                             3 F    0.809
     3   9 F    0.888 --     2 B    0.809
     4   9 F    0.888 --     2 B    0.809
     5   9 F    0.888 --     2 B    0.809
 ---------------------------------------------------------------------------

molecular dipole:
                 x           y           z       tot (Debye)
 q only:       -4.646       0.059      -0.155
   full:       -4.646       0.059      -0.155      11.816

           -------------------------------------------------
          | TOTAL ENERGY              -20.627024078254 Eh   |
          | GRADIENT NORM               0.000545153683 Eh/α |
          | HOMO-LUMO GAP              21.727299537137 eV   |
           -------------------------------------------------

 * finished run on 2024/12/20 at 01:52:26.954
