   * xtb version 6.7.1 (edcfbbe) compiled by 'conda@3ef47c1a292c' on 2024-11-25

   ID    Z sym.   atoms
    1   17 Cl     1
    2    6 C      2-5, 7, 8, 11-14
    3    8 O      6, 9, 10
    4    1 H      15-24

          program call               : xtb A023.xyz --opt --namespace A023 --charge -1
          :  Hamiltonian                  GFN2-xTB          :
 * total energy  :   -43.4977929 Eh     change       -0.7751950E-09 Eh
 * total energy  :   -43.5047630 Eh     change       -0.6970198E-02 Eh
 * total energy  :   -43.5061255 Eh     change       -0.1362487E-02 Eh
 * total energy  :   -43.5074181 Eh     change       -0.1292591E-02 Eh
 * total energy  :   -43.5078313 Eh     change       -0.4131343E-03 Eh
 * total energy  :   -43.5080548 Eh     change       -0.2235108E-03 Eh
 * total energy  :   -43.5082057 Eh     change       -0.1508960E-03 Eh
 * total energy  :   -43.5083338 Eh     change       -0.1281776E-03 Eh
 * total energy  :   -43.5084717 Eh     change       -0.1378077E-03 Eh
 * total energy  :   -43.5086109 Eh     change       -0.1392825E-03 Eh
 * total energy  :   -43.5089684 Eh     change        0.1743739E-05 Eh
 * total energy  :   -43.5089807 Eh     change       -0.1230522E-04 Eh
 * total energy  :   -43.5089878 Eh     change       -0.7159852E-05 Eh
 * total energy  :   -43.5089938 Eh     change       -0.5968174E-05 Eh
 * total energy  :   -43.5090133 Eh     change       -0.1949993E-04 Eh
 * total energy  :   -43.5090263 Eh     change       -0.1300658E-04 Eh
 * total energy  :   -43.5090325 Eh     change       -0.6211737E-05 Eh
 * total energy  :   -43.5090375 Eh     change       -0.5010552E-05 Eh
 * total energy  :   -43.5090419 Eh     change       -0.4397921E-05 Eh
   *** GEOMETRY OPTIMIZATION CONVERGED AFTER 30 ITERATIONS ***

 final structure:
================
24
 xtb: 6.7.1 (edcfbbe)
Cl           2.39561323377719        0.11327315124678       -0.76513637024290
C            0.72623324081133       -0.17007854844399       -0.36416176315604
C           -0.10812874537906        0.90288466341975       -0.11726872133189
C           -1.45022961611600        0.73352338594008        0.19998870190142
C           -1.96873672637156       -0.57907223918192        0.23494102771981
O           -3.21719601972774       -0.99245509152240        0.50643301846356
C           -4.41610472999221       -0.29199620581640        0.14560784373315
C           -4.90295308500331        0.88788447912016        1.14207023061866
O           -5.67212013937735        1.69389046142239        0.61498745629907
O           -4.49516977858973        0.80473033589402        2.29978653385702
C           -4.43046585117332        0.11373183404647       -1.32388472466306
C           -1.08380558601704       -1.64632877803475        0.01169762326980
C            0.25069389116826       -1.46407304372460       -0.27830852852252
C           -2.23668345527715        1.94892931240579        0.57222531401658
H            0.29779510059639        1.90398885012600       -0.15375750778555
H           -5.17940084682176       -1.06709511238595        0.30860800097090
H           -4.64808038387008       -0.73421647569752       -1.97527018155156
H           -5.20265534434783        0.87178969338730       -1.44371615737313
H           -3.47016498442044        0.53180948070597       -1.62210766046390
H           -1.49104579004933       -2.64415558322847        0.07797576584841
H            0.90333383115648       -2.30714887421190       -0.44749389664277
H           -2.67612483592396        1.80804726946619        1.55923283654772
H           -1.59247230500543        2.82640858078806        0.58883822062102
H           -3.06436107404585        2.13811845427917       -0.10763706213362

          :  Hamiltonian                  GFN2-xTB          :
         :: total energy             -43.509041912870 Eh    ::
         :: gradient norm              0.000825245316 Eh/a0 ::
         :: HOMO-LUMO gap              1.897744615850 eV    ::
         :: SCC energy               -44.005493837341 Eh    ::
         :: -> dispersion             -0.025451762389 Eh    ::
         :: repulsion energy           0.496451924472 Eh    ::

    * Orbital Energies and Occupations

         #    Occupation            Energy/Eh            Energy/eV
      -------------------------------------------------------------
         1        2.0000           -0.9640716             -26.2337
       ...           ...                  ...                  ...
        26        2.0000           -0.3456269              -9.4050
        27        2.0000           -0.3376483              -9.1879
        28        2.0000           -0.3327611              -9.0549
        29        2.0000           -0.3253184              -8.8524
        30        2.0000           -0.3192508              -8.6873
        31        2.0000           -0.3182755              -8.6607
        32        2.0000           -0.3151397              -8.5754
        33        2.0000           -0.3023226              -8.2266
        34        2.0000           -0.2982785              -8.1166
        35        2.0000           -0.2650262              -7.2117
        36        2.0000           -0.2302001              -6.2641
        37        2.0000           -0.2162293              -5.8839
        38        2.0000           -0.1932592              -5.2589 (HOMO)
        39                         -0.1235184              -3.3611 (LUMO)
        40                         -0.1164400              -3.1685
        41                         -0.0468370              -1.2745
        42                         -0.0019372              -0.0527
        43                          0.0027670               0.0753
        44                          0.1122049               3.0533
        45                          0.1160309               3.1574
        46                          0.1161695               3.1611
        47                          0.1301894               3.5426
        48                          0.1386383               3.7725
        49                          0.1950269               5.3070
       ...                                ...                  ...
        71                          0.8787410              23.9118
      -------------------------------------------------------------
                  HL-Gap            0.0697408 Eh            1.8977 eV

     #   Z          covCN         q      C6AA      α(0)
     1  17 Cl       0.960    -0.238   106.709    15.804
     2   6 C        2.889     0.074    26.346     8.415
     3   6 C        2.960    -0.058    29.430     8.898
     4   6 C        2.963    -0.005    28.157     8.704
     5   6 C        2.847     0.150    24.747     8.153
     6   8 O        1.706    -0.272    18.510     5.809
     7   6 C        3.713     0.060    19.690     6.340
     8   6 C        2.671     0.365    20.808     7.464
     9   8 O        0.856    -0.577    25.567     6.779
    10   8 O        0.856    -0.566    25.300     6.744
    11   6 C        3.749    -0.098    22.430     6.755
    12   6 C        2.930    -0.064    29.590     8.921
    13   6 C        2.947    -0.053    29.303     8.878
    14   6 C        3.759    -0.105    22.563     6.772
    15   1 H        0.926     0.037     2.482     2.464
    16   1 H        0.923     0.019     2.747     2.592
    17   1 H        0.924     0.006     2.954     2.688
    18   1 H        0.925     0.058     2.221     2.331
    19   1 H        0.925     0.019     2.746     2.592
    20   1 H        0.926     0.042     2.426     2.436
    21   1 H        0.926     0.032     2.557     2.501
    22   1 H        0.925     0.088     1.900     2.156
    23   1 H        0.925     0.023     2.693     2.566
    24   1 H        0.925     0.063     2.165     2.301

Wiberg/Mayer (AO) data.
largest (>0.10) Wiberg bond orders for each atom

     #   Z sym  total        # sym  WBO       # sym  WBO       # sym  WBO
 ---------------------------------------------------------------------------
     1  17 Cl   1.039 --     2 C    0.927
     2   6 C    3.888 --     3 C    1.402    13 C    1.393     1 Cl   0.927
     3   6 C    3.986 --     4 C    1.423     2 C    1.402    15 H    0.966
     4   6 C    3.987 --     3 C    1.423     5 C    1.302    14 C    1.035
     5   6 C    3.948 --    12 C    1.338     4 C    1.302     6 O    1.123
     6   8 O    2.268 --     5 C    1.123     7 C    0.918
     7   6 C    3.865 --    11 C    1.006    16 H    0.958     6 O    0.918
                             8 C    0.811
     8   6 C    3.945 --    10 O    1.549     9 O    1.541     7 C    0.811
     9   8 O    1.872 --     8 C    1.541    10 O    0.232
    10   8 O    1.884 --     8 C    1.549     9 O    0.232
    11   6 C    3.996 --     7 C    1.006    17 H    0.987    19 H    0.983
                            18 H    0.976
    12   6 C    3.985 --    13 C    1.458     5 C    1.338    20 H    0.968
    13   6 C    3.987 --    12 C    1.458     2 C    1.393    21 H    0.969
    14   6 C    3.991 --     4 C    1.035    23 H    0.984    24 H    0.959
                            22 H    0.951
    15   1 H    0.999 --     3 C    0.966
    16   1 H    0.999 --     7 C    0.958
    17   1 H    1.000 --    11 C    0.987
    18   1 H    0.997 --    11 C    0.976
    19   1 H    1.000 --    11 C    0.983
    20   1 H    0.998 --    12 C    0.968
    21   1 H    0.998 --    13 C    0.969
    22   1 H    0.992 --    14 C    0.951
    23   1 H    0.999 --    14 C    0.984
    24   1 H    0.996 --    14 C    0.959
 ---------------------------------------------------------------------------

molecular dipole:
                 x           y           z       tot (Debye)
 q only:        6.768      -1.499      -2.048
   full:        6.854      -1.656      -2.253      18.815

           -------------------------------------------------
          | TOTAL ENERGY              -43.509041912870 Eh   |
          | GRADIENT NORM               0.000825245316 Eh/α |
          | HOMO-LUMO GAP               1.897744615850 eV   |
           -------------------------------------------------

 * finished run on 2024/12/20 at 01:52:27.652
