   * xtb version 6.7.1 (edcfbbe) compiled by 'conda@3ef47c1a292c' on 2024-11-25

   ID    Z sym.   atoms
    1    6 C      1-6, 8, 9, 11, 12, 14, 15, 17, 18, 20, 21, 23, 24, 26, 27,
                  29, 30, 32, 33, 35, 36
    2    8 O      7, 10, 13, 16, 19, 22, 25, 28, 31, 34, 37, 39-41
    3   16 S      38
    4    1 H      42-94

          program call               : xtb A024.xyz --opt --namespace A024 --charge -1
          :  Hamiltonian                  GFN2-xTB          :
 * total energy  :  -143.0549870 Eh     change       -0.3464606E-09 Eh
 * total energy  :  -143.0728949 Eh     change       -0.1790787E-01 Eh
 * total energy  :  -143.0792488 Eh     change       -0.6353858E-02 Eh
 * total energy  :  -143.0823617 Eh     change       -0.3112926E-02 Eh
 * total energy  :  -143.0857239 Eh     change       -0.3362229E-02 Eh
 * total energy  :  -143.0892396 Eh     change       -0.3515647E-02 Eh
 * total energy  :  -143.0928146 Eh     change       -0.3575032E-02 Eh
 * total energy  :  -143.0962032 Eh     change       -0.3388602E-02 Eh
 * total energy  :  -143.0994487 Eh     change       -0.3245529E-02 Eh
 * total energy  :  -143.1024536 Eh     change       -0.3004850E-02 Eh
 * total energy  :  -143.1356876 Eh     change       -0.1076672E-04 Eh
 * total energy  :  -143.1356989 Eh     change       -0.1133715E-04 Eh
 * total energy  :  -143.1356972 Eh     change        0.1700655E-05 Eh
 * total energy  :  -143.1357057 Eh     change       -0.8450045E-05 Eh
 * total energy  :  -143.1357178 Eh     change       -0.1210673E-04 Eh
 * total energy  :  -143.1357266 Eh     change       -0.8811958E-05 Eh
 * total energy  :  -143.1357389 Eh     change       -0.1225665E-04 Eh
 * total energy  :  -143.1357525 Eh     change       -0.1363700E-04 Eh
 * total energy  :  -143.1357570 Eh     change       -0.4530802E-05 Eh
   *** GEOMETRY OPTIMIZATION CONVERGED AFTER 94 ITERATIONS ***

 final structure:
================
94
 xtb: 6.7.1 (edcfbbe)
C            1.23100075107591        1.36882183523302       -0.06822017452206
C            1.25238525532660       -0.15326372069875       -0.14793411278193
C            1.81056946966049       -0.81775826333895        1.11170293608995
C            0.98749577190036       -0.57859231664601        2.37839751453963
C           -0.42281435978293       -1.15647900415383        2.28565259019478
C           -1.13220867206305       -1.20043554003694        3.64008779152060
O           -0.44578086107571       -1.90200371379277        4.66235722775357
C           -0.14974090376078       -3.25352868189765        4.41893059246585
C           -1.36657569217886       -4.15484382084528        4.17368886657426
O           -1.75376300829251       -4.05596629393475        2.81920058765778
C           -2.74124996316437       -4.97427619852349        2.40664175608043
C           -2.20783279004086       -6.37336993590045        2.04245060359390
O           -1.69132688181293       -6.44084389775470        0.73288023250734
C           -0.28834478441342       -6.55374277311748        0.59889331114501
C            0.48991078676541       -5.25001779954994        0.86838232146410
O            0.89033199199754       -4.54271757299131       -0.28142790428825
C           -0.11417025668679       -3.81436558425766       -0.94986930936385
C           -1.05195585646846       -4.66105891615802       -1.83138830210847
O           -0.40000222103696       -5.65300628495707       -2.59083717062208
C            0.61468303101191       -5.22407967567640       -3.47265986083689
C            0.16473794130939       -4.16695407466707       -4.49841242215454
O           -1.08538403071313       -4.41457551191715       -5.09951668214146
C           -1.10393009472836       -5.37166564762340       -6.13224048630820
C           -1.03098055442829       -6.83623520924928       -5.65126953047060
O            0.27011667010464       -7.38932474156925       -5.72446848846081
C            0.53259096508113       -8.21038525557861       -6.83964303947613
C            0.68827597614789       -7.43583458150620       -8.16222703002164
O            1.21765861102055       -8.23343238129011       -9.19301253052603
C            0.29152212150115       -8.75390719062833      -10.12623161919479
C           -0.59236173205844       -9.89117203991696       -9.58142541026075
O           -1.35228175117854      -10.48938597564772      -10.60055641796931
C           -0.84758520313777      -11.71182260920887      -11.12164864853000
C            0.53557395833761      -11.65411105763925      -11.77764830118304
O            0.69759245134502      -10.60938065918836      -12.72716912010999
C           -0.17296214219193      -10.64510859565505      -13.83766447857456
C           -0.20687115071431      -11.97838613395141      -14.59635180414871
O           -1.12877193759483      -12.85311811482969      -14.03022354232502
S           -0.48096366458776      -14.39156445549959      -14.10834166260229
O            0.72981699141102      -14.31190622347439      -13.30243138720140
O           -1.51964142366045      -15.21406462909787      -13.53591454599253
O           -0.22356412130619      -14.60890739999553      -15.51701529675659
H            0.53961252458462        1.71128324814418        0.69739656646686
H            0.91682425052349        1.79211165442265       -1.01987735990868
H            2.22214166008187        1.75169671695910        0.16641580609712
H            0.24415381361362       -0.52212695408681       -0.34250540474706
H            1.87717152400982       -0.45260562854327       -0.99308207739086
H            1.87631386957446       -1.89377943525161        0.93122710782119
H            2.82556067848906       -0.44892688732491        1.28097246447824
H            1.50257945778275       -1.04771724050760        3.21988966709982
H            0.93029877525085        0.48974514059809        2.59393521347796
H           -1.03966925602727       -0.55325335446718        1.61790799119141
H           -0.38146609955444       -2.16585091050369        1.87531907204283
H           -1.23125937509271       -0.18964620256192        4.04587395725225
H           -2.13584404090324       -1.62306392485023        3.49955747293030
H            0.53740141663277       -3.36734102134033        3.57077111477058
H            0.35691352937137       -3.58513379768806        5.32913916493361
H           -1.08959808278873       -5.18857664902808        4.42198497405115
H           -2.19766505667748       -3.85271086064429        4.82842323452345
H           -3.50976253585107       -5.07164323725656        3.18524490562125
H           -3.19230360377549       -4.53921892226576        1.51106058885940
H           -1.45876527198623       -6.69761252980114        2.77462969841361
H           -3.05431183206289       -7.07027692054076        2.07940850791701
H            0.08071670086414       -7.34303070366831        1.26855776123568
H           -0.12152033702091       -6.85986877397646       -0.43650318004396
H           -0.11547023774118       -4.60052367999865        1.51382272888229
H            1.42927190443085       -5.48903483844387        1.37579036395815
H           -0.73322787911527       -3.25992529845430       -0.22919231816194
H            0.43445846130708       -3.09422245372306       -1.56434511861916
H           -1.75064672958993       -5.22031542696912       -1.20553592326593
H           -1.62252579999004       -3.98075893416468       -2.47894005492638
H            1.47134915163527       -4.82001380512796       -2.91539439317917
H            0.92488868676375       -6.13426048735599       -3.98907712896461
H            0.04700656477613       -3.19354871360300       -4.01139135208222
H            0.95091626146726       -4.08156395296302       -5.26270549907867
H           -2.05692975448174       -5.20025035406736       -6.63987610937025
H           -0.28136185367708       -5.17770547889169       -6.83426239489431
H           -1.32590159612069       -6.86164827353333       -4.59704712952810
H           -1.73098776538286       -7.45072232126009       -6.22794759894779
H            1.48171236068870       -8.70441354524250       -6.61792807184661
H           -0.24664184769207       -8.97733638101946       -6.93867557955645
H           -0.27232022671211       -6.99773104585061       -8.46454005060654
H            1.40940704834403       -6.62531027485899       -7.99545523858778
H           -0.35860958465132       -7.95311550852341      -10.50693639133527
H            0.89071625046635       -9.13247175665823      -10.95631869888871
H            0.03727572993564      -10.62780431375087       -9.06636828337784
H           -1.31684942581063       -9.48468177072091       -8.86236071029608
H           -0.80394923899579      -12.46818521466060      -10.32486525668677
H           -1.58340907672886      -12.02958961421527      -11.86200161983065
H            1.31377880193798      -11.45595393268344      -11.03421024790520
H            0.71361033352632      -12.63993853505885      -12.23182610973701
H           -1.19723233141121      -10.39641224669297      -13.52823007254062
H            0.20298905590348       -9.85609008480974      -14.49640417936102
H           -0.47976543728627      -11.79090798462187      -15.64530812557882
H            0.78008677828173      -12.45288593095593      -14.57954373527756

          :  Hamiltonian                  GFN2-xTB          :
         :: total energy            -143.135757030014 Eh    ::
         :: gradient norm              0.000535754399 Eh/a0 ::
         :: HOMO-LUMO gap              7.492683509245 eV    ::
         :: SCC energy              -144.402930758059 Eh    ::
         :: -> dispersion             -0.089342871715 Eh    ::
         :: repulsion energy           1.267173728046 Eh    ::

    * Orbital Energies and Occupations

         #    Occupation            Energy/Eh            Energy/eV
      -------------------------------------------------------------
         1        2.0000           -0.6856805             -18.6583
       ...           ...                  ...                  ...
       112        2.0000           -0.3382570              -9.2044
       113        2.0000           -0.3346030              -9.1050
       114        2.0000           -0.3308126              -9.0019
       115        2.0000           -0.3278031              -8.9200
       116        2.0000           -0.3128669              -8.5135
       117        2.0000           -0.2952223              -8.0334
       118        2.0000           -0.2816392              -7.6638
       119        2.0000           -0.2773719              -7.5477
       120        2.0000           -0.2726078              -7.4180
       121        2.0000           -0.2679534              -7.2914
       122        2.0000           -0.2591182              -7.0510
       123        2.0000           -0.2565539              -6.9812
       124        2.0000           -0.2479018              -6.7458 (HOMO)
       125                          0.0274492               0.7469 (LUMO)
       126                          0.0389893               1.0610
       127                          0.0438815               1.1941
       128                          0.0504272               1.3722
       129                          0.0576466               1.5686
       130                          0.0662676               1.8032
       131                          0.0675921               1.8393
       132                          0.0776377               2.1126
       133                          0.0880912               2.3971
       134                          0.0937495               2.5511
       135                          0.1031897               2.8079
       ...                                ...                  ...
       222                          1.4158384              38.5269
      -------------------------------------------------------------
                  HL-Gap            0.2753511 Eh            7.4927 eV

     #   Z          covCN         q      C6AA      α(0)
     1   6 C        3.751    -0.101    22.496     6.764
     2   6 C        3.800    -0.053    21.533     6.607
     3   6 C        3.801    -0.060    21.647     6.624
     4   6 C        3.801    -0.057    21.593     6.616
     5   6 C        3.800    -0.068    21.800     6.648
     6   6 C        3.689     0.077    19.471     6.315
     7   8 O        1.700    -0.317    19.286     5.929
     8   6 C        3.688     0.075    19.510     6.322
     9   6 C        3.691     0.077    19.467     6.314
    10   8 O        1.700    -0.319    19.331     5.936
    11   6 C        3.692     0.069    19.606     6.336
    12   6 C        3.686     0.070    19.602     6.338
    13   8 O        1.700    -0.316    19.284     5.929
    14   6 C        3.686     0.063    19.706     6.355
    15   6 C        3.689     0.065    19.678     6.349
    16   8 O        1.700    -0.316    19.278     5.928
    17   6 C        3.689     0.075    19.514     6.323
    18   6 C        3.687     0.060    19.755     6.363
    19   8 O        1.700    -0.307    19.113     5.902
    20   6 C        3.687     0.058    19.793     6.369
    21   6 C        3.689     0.073    19.534     6.326
    22   8 O        1.700    -0.313    19.220     5.919
    23   6 C        3.689     0.068    19.626     6.340
    24   6 C        3.688     0.060    19.753     6.362
    25   8 O        1.700    -0.323    19.405     5.947
    26   6 C        3.689     0.065    19.670     6.348
    27   6 C        3.688     0.070    19.586     6.335
    28   8 O        1.700    -0.322    19.382     5.944
    29   6 C        3.688     0.060    19.753     6.361
    30   6 C        3.688     0.077    19.482     6.318
    31   8 O        1.700    -0.323    19.393     5.946
    32   6 C        3.688     0.065    19.668     6.348
    33   6 C        3.687     0.053    19.881     6.383
    34   8 O        1.699    -0.327    19.469     5.957
    35   6 C        3.688     0.072    19.556     6.329
    36   6 C        3.965     0.089    19.043     6.200
    37   8 O        1.707    -0.492    22.707     6.434
    38  16 S        3.726     1.468    94.232    16.338
    39   8 O        0.860    -0.718    29.192     7.244
    40   8 O        0.860    -0.677    28.086     7.105
    41   8 O        0.860    -0.704    28.827     7.199
    42   1 H        0.925     0.034     2.535     2.490
    43   1 H        0.925     0.030     2.588     2.516
    44   1 H        0.925     0.033     2.549     2.497
    45   1 H        0.924     0.030     2.584     2.514
    46   1 H        0.924     0.028     2.618     2.530
    47   1 H        0.924     0.035     2.520     2.482
    48   1 H        0.924     0.030     2.590     2.517
    49   1 H        0.924     0.037     2.487     2.466
    50   1 H        0.924     0.033     2.548     2.496
    51   1 H        0.924     0.033     2.545     2.495
    52   1 H        0.924     0.047     2.358     2.401
    53   1 H        0.924     0.045     2.384     2.415
    54   1 H        0.923     0.028     2.618     2.530
    55   1 H        0.924     0.046     2.366     2.405
    56   1 H        0.924     0.051     2.309     2.376
    57   1 H        0.923     0.019     2.756     2.596
    58   1 H        0.923     0.032     2.559     2.502
    59   1 H        0.923     0.024     2.675     2.558
    60   1 H        0.924     0.068     2.112     2.273
    61   1 H        0.924     0.030     2.589     2.516
    62   1 H        0.924     0.044     2.392     2.419
    63   1 H        0.923     0.020     2.739     2.588
    64   1 H        0.924     0.089     1.886     2.148
    65   1 H        0.924     0.051     2.309     2.376
    66   1 H        0.924     0.041     2.434     2.440
    67   1 H        0.923     0.024     2.677     2.559
    68   1 H        0.924     0.044     2.394     2.420
    69   1 H        0.924     0.072     2.066     2.248
    70   1 H        0.923     0.031     2.567     2.506
    71   1 H        0.923     0.032     2.564     2.504
    72   1 H        0.924     0.080     1.977     2.199
    73   1 H        0.924     0.043     2.415     2.430
    74   1 H        0.923     0.024     2.672     2.556
    75   1 H        0.924     0.050     2.319     2.381
    76   1 H        0.923     0.034     2.527     2.486
    77   1 H        0.924     0.078     1.999     2.211
    78   1 H        0.924     0.028     2.610     2.526
    79   1 H        0.924     0.065     2.143     2.289
    80   1 H        0.924     0.030     2.592     2.518
    81   1 H        0.923     0.024     2.679     2.560
    82   1 H        0.924     0.045     2.379     2.412
    83   1 H        0.923     0.027     2.624     2.533
    84   1 H        0.924     0.092     1.861     2.133
    85   1 H        0.924     0.030     2.586     2.515
    86   1 H        0.923     0.026     2.647     2.544
    87   1 H        0.923     0.022     2.696     2.568
    88   1 H        0.924     0.081     1.969     2.194
    89   1 H        0.924     0.038     2.473     2.459
    90   1 H        0.923     0.087     1.913     2.163
    91   1 H        0.923     0.039     2.461     2.453
    92   1 H        0.924     0.036     2.503     2.474
    93   1 H        0.923     0.021     2.725     2.582
    94   1 H        0.924     0.045     2.381     2.413

Wiberg/Mayer (AO) data.
largest (>0.10) Wiberg bond orders for each atom

     #   Z sym  total        # sym  WBO       # sym  WBO       # sym  WBO
 ---------------------------------------------------------------------------
     1   6 C    3.997 --     2 C    1.020    44 H    0.988    43 H    0.988
                            42 H    0.986
     2   6 C    3.998 --     1 C    1.020     3 C    1.008    46 H    0.978
                            45 H    0.976
     3   6 C    3.997 --     2 C    1.008     4 C    1.007    48 H    0.977
                            47 H    0.977
     4   6 C    3.997 --     5 C    1.009     3 C    1.007    50 H    0.976
                            49 H    0.975
     5   6 C    3.996 --     4 C    1.009     6 C    0.997    51 H    0.974
                            52 H    0.967
     6   6 C    3.950 --     5 C    0.997     7 O    0.975    53 H    0.971
                            54 H    0.968
     7   8 O    2.083 --     8 C    0.999     6 C    0.975
     8   6 C    3.963 --     7 O    0.999     9 C    0.987    56 H    0.969
                            55 H    0.961
     9   6 C    3.955 --     8 C    0.987    10 O    0.980    57 H    0.967
                            58 H    0.966
    10   8 O    2.087 --    11 C    0.983     9 C    0.980
    11   6 C    3.953 --    10 O    0.983    12 C    0.981    59 H    0.969
                            60 H    0.967
    12   6 C    3.962 --    13 O    0.992    11 C    0.981    62 H    0.968
                            61 H    0.965
    13   8 O    2.088 --    12 C    0.992    14 C    0.980
    14   6 C    3.944 --    13 O    0.980    15 C    0.979    63 H    0.969
                            64 H    0.960
    15   6 C    3.954 --    16 O    0.989    14 C    0.979    66 H    0.972
                            65 H    0.951
    16   8 O    2.089 --    15 C    0.989    17 C    0.989
    17   6 C    3.956 --    16 O    0.989    18 C    0.979    68 H    0.968
                            67 H    0.963
    18   6 C    3.956 --    19 O    0.991    17 C    0.979    70 H    0.965
                            69 H    0.962
    19   8 O    2.094 --    18 C    0.991    20 C    0.988
    20   6 C    3.954 --    19 O    0.988    21 C    0.980    71 H    0.966
                            72 H    0.961
    21   6 C    3.957 --    22 O    0.990    20 C    0.980    73 H    0.968
                            74 H    0.966
    22   8 O    2.090 --    21 C    0.990    23 C    0.990
    23   6 C    3.955 --    22 O    0.990    24 C    0.979    75 H    0.971
                            76 H    0.963
    24   6 C    3.950 --    25 O    0.983    23 C    0.979    78 H    0.970
                            77 H    0.963
    25   8 O    2.082 --    26 C    0.986    24 C    0.983
    26   6 C    3.949 --    25 O    0.986    27 C    0.978    79 H    0.968
                            80 H    0.964
    27   6 C    3.960 --    28 O    0.995    26 C    0.978    82 H    0.968
                            81 H    0.967
    28   8 O    2.080 --    27 C    0.995    29 C    0.978
    29   6 C    3.937 --    30 C    0.978    28 O    0.978    83 H    0.968
                            84 H    0.957
    30   6 C    3.964 --    31 O    0.998    29 C    0.978    85 H    0.968
                            86 H    0.968
    31   8 O    2.077 --    30 C    0.998    32 C    0.970
    32   6 C    3.941 --    33 C    0.990    31 O    0.970    87 H    0.967
                            88 H    0.960
    33   6 C    3.944 --    32 C    0.990    34 O    0.976    89 H    0.969
                            90 H    0.939
    34   8 O    2.073 --    35 C    0.988    33 C    0.976
    35   6 C    3.961 --    34 O    0.988    36 C    0.985    92 H    0.972
                            91 H    0.966
    36   6 C    3.953 --    37 O    0.996    35 C    0.985    93 H    0.967
                            94 H    0.961
    37   8 O    2.026 --    36 C    0.996    38 S    0.773
    38  16 S    5.033 --    40 O    1.452    41 O    1.414    39 O    1.372
                            37 O    0.773
    39   8 O    1.728 --    38 S    1.372    41 O    0.119    40 O    0.117
    40   8 O    1.763 --    38 S    1.452    41 O    0.121    39 O    0.117
    41   8 O    1.730 --    38 S    1.414    40 O    0.121    39 O    0.119
    42   1 H    0.999 --     1 C    0.986
    43   1 H    0.999 --     1 C    0.988
    44   1 H    0.999 --     1 C    0.988
    45   1 H    0.999 --     2 C    0.976
    46   1 H    0.999 --     2 C    0.978
    47   1 H    0.999 --     3 C    0.977
    48   1 H    0.999 --     3 C    0.977
    49   1 H    0.999 --     4 C    0.975
    50   1 H    0.999 --     4 C    0.976
    51   1 H    0.999 --     5 C    0.974
    52   1 H    0.998 --     5 C    0.967
    53   1 H    0.998 --     6 C    0.971
    54   1 H    0.999 --     6 C    0.968
    55   1 H    0.998 --     8 C    0.961
    56   1 H    0.997 --     8 C    0.969
    57   1 H    1.000 --     9 C    0.967
    58   1 H    0.999 --     9 C    0.966
    59   1 H    0.999 --    11 C    0.969
    60   1 H    0.995 --    11 C    0.967
    61   1 H    0.999 --    12 C    0.965
    62   1 H    0.998 --    12 C    0.968
    63   1 H    1.000 --    14 C    0.969
    64   1 H    0.992 --    14 C    0.960
    65   1 H    0.997 --    15 C    0.951
    66   1 H    0.998 --    15 C    0.972
    67   1 H    0.999 --    17 C    0.963
    68   1 H    0.998 --    17 C    0.968
    69   1 H    0.995 --    18 C    0.962
    70   1 H    0.999 --    18 C    0.965
    71   1 H    0.999 --    20 C    0.966
    72   1 H    0.994 --    20 C    0.961
    73   1 H    0.998 --    21 C    0.968
    74   1 H    0.999 --    21 C    0.966
    75   1 H    0.997 --    23 C    0.971
    76   1 H    0.999 --    23 C    0.963
    77   1 H    0.994 --    24 C    0.963
    78   1 H    0.999 --    24 C    0.970
    79   1 H    0.996 --    26 C    0.968
    80   1 H    0.999 --    26 C    0.964
    81   1 H    0.999 --    27 C    0.967
    82   1 H    0.998 --    27 C    0.968
    83   1 H    0.999 --    29 C    0.968
    84   1 H    0.991 --    29 C    0.957
    85   1 H    0.999 --    30 C    0.968
    86   1 H    0.999 --    30 C    0.968
    87   1 H    0.999 --    32 C    0.967
    88   1 H    0.993 --    32 C    0.960
    89   1 H    0.999 --    33 C    0.969
    90   1 H    0.992 --    33 C    0.939
    91   1 H    0.998 --    35 C    0.966
    92   1 H    0.998 --    35 C    0.972
    93   1 H    1.000 --    36 C    0.967
    94   1 H    0.998 --    36 C    0.961
 ---------------------------------------------------------------------------

molecular dipole:
                 x           y           z       tot (Debye)
 q only:        0.455      26.208      25.835
   full:        0.131      26.118      25.863      93.427

           -------------------------------------------------
          | TOTAL ENERGY             -143.135757030014 Eh   |
          | GRADIENT NORM               0.000535754399 Eh/α |
          | HOMO-LUMO GAP               7.492683509245 eV   |
           -------------------------------------------------

 * finished run on 2024/12/20 at 01:52:39.037
