   * xtb version 6.7.1 (edcfbbe) compiled by 'conda@3ef47c1a292c' on 2024-11-25

   ID    Z sym.   atoms
    1   53 I      1
    2    6 C      2-7
    3   16 S      8
    4    8 O      9-11
    5    1 H      12-15

          program call               : xtb A025.xyz --opt --namespace A025 --charge -1
          :  Hamiltonian                  GFN2-xTB          :
 * total energy  :   -34.3863570 Eh     change       -0.2282405E-09 Eh
 * total energy  :   -34.3911543 Eh     change       -0.4797308E-02 Eh
 * total energy  :   -34.3920577 Eh     change       -0.9034181E-03 Eh
 * total energy  :   -34.3923470 Eh     change       -0.2892535E-03 Eh
 * total energy  :   -34.3923785 Eh     change       -0.3151792E-04 Eh
 * total energy  :   -34.3923857 Eh     change       -0.7173637E-05 Eh
 * total energy  :   -34.3923883 Eh     change       -0.2596579E-05 Eh
   *** GEOMETRY OPTIMIZATION CONVERGED AFTER 7 ITERATIONS ***

 final structure:
================
15
 xtb: 6.7.1 (edcfbbe)
I           -1.31062794554846        0.14884980771790        0.01520241123126
C            0.78342128990603        0.02045384253118        0.01621310648828
C            1.42898081639487       -1.18832324066479        0.03037204682952
C            2.81044594266454       -1.22145563670010        0.02000034483864
C            3.54521752819990       -0.04997891158699       -0.00052905553925
C            2.88240047062081        1.16921286437871       -0.01030421315423
C            1.49981264502205        1.21002994431896       -0.00268761275778
S            0.68494093859915       -2.84642033662106        0.04619297851690
O            1.15391674156299       -3.40698635388510       -1.21396504530582
O            1.27971529425291       -3.44591819846592        1.23319734041856
O           -0.75785201383233       -2.68441888827679        0.12572706249714
H            3.27123841319633       -2.19650662399863        0.03072874538055
H            4.62637951931263       -0.07846741550095       -0.00862141632413
H            3.44271723433084        2.09474895730470       -0.02458020552487
H            0.97990312531776        2.15794018944887       -0.01162648759476

          :  Hamiltonian                  GFN2-xTB          :
         :: total energy             -34.392388284844 Eh    ::
         :: gradient norm              0.000526545330 Eh/a0 ::
         :: HOMO-LUMO gap              3.028312946955 eV    ::
         :: SCC energy               -34.750488562503 Eh    ::
         :: -> dispersion             -0.020483205887 Eh    ::
         :: repulsion energy           0.358100277659 Eh    ::

    * Orbital Energies and Occupations

         #    Occupation            Energy/Eh            Energy/eV
      -------------------------------------------------------------
         1        2.0000           -0.6121261             -16.6568
       ...           ...                  ...                  ...
        18        2.0000           -0.3426432              -9.3238
        19        2.0000           -0.3324339              -9.0460
        20        2.0000           -0.3253547              -8.8534
        21        2.0000           -0.3227595              -8.7827
        22        2.0000           -0.3090788              -8.4105
        23        2.0000           -0.2894991              -7.8777
        24        2.0000           -0.2812300              -7.6527
        25        2.0000           -0.2723149              -7.4101
        26        2.0000           -0.2706802              -7.3656
        27        2.0000           -0.2569943              -6.9932
        28        2.0000           -0.2514415              -6.8421
        29        2.0000           -0.2447962              -6.6612
        30        2.0000           -0.2416240              -6.5749 (HOMO)
        31                         -0.1303355              -3.5466 (LUMO)
        32                         -0.1285981              -3.4993
        33                         -0.0981279              -2.6702
        34                         -0.0043754              -0.1191
        35                          0.0755465               2.0557
        36                          0.1156388               3.1467
        37                          0.1516856               4.1276
        38                          0.1590207               4.3272
        39                          0.1658520               4.5131
        40                          0.1802692               4.9054
        41                          0.1958608               5.3296
       ...                                ...                  ...
        58                          1.3675039              37.2117
      -------------------------------------------------------------
                  HL-Gap            0.1112885 Eh            3.0283 eV

     #   Z          covCN         q      C6AA      α(0)
     1  53 I        1.410    -0.134   381.891    33.734
     2   6 C        2.972     0.049    26.886     8.505
     3   6 C        3.092    -0.096    30.291     9.021
     4   6 C        3.003    -0.023    28.572     8.768
     5   6 C        2.918    -0.036    28.905     8.816
     6   6 C        2.923    -0.039    28.980     8.828
     7   6 C        3.087    -0.042    28.933     8.817
     8  16 S        3.685     1.185   101.507    16.957
     9   8 O        0.860    -0.676    28.052     7.101
    10   8 O        0.860    -0.676    28.060     7.102
    11   8 O        0.963    -0.633    26.861     6.952
    12   1 H        0.926     0.050     2.324     2.384
    13   1 H        0.925     0.019     2.749     2.593
    14   1 H        0.925     0.017     2.780     2.608
    15   1 H        0.926     0.035     2.520     2.482

Wiberg/Mayer (AO) data.
largest (>0.10) Wiberg bond orders for each atom

     #   Z sym  total        # sym  WBO       # sym  WBO       # sym  WBO
 ---------------------------------------------------------------------------
     1  53 I    1.141 --     2 C    0.950
     2   6 C    3.964 --     3 C    1.443     7 C    1.406     1 I    0.950
     3   6 C    3.961 --     2 C    1.443     4 C    1.408     8 S    0.724
                             6 C    0.106
     4   6 C    3.990 --     5 C    1.452     3 C    1.408    12 H    0.965
                             7 C    0.112
     5   6 C    3.992 --     4 C    1.452     6 C    1.422    13 H    0.971
     6   6 C    3.991 --     7 C    1.449     5 C    1.422    14 H    0.970
                             3 C    0.106
     7   6 C    3.990 --     6 C    1.449     2 C    1.406    15 H    0.969
                             4 C    0.112
     8  16 S    5.175 --    10 O    1.476     9 O    1.475    11 O    1.473
                             3 C    0.724
     9   8 O    1.792 --     8 S    1.475    10 O    0.105    11 O    0.102
    10   8 O    1.791 --     8 S    1.476     9 O    0.105    11 O    0.101
    11   8 O    1.850 --     8 S    1.473     9 O    0.102    10 O    0.101
    12   1 H    0.998 --     4 C    0.965
    13   1 H    0.998 --     5 C    0.971
    14   1 H    0.999 --     6 C    0.970
    15   1 H    0.998 --     7 C    0.969
 ---------------------------------------------------------------------------

molecular dipole:
                 x           y           z       tot (Debye)
 q only:       -0.576       5.641      -0.079
   full:        0.692       4.922      -0.072      12.634

           -------------------------------------------------
          | TOTAL ENERGY              -34.392388284844 Eh   |
          | GRADIENT NORM               0.000526545330 Eh/α |
          | HOMO-LUMO GAP               3.028312946955 eV   |
           -------------------------------------------------

 * finished run on 2024/12/20 at 01:52:39.248
