   * xtb version 6.7.1 (edcfbbe) compiled by 'conda@3ef47c1a292c' on 2024-11-25

   ID    Z sym.   atoms
    1    6 C      1-7, 9-14
    2    8 O      8
    3    9 F      15, 16, 18-22
    4    5 B      17
    5    1 H      23-29

          program call               : xtb A027.xyz --opt --namespace A027 --charge -1
          :  Hamiltonian                  GFN2-xTB          :
 * total energy  :   -70.1511044 Eh     change       -0.3737597E-09 Eh
 * total energy  :   -70.1893061 Eh     change       -0.3820165E-01 Eh
 * total energy  :   -70.2042883 Eh     change       -0.1498226E-01 Eh
 * total energy  :   -70.2097151 Eh     change       -0.5426803E-02 Eh
 * total energy  :   -70.2118593 Eh     change       -0.2144151E-02 Eh
 * total energy  :   -70.2128272 Eh     change       -0.9679719E-03 Eh
 * total energy  :   -70.2133339 Eh     change       -0.5066127E-03 Eh
 * total energy  :   -70.2136869 Eh     change       -0.3530154E-03 Eh
 * total energy  :   -70.2140173 Eh     change       -0.3304732E-03 Eh
 * total energy  :   -70.2143727 Eh     change       -0.3553910E-03 Eh
 * total energy  :   -70.2174151 Eh     change       -0.1784651E-04 Eh
 * total energy  :   -70.2174359 Eh     change       -0.2081276E-04 Eh
 * total energy  :   -70.2174531 Eh     change       -0.1724026E-04 Eh
 * total energy  :   -70.2174745 Eh     change       -0.2136773E-04 Eh
 * total energy  :   -70.2174960 Eh     change       -0.2151403E-04 Eh
 * total energy  :   -70.2175126 Eh     change       -0.1655722E-04 Eh
 * total energy  :   -70.2175119 Eh     change        0.6365844E-06 Eh
 * total energy  :   -70.2175208 Eh     change       -0.8935240E-05 Eh
 * total energy  :   -70.2175251 Eh     change       -0.4262902E-05 Eh
   *** GEOMETRY OPTIMIZATION CONVERGED AFTER 45 ITERATIONS ***

 final structure:
================
29
 xtb: 6.7.1 (edcfbbe)
C            0.70793214251671       -0.08928287066794       -0.02528562138682
C            0.44157217120236        0.69375765444765       -1.28686955813326
C            1.26886438212775        1.74942913516680       -1.64367631694366
C            1.02113861658148        2.47043318139122       -2.79751471118016
C           -0.04855307474632        2.13615953709126       -3.61057845873073
C           -0.87345550466874        1.08131937191121       -3.26178693813396
C           -0.63367242325298        0.36645607364152       -2.10203896489017
O            0.30035896578995       -1.44085015059566       -0.09741405380881
C            0.77952532250724       -2.22448352031859       -1.11005674813088
C            0.00477887435924       -3.33503748150914       -1.45393679916775
C            0.39513201349068       -4.22421023713973       -2.44356755173137
C            1.56781386048828       -4.06678164670811       -3.17331191836665
C            2.32703514068941       -2.96233314537703       -2.82584442053692
C            1.96321646090781       -2.06634344601561       -1.82174700070740
F            2.80646202887593       -1.03233389808983       -1.55071749553760
F            3.48800333207288       -2.69504616300702       -3.44650848589850
B            1.96211007195669       -5.17919212123167       -4.37191596379649
F            2.09812436550418       -6.43688345591506       -3.78895494144236
F            0.93589204231844       -5.20480454111350       -5.31339220191122
F            3.14575348044284       -4.85289722716552       -5.01212050555063
F           -0.42607758029682       -5.25735118145062       -2.68364434688307
F           -1.16164490114388       -3.52305042186212       -0.78887394051788
H            0.10580411486430        0.31822097191710        0.79664410716048
H            1.76517374532603       -0.00839187282786        0.25481064846870
H            2.11549551640516        1.99787374664568       -1.02022021394632
H            1.67244474649042        3.28872399424787       -3.06906604439737
H           -0.23429314606316        2.69274377777675       -4.51782214328707
H           -1.70498598965932        0.81005885532305       -3.89546913017300
H           -1.27939877508447       -0.45538291856520       -1.82997028043662

          :  Hamiltonian                  GFN2-xTB          :
         :: total energy             -70.217525112332 Eh    ::
         :: gradient norm              0.000419553790 Eh/a0 ::
         :: HOMO-LUMO gap              2.934953021439 eV    ::
         :: SCC energy               -70.851216864799 Eh    ::
         :: -> dispersion             -0.031623450254 Eh    ::
         :: repulsion energy           0.633691752467 Eh    ::

    * Orbital Energies and Occupations

         #    Occupation            Energy/Eh            Energy/eV
      -------------------------------------------------------------
         1        2.0000           -0.7327731             -19.9398
       ...           ...                  ...                  ...
        47        2.0000           -0.3434307              -9.3452
        48        2.0000           -0.3388092              -9.2195
        49        2.0000           -0.3381757              -9.2022
        50        2.0000           -0.3373000              -9.1784
        51        2.0000           -0.3317752              -9.0281
        52        2.0000           -0.3046833              -8.2909
        53        2.0000           -0.3027436              -8.2381
        54        2.0000           -0.3005045              -8.1771
        55        2.0000           -0.2941305              -8.0037
        56        2.0000           -0.2927504              -7.9661
        57        2.0000           -0.2906426              -7.9088
        58        2.0000           -0.2899030              -7.8887
        59        2.0000           -0.2660300              -7.2390 (HOMO)
        60                         -0.1581724              -4.3041 (LUMO)
        61                         -0.1569940              -4.2720
        62                         -0.1402026              -3.8151
        63                         -0.1366895              -3.7195
        64                         -0.0291220              -0.7925
        65                         -0.0116292              -0.3164
        66                          0.0780798               2.1247
        67                          0.1108411               3.0161
        68                          0.1429056               3.8887
        69                          0.1502879               4.0895
        70                          0.1646349               4.4799
       ...                                ...                  ...
        95                          0.7373817              20.0652
      -------------------------------------------------------------
                  HL-Gap            0.1078575 Eh            2.9350 eV

     #   Z          covCN         q      C6AA      α(0)
     1   6 C        3.697     0.079    19.428     6.305
     2   6 C        2.969     0.005    27.913     8.666
     3   6 C        2.924    -0.034    28.852     8.809
     4   6 C        2.920    -0.029    28.717     8.788
     5   6 C        2.920    -0.032    28.788     8.799
     6   6 C        2.920    -0.029    28.717     8.788
     7   6 C        2.924    -0.031    28.778     8.797
     8   8 O        1.704    -0.257    18.254     5.769
     9   6 C        2.855     0.103    25.711     8.311
    10   6 C        2.785     0.109    25.577     8.284
    11   6 C        2.792     0.150    24.734     8.147
    12   6 C        2.857    -0.122    31.092     9.140
    13   6 C        2.793     0.146    24.818     8.161
    14   6 C        2.783     0.099    25.784     8.317
    15   9 F        0.785    -0.222    11.465     4.000
    16   9 F        0.788    -0.188    11.110     3.937
    17   5 B        3.037     0.596    13.535     6.137
    18   9 F        0.721    -0.406    13.608     4.356
    19   9 F        0.721    -0.406    13.611     4.357
    20   9 F        0.721    -0.400    13.537     4.345
    21   9 F        0.788    -0.184    11.071     3.930
    22   9 F        0.786    -0.208    11.321     3.974
    23   1 H        0.924     0.051     2.309     2.376
    24   1 H        0.924     0.048     2.349     2.397
    25   1 H        0.926     0.031     2.570     2.507
    26   1 H        0.926     0.027     2.626     2.534
    27   1 H        0.926     0.026     2.638     2.540
    28   1 H        0.926     0.032     2.554     2.499
    29   1 H        0.926     0.046     2.376     2.411

Wiberg/Mayer (AO) data.
largest (>0.10) Wiberg bond orders for each atom

     #   Z sym  total        # sym  WBO       # sym  WBO       # sym  WBO
 ---------------------------------------------------------------------------
     1   6 C    3.944 --     2 C    0.997     8 O    0.966    24 H    0.963
                            23 H    0.955
     2   6 C    3.988 --     7 C    1.417     3 C    1.413     1 C    0.997
                             5 C    0.110
     3   6 C    3.992 --     4 C    1.447     2 C    1.413    25 H    0.969
                             6 C    0.112
     4   6 C    3.993 --     3 C    1.447     5 C    1.437    26 H    0.971
                             7 C    0.111
     5   6 C    3.993 --     6 C    1.441     4 C    1.437    27 H    0.972
                             2 C    0.110
     6   6 C    3.992 --     7 C    1.442     5 C    1.441    28 H    0.971
                             3 C    0.112
     7   6 C    3.992 --     6 C    1.442     2 C    1.417    29 H    0.968
                             4 C    0.111
     8   8 O    2.219 --     9 C    1.057     1 C    0.966
     9   6 C    3.946 --    14 C    1.346    10 C    1.316     8 O    1.057
    10   6 C    3.881 --    11 C    1.364     9 C    1.316    22 F    0.962
    11   6 C    3.897 --    10 C    1.364    12 C    1.363    21 F    0.988
    12   6 C    3.847 --    13 C    1.390    11 C    1.363    17 B    0.779
    13   6 C    3.895 --    12 C    1.390    14 C    1.336    16 F    0.984
    14   6 C    3.874 --     9 C    1.346    13 C    1.336    15 F    0.949
    15   9 F    1.075 --    14 C    0.949
    16   9 F    1.125 --    13 C    0.984
    17   5 B    3.323 --    20 F    0.847    18 F    0.833    19 F    0.833
                            12 C    0.779
    18   9 F    0.921 --    17 B    0.833
    19   9 F    0.920 --    17 B    0.833
    20   9 F    0.929 --    17 B    0.847
    21   9 F    1.129 --    11 C    0.988
    22   9 F    1.089 --    10 C    0.962
    23   1 H    0.997 --     1 C    0.955
    24   1 H    0.997 --     1 C    0.963
    25   1 H    0.999 --     3 C    0.969
    26   1 H    0.999 --     4 C    0.971
    27   1 H    0.999 --     5 C    0.972
    28   1 H    0.999 --     6 C    0.971
    29   1 H    0.998 --     7 C    0.968
 ---------------------------------------------------------------------------

molecular dipole:
                 x           y           z       tot (Debye)
 q only:       -3.328       9.492       7.443
   full:       -3.298       9.768       7.674      32.668

           -------------------------------------------------
          | TOTAL ENERGY              -70.217525112332 Eh   |
          | GRADIENT NORM               0.000419553790 Eh/α |
          | HOMO-LUMO GAP               2.934953021439 eV   |
           -------------------------------------------------

 * finished run on 2024/12/20 at 01:52:39.967
