   * xtb version 6.7.1 (edcfbbe) compiled by 'conda@3ef47c1a292c' on 2024-11-25

   ID    Z sym.   atoms
    1    9 F      1, 3, 4, 11-13
    2    6 C      2, 5, 7, 8, 10
    3    8 O      6, 9
    4    1 H      14

          program call               : xtb A028.xyz --opt --namespace A028 --charge -1
          :  Hamiltonian                  GFN2-xTB          :
 * total energy  :   -47.9738153 Eh     change       -0.3642882E-09 Eh
 * total energy  :   -47.9878522 Eh     change       -0.1403686E-01 Eh
 * total energy  :   -47.9914761 Eh     change       -0.3623909E-02 Eh
 * total energy  :   -47.9919200 Eh     change       -0.4439101E-03 Eh
 * total energy  :   -47.9920494 Eh     change       -0.1293802E-03 Eh
 * total energy  :   -47.9920639 Eh     change       -0.1456305E-04 Eh
 * total energy  :   -47.9921054 Eh     change       -0.4147851E-04 Eh
 * total energy  :   -47.9922496 Eh     change       -0.1441389E-03 Eh
 * total energy  :   -47.9923435 Eh     change       -0.9395362E-04 Eh
 * total energy  :   -47.9925935 Eh     change       -0.2499646E-03 Eh
 * total energy  :   -47.9933617 Eh     change       -0.1036704E-04 Eh
 * total energy  :   -47.9933756 Eh     change       -0.1387669E-04 Eh
 * total energy  :   -47.9934027 Eh     change       -0.2711779E-04 Eh
 * total energy  :   -47.9934223 Eh     change       -0.1959028E-04 Eh
 * total energy  :   -47.9934428 Eh     change       -0.2045161E-04 Eh
 * total energy  :   -47.9934849 Eh     change       -0.4210782E-04 Eh
 * total energy  :   -47.9934990 Eh     change       -0.1412956E-04 Eh
 * total energy  :   -47.9935075 Eh     change       -0.8523725E-05 Eh
 * total energy  :   -47.9935100 Eh     change       -0.2507162E-05 Eh
   *** GEOMETRY OPTIMIZATION CONVERGED AFTER 32 ITERATIONS ***

 final structure:
================
14
 xtb: 6.7.1 (edcfbbe)
F            1.04454010116252       -0.59780878718099       -0.22994417465028
C            2.23042662831144       -0.07647889027401        0.13995940782009
F            2.83702895785666        0.26044368795230       -1.01175023185131
F            1.92328015804394        1.07655023583663        0.77303276969567
C            2.99635925141965       -1.07432844453276        1.05773701792380
O            2.49129257511335       -2.19728739174603        1.12350205666245
C            4.06901216247194       -0.64062744894349        1.84441864275340
C            4.95049060268478        0.44566716306907        1.85350285153803
O            5.71258049386420        0.71916306068413        2.78411559269036
C            5.15976878345559        1.30891014193159        0.57471986388829
F            5.35175918729332        0.55580890822151       -0.53016900036646
F            4.18656498533850        2.18907148098525        0.28191937383504
F            6.27794694184405        2.05142521227605        0.68976528157298
H            4.27376917114007       -1.32892892827910        2.65711054848784

          :  Hamiltonian                  GFN2-xTB          :
         :: total energy             -47.993510035583 Eh    ::
         :: gradient norm              0.000806851935 Eh/a0 ::
         :: HOMO-LUMO gap              2.866242439177 eV    ::
         :: SCC energy               -48.217331977677 Eh    ::
         :: -> dispersion             -0.012451243349 Eh    ::
         :: repulsion energy           0.223821942094 Eh    ::

    * Orbital Energies and Occupations

         #    Occupation            Energy/Eh            Energy/eV
      -------------------------------------------------------------
         1        2.0000           -0.7498393             -20.4042
       ...           ...                  ...                  ...
        26        2.0000           -0.4035881             -10.9822
        27        2.0000           -0.4035552             -10.9813
        28        2.0000           -0.4014564             -10.9242
        29        2.0000           -0.3996865             -10.8760
        30        2.0000           -0.3981293             -10.8337
        31        2.0000           -0.3947739             -10.7423
        32        2.0000           -0.3942124             -10.7271
        33        2.0000           -0.3807013             -10.3594
        34        2.0000           -0.3676621             -10.0046
        35        2.0000           -0.3424429              -9.3183
        36        2.0000           -0.2818535              -7.6696
        37        2.0000           -0.2683055              -7.3010
        38        2.0000           -0.2519773              -6.8567 (HOMO)
        39                         -0.1466448              -3.9904 (LUMO)
        40                         -0.0499152              -1.3583
        41                          0.1417455               3.8571
        42                          0.1460584               3.9745
        43                          0.1597059               4.3458
        44                          0.1701455               4.6299
        45                          0.2108895               5.7386
        46                          0.2194017               5.9702
        47                          0.2651933               7.2163
        48                          0.2753464               7.4926
        49                          0.2885923               7.8530
       ...                                ...                  ...
        53                          0.7459590              20.2986
      -------------------------------------------------------------
                  HL-Gap            0.1053325 Eh            2.8662 eV

     #   Z          covCN         q      C6AA      α(0)
     1   9 F        0.792    -0.212    11.359     3.981
     2   6 C        3.325     0.456    17.841     6.713
     3   9 F        0.790    -0.215    11.387     3.986
     4   9 F        0.790    -0.223    11.477     4.002
     5   6 C        2.809     0.181    24.126     8.047
     6   8 O        0.859    -0.443    22.554     6.367
     7   6 C        2.892    -0.153    31.944     9.267
     8   6 C        2.809     0.180    24.130     8.048
     9   8 O        0.859    -0.443    22.565     6.369
    10   6 C        3.325     0.456    17.840     6.713
    11   9 F        0.790    -0.223    11.479     4.002
    12   9 F        0.790    -0.215    11.387     3.986
    13   9 F        0.792    -0.212    11.358     3.981
    14   1 H        0.925     0.066     2.130     2.282

Wiberg/Mayer (AO) data.
largest (>0.10) Wiberg bond orders for each atom

     #   Z sym  total        # sym  WBO       # sym  WBO       # sym  WBO
 ---------------------------------------------------------------------------
     1   9 F    1.066 --     2 C    0.948
     2   6 C    3.781 --     1 F    0.948     3 F    0.945     4 F    0.937
                             5 C    0.867
     3   9 F    1.068 --     2 C    0.945
     4   9 F    1.057 --     2 C    0.937
     5   6 C    3.959 --     6 O    1.621     7 C    1.326     2 C    0.867
     6   8 O    1.985 --     5 C    1.621     7 C    0.145
     7   6 C    3.943 --     8 C    1.327     5 C    1.326    14 H    0.948
                             9 O    0.145     6 O    0.145
     8   6 C    3.959 --     9 O    1.620     7 C    1.327    10 C    0.867
     9   8 O    1.984 --     8 C    1.620     7 C    0.145
    10   6 C    3.781 --    13 F    0.948    12 F    0.945    11 F    0.937
                             8 C    0.867
    11   9 F    1.057 --    10 C    0.937
    12   9 F    1.068 --    10 C    0.945
    13   9 F    1.066 --    10 C    0.948
    14   1 H    0.996 --     7 C    0.948
 ---------------------------------------------------------------------------

molecular dipole:
                 x           y           z       tot (Debye)
 q only:       -7.288      -0.161      -1.856
   full:       -7.328      -0.029      -2.013      19.315

           -------------------------------------------------
          | TOTAL ENERGY              -47.993510035583 Eh   |
          | GRADIENT NORM               0.000806851935 Eh/α |
          | HOMO-LUMO GAP               2.866242439177 eV   |
           -------------------------------------------------

 * finished run on 2024/12/20 at 01:52:40.277
