   * xtb version 6.7.1 (edcfbbe) compiled by 'conda@3ef47c1a292c' on 2024-11-25

   ID    Z sym.   atoms
    1    6 C      1-4, 6, 9
    2    7 N      5
    3    8 O      7, 8
    4    1 H      10-21

          program call               : xtb A029.xyz --opt --namespace A029 --charge -1
          :  Hamiltonian                  GFN2-xTB          :
 * total energy  :   -30.2614459 Eh     change       -0.1162235E-09 Eh
 * total energy  :   -30.2688485 Eh     change       -0.7402636E-02 Eh
 * total energy  :   -30.2711263 Eh     change       -0.2277767E-02 Eh
 * total energy  :   -30.2724468 Eh     change       -0.1320521E-02 Eh
 * total energy  :   -30.2729208 Eh     change       -0.4739510E-03 Eh
 * total energy  :   -30.2733431 Eh     change       -0.4223052E-03 Eh
 * total energy  :   -30.2735981 Eh     change       -0.2550335E-03 Eh
 * total energy  :   -30.2739483 Eh     change       -0.3502176E-03 Eh
 * total energy  :   -30.2742916 Eh     change       -0.3432487E-03 Eh
 * total energy  :   -30.2745825 Eh     change       -0.2908853E-03 Eh
 * total energy  :   -30.2776203 Eh     change       -0.2316948E-04 Eh
 * total energy  :   -30.2776307 Eh     change       -0.1041254E-04 Eh
 * total energy  :   -30.2776356 Eh     change       -0.4937220E-05 Eh
 * total energy  :   -30.2776524 Eh     change       -0.1682676E-04 Eh
 * total energy  :   -30.2776643 Eh     change       -0.1183427E-04 Eh
 * total energy  :   -30.2776741 Eh     change       -0.9804449E-05 Eh
 * total energy  :   -30.2776733 Eh     change        0.7939486E-06 Eh
 * total energy  :   -30.2776798 Eh     change       -0.6526116E-05 Eh
 * total energy  :   -30.2776841 Eh     change       -0.4270817E-05 Eh
   *** GEOMETRY OPTIMIZATION CONVERGED AFTER 75 ITERATIONS ***

 final structure:
================
21
 xtb: 6.7.1 (edcfbbe)
C            0.88738307209642       -0.77309772191839       -0.63092205015923
C           -0.07771625383829       -0.39674897453304       -1.76619882963479
C            0.44258740296457        0.73263684847251       -2.65412009960190
C            1.68077570622357        0.34112858276751       -3.45320058784214
N            0.25632000836525       -1.55209522786877        0.38909976477830
C            0.42725667640338       -1.14742202794363        1.79260541899918
O            0.06478142007317       -1.98482649480149        2.62228199273521
O            0.88407943268986       -0.01292004936685        1.95406694898639
C            0.01680261655435       -2.93166810575188        0.10133644772496
H            1.23560066394636        0.13598504580763       -0.12797559458602
H            1.76067294073274       -1.30806386786911       -1.05262200356705
H           -0.28504050626640       -1.27690229857925       -2.38181047389475
H           -1.01649277590721       -0.08286886294256       -1.30562637392597
H           -0.34671070026746        1.03418664075523       -3.35131488306562
H            0.67809008305271        1.59443203481152       -2.02568220534578
H            1.47545621841665       -0.53233767713444       -4.07060118312351
H            1.99250509206070        1.15705815109623       -4.10460356413410
H            2.50265747495277        0.10259355000665       -2.78434246309065
H           -0.82470245840618       -3.06206374729027       -0.59517936855908
H            0.90215637503062       -3.42743799465641       -0.33707847889361
H           -0.22787248887712       -3.40914780306064        1.05140758620235

          :  Hamiltonian                  GFN2-xTB          :
         :: total energy             -30.277684079219 Eh    ::
         :: gradient norm              0.000795782635 Eh/a0 ::
         :: HOMO-LUMO gap              6.159813259958 eV    ::
         :: SCC energy               -30.609858156619 Eh    ::
         :: -> dispersion             -0.015194980068 Eh    ::
         :: repulsion energy           0.332174077400 Eh    ::

    * Orbital Energies and Occupations

         #    Occupation            Energy/Eh            Energy/eV
      -------------------------------------------------------------
         1        2.0000           -0.5150314             -14.0147
       ...           ...                  ...                  ...
        15        2.0000           -0.3455502              -9.4029
        16        2.0000           -0.3443880              -9.3713
        17        2.0000           -0.3306076              -8.9963
        18        2.0000           -0.3256511              -8.8614
        19        2.0000           -0.3145884              -8.5604
        20        2.0000           -0.3068922              -8.3510
        21        2.0000           -0.2960411              -8.0557
        22        2.0000           -0.2870799              -7.8118
        23        2.0000           -0.2796450              -7.6095
        24        2.0000           -0.1939973              -5.2789
        25        2.0000           -0.1891259              -5.1464
        26        2.0000           -0.1774599              -4.8289
        27        2.0000           -0.1746600              -4.7527 (HOMO)
        28                          0.0517090               1.4071 (LUMO)
        29                          0.1794611               4.8834
        30                          0.2081500               5.6641
        31                          0.2353133               6.4032
        32                          0.2402552               6.5377
        33                          0.2506495               6.8205
        34                          0.2585484               7.0355
        35                          0.2633061               7.1649
        36                          0.2935936               7.9891
        37                          0.2989941               8.1360
        38                          0.3189263               8.6784
       ...                                ...                  ...
        48                          0.9148379              24.8940
      -------------------------------------------------------------
                  HL-Gap            0.2263690 Eh            6.1598 eV

     #   Z          covCN         q      C6AA      α(0)
     1   6 C        3.743     0.026    20.200     6.412
     2   6 C        3.801    -0.060    21.661     6.626
     3   6 C        3.799    -0.049    21.462     6.596
     4   6 C        3.751    -0.095    22.382     6.747
     5   7 N        2.728    -0.241    26.294     7.616
     6   6 C        2.626     0.415    20.016     7.318
     7   8 O        0.857    -0.608    26.327     6.879
     8   8 O        0.857    -0.610    26.363     6.884
     9   6 C        3.692    -0.002    20.790     6.524
    10   1 H        0.924     0.058     2.219     2.330
    11   1 H        0.922    -0.019     3.414     2.890
    12   1 H        0.924     0.014     2.833     2.632
    13   1 H        0.924     0.032     2.560     2.502
    14   1 H        0.924     0.010     2.886     2.657
    15   1 H        0.924     0.029     2.599     2.521
    16   1 H        0.925     0.023     2.682     2.561
    17   1 H        0.925     0.015     2.814     2.623
    18   1 H        0.925     0.037     2.491     2.468
    19   1 H        0.923    -0.012     3.284     2.834
    20   1 H        0.922    -0.019     3.420     2.892
    21   1 H        0.924     0.058     2.225     2.333

Wiberg/Mayer (AO) data.
largest (>0.10) Wiberg bond orders for each atom

     #   Z sym  total        # sym  WBO       # sym  WBO       # sym  WBO
 ---------------------------------------------------------------------------
     1   6 C    3.988 --     5 N    1.027     2 C    0.988    11 H    0.962
                            10 H    0.958
     2   6 C    3.995 --     3 C    1.007     1 C    0.988    12 H    0.978
                            13 H    0.978
     3   6 C    3.997 --     4 C    1.019     2 C    1.007    14 H    0.979
                            15 H    0.978
     4   6 C    3.998 --     3 C    1.019    17 H    0.989    16 H    0.988
                            18 H    0.987
     5   7 N    3.237 --     9 C    1.033     1 C    1.027     6 C    0.913
     6   6 C    3.940 --     7 O    1.500     8 O    1.497     5 N    0.913
     7   8 O    1.833 --     6 C    1.500     8 O    0.196
     8   8 O    1.833 --     6 C    1.497     7 O    0.196
     9   6 C    3.991 --     5 N    1.033    19 H    0.977    20 H    0.972
                            21 H    0.971
    10   1 H    0.997 --     1 C    0.958
    11   1 H    1.000 --     1 C    0.962
    12   1 H    1.000 --     2 C    0.978
    13   1 H    0.999 --     2 C    0.978
    14   1 H    1.000 --     3 C    0.979
    15   1 H    0.999 --     3 C    0.978
    16   1 H    0.999 --     4 C    0.988
    17   1 H    1.000 --     4 C    0.989
    18   1 H    0.999 --     4 C    0.987
    19   1 H    1.000 --     9 C    0.977
    20   1 H    1.000 --     9 C    0.972
    21   1 H    0.997 --     9 C    0.971
 ---------------------------------------------------------------------------

molecular dipole:
                 x           y           z       tot (Debye)
 q only:       -0.875       1.965      -3.638
   full:       -0.779       1.821      -3.987      11.317

           -------------------------------------------------
          | TOTAL ENERGY              -30.277684079219 Eh   |
          | GRADIENT NORM               0.000795782635 Eh/α |
          | HOMO-LUMO GAP               6.159813259958 eV   |
           -------------------------------------------------

 * finished run on 2024/12/20 at 01:52:41.010
