   * xtb version 6.7.1 (edcfbbe) compiled by 'conda@3ef47c1a292c' on 2024-11-25

   ID    Z sym.   atoms
    1    7 N      1, 5, 7, 9
    2    8 O      2, 3, 10, 11, 13, 14
    3    6 C      4, 6, 8, 12
    4    1 H      15

          program call               : xtb A030.xyz --opt --namespace A030 --charge -1
          :  Hamiltonian                  GFN2-xTB          :
 * total energy  :   -45.2358053 Eh     change       -0.1193712E-11 Eh
 * total energy  :   -45.2438380 Eh     change       -0.8032691E-02 Eh
 * total energy  :   -45.2457239 Eh     change       -0.1885886E-02 Eh
 * total energy  :   -45.2468827 Eh     change       -0.1158794E-02 Eh
 * total energy  :   -45.2472193 Eh     change       -0.3366834E-03 Eh
 * total energy  :   -45.2475268 Eh     change       -0.3075095E-03 Eh
 * total energy  :   -45.2476233 Eh     change       -0.9643118E-04 Eh
 * total energy  :   -45.2476507 Eh     change       -0.2738250E-04 Eh
 * total energy  :   -45.2476607 Eh     change       -0.1002396E-04 Eh
 * total energy  :   -45.2476706 Eh     change       -0.9964801E-05 Eh
 * total energy  :   -45.2476786 Eh     change       -0.7993076E-05 Eh
 * total energy  :   -45.2476831 Eh     change       -0.4442459E-05 Eh
 * total energy  :   -45.2476873 Eh     change       -0.4203593E-05 Eh
   *** GEOMETRY OPTIMIZATION CONVERGED AFTER 13 ITERATIONS ***

 final structure:
================
15
 xtb: 6.7.1 (edcfbbe)
N            0.90401500538768        0.14074417696552       -0.12735774053372
O            0.38793232991165       -0.50093608275512       -1.02006469541504
O            0.31495721720385        0.83257725241212        0.67154133083538
C            2.33268398250431        0.09912833673109       -0.05685034346867
N            3.07018300680293        1.21796924166366       -0.10503877665804
C            4.33700921872584        0.83144619403870       -0.08512068883180
N            4.42676400691506       -0.50848059569578       -0.04960479513928
C            3.16297556179513       -1.02538488423319       -0.03551079945425
N            2.90251711111759       -2.39280172375395        0.08990507131473
O            3.84933750574892       -3.15345956755151       -0.05300990736637
O            1.76546052183728       -2.74040786304698        0.35797987984541
C            5.74336799215630        1.60671645726863       -0.13603667982366
O            6.65506219844652        0.79236153636764        0.00519444181623
O            5.70430602252167        2.80692601842644       -0.31663045949708
H            5.32023831892528       -0.98735849683728       -0.01137583762382

          :  Hamiltonian                  GFN2-xTB          :
         :: total energy             -45.247687288489 Eh    ::
         :: gradient norm              0.000661041482 Eh/a0 ::
         :: HOMO-LUMO gap              0.515207677362 eV    ::
         :: SCC energy               -45.569945901892 Eh    ::
         :: -> dispersion             -0.015585869775 Eh    ::
         :: repulsion energy           0.322258613403 Eh    ::

    * Orbital Energies and Occupations

         #    Occupation            Energy/Eh            Energy/eV
      -------------------------------------------------------------
         1        2.0000           -0.6880757             -18.7235
       ...           ...                  ...                  ...
        25        2.0000           -0.3856618             -10.4944
        26        2.0000           -0.3842102             -10.4549
        27        2.0000           -0.3821813             -10.3997
        28        2.0000           -0.3747975             -10.1988
        29        2.0000           -0.3684170             -10.0251
        30        2.0000           -0.3659511              -9.9580
        31        2.0000           -0.3615940              -9.8395
        32        2.0000           -0.3550544              -9.6615
        33        2.0000           -0.3384718              -9.2103
        34        2.0000           -0.3181040              -8.6561
        35        2.0000           -0.2852108              -7.7610
        36        2.0000           -0.2745290              -7.4703
        37        1.9999           -0.2602060              -7.0806 (HOMO)
        38        0.0001           -0.2412725              -6.5654 (LUMO)
        39                         -0.2135282              -5.8104
        40                         -0.1391353              -3.7861
        41                         -0.1072578              -2.9186
        42                         -0.0237219              -0.6455
        43                          0.0521084               1.4179
        44                          0.0927224               2.5231
        45                          0.1152011               3.1348
        46                          0.1792060               4.8764
        47                          0.2470599               6.7228
        48                          0.2853054               7.7636
       ...                                ...                  ...
        57                          0.9007151              24.5097
      -------------------------------------------------------------
                  HL-Gap            0.0189335 Eh            0.5152 eV

     #   Z          covCN         q      C6AA      α(0)
     1   7 N        2.756     0.552    13.461     5.449
     2   8 O        0.932    -0.381    21.268     6.185
     3   8 O        0.930    -0.367    20.992     6.145
     4   6 C        3.139     0.078    26.048     8.353
     5   7 N        1.912    -0.228    26.817     7.678
     6   6 C        3.164     0.091    25.648     8.277
     7   7 N        2.819    -0.071    22.612     7.062
     8   6 C        3.009     0.030    27.306     8.572
     9   7 N        2.757     0.528    13.716     5.500
    10   8 O        0.933    -0.415    21.942     6.282
    11   8 O        0.932    -0.403    21.697     6.247
    12   6 C        2.675     0.379    20.581     7.424
    13   8 O        0.858    -0.542    24.731     6.667
    14   8 O        0.856    -0.483    23.417     6.488
    15   1 H        0.860     0.230     0.965     1.539

Wiberg/Mayer (AO) data.
largest (>0.10) Wiberg bond orders for each atom

     #   Z sym  total        # sym  WBO       # sym  WBO       # sym  WBO
 ---------------------------------------------------------------------------
     1   7 N    3.903 --     3 O    1.457     2 O    1.442     4 C    0.954
     2   8 O    1.926 --     1 N    1.442     3 O    0.371
     3   8 O    1.935 --     1 N    1.457     2 O    0.371
     4   6 C    3.961 --     5 N    1.363     8 C    1.345     1 N    0.954
     5   7 N    3.042 --     6 C    1.421     4 C    1.363
     6   6 C    3.847 --     5 N    1.421     7 N    1.317    12 C    0.782
     7   7 N    3.628 --     6 C    1.317     8 C    1.194    15 H    0.906
     8   6 C    3.928 --     4 C    1.345     7 N    1.194     9 N    1.045
     9   7 N    3.908 --    11 O    1.408    10 O    1.392     8 C    1.045
    10   8 O    1.882 --     9 N    1.392    11 O    0.330
    11   8 O    1.896 --     9 N    1.408    10 O    0.330
    12   6 C    3.947 --    14 O    1.604    13 O    1.529     6 C    0.782
    13   8 O    1.898 --    12 C    1.529    14 O    0.257
    14   8 O    1.957 --    12 C    1.604    13 O    0.257
    15   1 H    0.946 --     7 N    0.906
 ---------------------------------------------------------------------------

molecular dipole:
                 x           y           z       tot (Debye)
 q only:       -7.255      -0.910       0.203
   full:       -7.174      -1.435       0.223      18.603

           -------------------------------------------------
          | TOTAL ENERGY              -45.247687288489 Eh   |
          | GRADIENT NORM               0.000661041482 Eh/α |
          | HOMO-LUMO GAP               0.515207677362 eV   |
           -------------------------------------------------

 * finished run on 2024/12/20 at 01:52:41.219
