   * xtb version 6.7.1 (edcfbbe) compiled by 'conda@3ef47c1a292c' on 2024-11-25

   ID    Z sym.   atoms
    1    9 F      1, 3-7
    2   15 P      2

          program call               : xtb A031.xyz --opt --namespace A031 --charge -1
          :  Hamiltonian                  GFN2-xTB          :
 * total energy  :   -31.3396069 Eh     change       -0.8171241E-13 Eh
 * total energy  :   -31.3856347 Eh     change       -0.4602783E-01 Eh
 * total energy  :   -31.4041158 Eh     change       -0.1848108E-01 Eh
 * total energy  :   -31.4084945 Eh     change       -0.4378667E-02 Eh
 * total energy  :   -31.4101231 Eh     change       -0.1628556E-02 Eh
 * total energy  :   -31.4128839 Eh     change       -0.2760863E-02 Eh
 * total energy  :   -31.4176227 Eh     change       -0.4738742E-02 Eh
 * total energy  :   -31.4240489 Eh     change       -0.6426275E-02 Eh
 * total energy  :   -31.4417078 Eh     change       -0.1765885E-01 Eh
 * total energy  :   -31.4576340 Eh     change       -0.1592619E-01 Eh
 * total energy  :   -31.4587314 Eh     change       -0.1097423E-02 Eh
 * total energy  :   -31.4612094 Eh     change       -0.2477989E-02 Eh
 * total energy  :   -31.4617903 Eh     change       -0.5809084E-03 Eh
 * total energy  :   -31.4624962 Eh     change       -0.7058623E-03 Eh
 * total energy  :   -31.4626763 Eh     change       -0.1801459E-03 Eh
 * total energy  :   -31.4626876 Eh     change       -0.1134974E-04 Eh
 * total energy  :   -31.4626900 Eh     change       -0.2396112E-05 Eh
   *** GEOMETRY OPTIMIZATION CONVERGED AFTER 17 ITERATIONS ***

 final structure:
================
7
 xtb: 6.7.1 (edcfbbe)
F            1.19399987774503       -0.02410009407285       -0.12217697240886
P            2.77001168857848        0.34288838363795        0.06436808325452
F            2.37452714094464        1.48730404262963        1.15395371982597
F            4.34601626958975        0.70987715978883        0.25097109737688
F            3.16545666442442       -0.80150786021344       -1.02525138254043
F            2.65563707059605        1.44241425179254       -1.13198107003390
F            2.88443128812163       -0.75665588356266        1.26069652452583

          :  Hamiltonian                  GFN2-xTB          :
         :: total energy             -31.462690042921 Eh    ::
         :: gradient norm              0.000031134432 Eh/a0 ::
         :: HOMO-LUMO gap             14.211497305237 eV    ::
         :: SCC energy               -31.496410787940 Eh    ::
         :: -> dispersion             -0.004608943380 Eh    ::
         :: repulsion energy           0.033720745019 Eh    ::

    * Orbital Energies and Occupations

         #    Occupation            Energy/Eh            Energy/eV
      -------------------------------------------------------------
         1        2.0000           -0.6508486             -17.7105
       ...           ...                  ...                  ...
        12        2.0000           -0.3503364              -9.5331
        13        2.0000           -0.3503363              -9.5331
        14        2.0000           -0.3262591              -8.8780
        15        2.0000           -0.3262591              -8.8780
        16        2.0000           -0.3262585              -8.8779
        17        2.0000           -0.3200666              -8.7095
        18        2.0000           -0.3200659              -8.7094
        19        2.0000           -0.3200659              -8.7094
        20        2.0000           -0.3188099              -8.6753
        21        2.0000           -0.3188099              -8.6753
        22        2.0000           -0.3180811              -8.6554
        23        2.0000           -0.3180810              -8.6554
        24        2.0000           -0.3180810              -8.6554 (HOMO)
        25                          0.2041819               5.5561 (LUMO)
        26                          0.3861642              10.5081
        27                          0.3861646              10.5081
        28                          0.3861768              10.5084
        29                          0.5046579              13.7324
        30                          0.5046581              13.7324
        31                          0.5046634              13.7326
        32                          2.5427473              69.1917
        33                          2.5427486              69.1917
      -------------------------------------------------------------
                  HL-Gap            0.5222629 Eh           14.2115 eV

     #   Z          covCN         q      C6AA      α(0)
     1   9 F        0.740    -0.329    12.667     4.203
     2  15 P        4.440     0.976   123.593    19.970
     3   9 F        0.740    -0.329    12.667     4.203
     4   9 F        0.740    -0.329    12.667     4.203
     5   9 F        0.740    -0.329    12.667     4.203
     6   9 F        0.740    -0.329    12.667     4.203
     7   9 F        0.740    -0.329    12.667     4.203

Wiberg/Mayer (AO) data.
largest (>0.10) Wiberg bond orders for each atom

     #   Z sym  total        # sym  WBO       # sym  WBO       # sym  WBO
 ---------------------------------------------------------------------------
     1   9 F    1.068 --     2 P    0.929
     2  15 P    5.575 --     5 F    0.929     6 F    0.929     7 F    0.929
                             4 F    0.929     3 F    0.929     1 F    0.929
     3   9 F    1.068 --     2 P    0.929
     4   9 F    1.068 --     2 P    0.929
     5   9 F    1.068 --     2 P    0.929
     6   9 F    1.068 --     2 P    0.929
     7   9 F    1.068 --     2 P    0.929
 ---------------------------------------------------------------------------

molecular dipole:
                 x           y           z       tot (Debye)
 q only:       -5.235      -0.648      -0.122
   full:       -5.235      -0.648      -0.122      13.410

           -------------------------------------------------
          | TOTAL ENERGY              -31.462690042921 Eh   |
          | GRADIENT NORM               0.000031134432 Eh/α |
          | HOMO-LUMO GAP              14.211497305237 eV   |
           -------------------------------------------------

 * finished run on 2024/12/20 at 01:52:41.345
