   * xtb version 6.7.1 (edcfbbe) compiled by 'conda@3ef47c1a292c' on 2024-11-25

   ID    Z sym.   atoms
    1    7 N      1, 5, 7
    2    8 O      2, 3
    3    6 C      4, 6, 8
    4    1 H      9, 10

          program call               : xtb A033.xyz --opt --namespace A033 --charge -1
          :  Hamiltonian                  GFN2-xTB          :
 * total energy  :   -24.4878679 Eh     change       -0.2149001E-09 Eh
 * total energy  :   -24.4955758 Eh     change       -0.7707926E-02 Eh
 * total energy  :   -24.4964558 Eh     change       -0.8799955E-03 Eh
 * total energy  :   -24.4965731 Eh     change       -0.1172954E-03 Eh
 * total energy  :   -24.4965944 Eh     change       -0.2125388E-04 Eh
 * total energy  :   -24.4965936 Eh     change        0.7419250E-06 Eh
 * total energy  :   -24.4966002 Eh     change       -0.6581364E-05 Eh
 * total energy  :   -24.4966005 Eh     change       -0.2603443E-06 Eh
   *** GEOMETRY OPTIMIZATION CONVERGED AFTER 8 ITERATIONS ***

 final structure:
================
10
 xtb: 6.7.1 (edcfbbe)
N            1.09664814717922        0.03041448641205        0.09526715839075
O            0.48179330096257       -1.03921855117369        0.09738859280389
O            0.50057268167529        1.12189070988514        0.08790031356531
C            2.46539891415358        0.04826751061518        0.10067753826186
N            3.24844986833628       -1.07579897268925        0.10964332895905
C            4.46588880498234       -0.58740662153115        0.11208114993446
N            4.57269864908582        0.76469990514666        0.10510635123825
C            3.30988518477308        1.17551253896841        0.09800005099160
H            5.33904637917071       -1.21850702435463        0.11896852851578
H            3.03350806968112        2.21305601872129        0.09134698733905

          :  Hamiltonian                  GFN2-xTB          :
         :: total energy             -24.496600472479 Eh    ::
         :: gradient norm              0.000177772489 Eh/a0 ::
         :: HOMO-LUMO gap              2.154341945514 eV    ::
         :: SCC energy               -24.715061612671 Eh    ::
         :: -> dispersion             -0.008216943172 Eh    ::
         :: repulsion energy           0.218461140192 Eh    ::

    * Orbital Energies and Occupations

         #    Occupation            Energy/Eh            Energy/eV
      -------------------------------------------------------------
         1        2.0000           -0.5807599             -15.8033
       ...           ...                  ...                  ...
         9        2.0000           -0.4155502             -11.3077
        10        2.0000           -0.3939247             -10.7192
        11        2.0000           -0.3737872             -10.1713
        12        2.0000           -0.3473314              -9.4514
        13        2.0000           -0.3369953              -9.1701
        14        2.0000           -0.3090466              -8.4096
        15        2.0000           -0.2862928              -7.7904
        16        2.0000           -0.2664790              -7.2513
        17        2.0000           -0.2617154              -7.1216
        18        2.0000           -0.2557729              -6.9599
        19        2.0000           -0.2362320              -6.4282
        20        2.0000           -0.2274322              -6.1887
        21        2.0000           -0.2133744              -5.8062 (HOMO)
        22                         -0.1342038              -3.6519 (LUMO)
        23                         -0.0191057              -0.5199
        24                          0.0103254               0.2810
        25                          0.2028569               5.5200
        26                          0.2872406               7.8162
        27                          0.3134400               8.5291
        28                          0.3515549               9.5663
        29                          0.4204822              11.4419
        30                          0.4597965              12.5117
        31                          0.5072189              13.8021
        32                          0.6076273              16.5344
       ...                                ...                  ...
        34                          0.7365706              20.0431
      -------------------------------------------------------------
                  HL-Gap            0.0791706 Eh            2.1543 eV

     #   Z          covCN         q      C6AA      α(0)
     1   7 N        2.758     0.482    14.235     5.604
     2   8 O        0.930    -0.460    22.881     6.415
     3   8 O        0.933    -0.498    23.689     6.527
     4   6 C        3.167     0.038    26.792     8.458
     5   7 N        1.883    -0.333    29.488     8.050
     6   6 C        3.318     0.118    23.492     7.722
     7   7 N        1.896    -0.347    29.862     8.102
     8   6 C        3.139     0.031    27.073     8.515
     9   1 H        0.926    -0.027     3.578     2.958
    10   1 H        0.926    -0.005     3.145     2.773

Wiberg/Mayer (AO) data.
largest (>0.10) Wiberg bond orders for each atom

     #   Z sym  total        # sym  WBO       # sym  WBO       # sym  WBO
 ---------------------------------------------------------------------------
     1   7 N    3.894 --     2 O    1.363     3 O    1.330     4 C    1.118
     2   8 O    1.839 --     1 N    1.363     3 O    0.273
     3   8 O    1.792 --     1 N    1.330     2 O    0.273
     4   6 C    3.932 --     8 C    1.300     5 N    1.231     1 N    1.118
     5   7 N    2.994 --     6 C    1.537     4 C    1.231
     6   6 C    3.974 --     5 N    1.537     7 N    1.299     9 H    0.965
     7   7 N    2.986 --     8 C    1.477     6 C    1.299
     8   6 C    3.983 --     7 N    1.477     4 C    1.300    10 H    0.970
     9   1 H    0.999 --     6 C    0.965
    10   1 H    1.000 --     8 C    0.970
 ---------------------------------------------------------------------------

molecular dipole:
                 x           y           z       tot (Debye)
 q only:       -3.864       0.036      -0.187
   full:       -3.933       0.200      -0.188      10.022

           -------------------------------------------------
          | TOTAL ENERGY              -24.496600472479 Eh   |
          | GRADIENT NORM               0.000177772489 Eh/α |
          | HOMO-LUMO GAP               2.154341945514 eV   |
           -------------------------------------------------

 * finished run on 2024/12/20 at 01:52:42.811
