   * xtb version 6.7.1 (edcfbbe) compiled by 'conda@3ef47c1a292c' on 2024-11-25

   ID    Z sym.   atoms
    1    9 F      1, 10-12
    2    6 C      2, 3, 9
    3    8 O      4, 6-8
    4   16 S      5
    5    1 H      13-15

          program call               : xtb A034.xyz --opt --namespace A034 --charge -1
          :  Hamiltonian                  GFN2-xTB          :
 * total energy  :   -46.6939266 Eh     change       -0.3342393E-10 Eh
 * total energy  :   -46.7003355 Eh     change       -0.6408949E-02 Eh
 * total energy  :   -46.7044757 Eh     change       -0.4140139E-02 Eh
 * total energy  :   -46.7054684 Eh     change       -0.9926994E-03 Eh
 * total energy  :   -46.7059354 Eh     change       -0.4670590E-03 Eh
 * total energy  :   -46.7061648 Eh     change       -0.2294229E-03 Eh
 * total energy  :   -46.7062730 Eh     change       -0.1081261E-03 Eh
 * total energy  :   -46.7063511 Eh     change       -0.7810733E-04 Eh
 * total energy  :   -46.7063932 Eh     change       -0.4208709E-04 Eh
 * total energy  :   -46.7064277 Eh     change       -0.3450909E-04 Eh
 * total energy  :   -46.7066615 Eh     change       -0.3304967E-04 Eh
 * total energy  :   -46.7066977 Eh     change       -0.3625575E-04 Eh
 * total energy  :   -46.7067201 Eh     change       -0.2239118E-04 Eh
 * total energy  :   -46.7067513 Eh     change       -0.3114883E-04 Eh
 * total energy  :   -46.7067683 Eh     change       -0.1697862E-04 Eh
 * total energy  :   -46.7067843 Eh     change       -0.1598761E-04 Eh
 * total energy  :   -46.7067956 Eh     change       -0.1130254E-04 Eh
 * total energy  :   -46.7068035 Eh     change       -0.7975439E-05 Eh
 * total energy  :   -46.7068068 Eh     change       -0.3314293E-05 Eh
   *** GEOMETRY OPTIMIZATION CONVERGED AFTER 24 ITERATIONS ***

 final structure:
================
15
 xtb: 6.7.1 (edcfbbe)
F            1.51450883518354        0.61188177766033        0.75403547250336
C            2.56806970515912        0.02576372703902        0.12814944833551
C            2.56068986413786       -1.50194325480734        0.31276986671847
O            2.41238690426988       -2.18717697771272       -0.87011614749081
S            0.76933330796276       -2.47053395220334       -1.16061523888207
O            0.26273175875196       -2.93629665723047        0.11121928005602
O            0.25902218712844       -1.16798416967069       -1.55375150143165
O            0.78886955923254       -3.44529358845292       -2.21584320829232
C            2.54552989828359        0.44075620093648       -1.34808142062878
F            2.51589961937859        1.79651067160298       -1.45848197426538
F            3.68476057660965        0.05879542571325       -1.96713410352000
F            3.65988988328269        0.57125265129266        0.75863242979099
H            3.51503944507006       -1.78761399581393        0.77330907713591
H            1.72338650879982       -1.76651699109029        0.97384389529762
H            1.65640194674925       -0.00748086726351       -1.82885587532672

          :  Hamiltonian                  GFN2-xTB          :
         :: total energy             -46.706806847592 Eh    ::
         :: gradient norm              0.000846210786 Eh/a0 ::
         :: HOMO-LUMO gap              8.414654748637 eV    ::
         :: SCC energy               -46.889868718729 Eh    ::
         :: -> dispersion             -0.014901619049 Eh    ::
         :: repulsion energy           0.183061871137 Eh    ::

    * Orbital Energies and Occupations

         #    Occupation            Energy/Eh            Energy/eV
      -------------------------------------------------------------
         1        2.0000           -0.7515648             -20.4511
       ...           ...                  ...                  ...
        25        2.0000           -0.4062478             -11.0546
        26        2.0000           -0.3932408             -10.7006
        27        2.0000           -0.3707656             -10.0890
        28        2.0000           -0.3629711              -9.8769
        29        2.0000           -0.3593702              -9.7790
        30        2.0000           -0.3534945              -9.6191
        31        2.0000           -0.3195857              -8.6964
        32        2.0000           -0.3022498              -8.2246
        33        2.0000           -0.2998513              -8.1594
        34        2.0000           -0.2952131              -8.0332
        35        2.0000           -0.2829449              -7.6993
        36        2.0000           -0.2817606              -7.6671
        37        2.0000           -0.2715544              -7.3894 (HOMO)
        38                          0.0376785               1.0253 (LUMO)
        39                          0.0765664               2.0835
        40                          0.0899733               2.4483
        41                          0.1105675               3.0087
        42                          0.1352546               3.6805
        43                          0.1544597               4.2031
        44                          0.1805640               4.9134
        45                          0.2026142               5.5134
        46                          0.2155544               5.8655
        47                          0.2531238               6.8878
        48                          0.2722410               7.4081
       ...                                ...                  ...
        56                          1.4106566              38.3859
      -------------------------------------------------------------
                  HL-Gap            0.3092329 Eh            8.4147 eV

     #   Z          covCN         q      C6AA      α(0)
     1   9 F        0.789    -0.216    11.401     3.988
     2   6 C        3.517     0.304    17.128     6.108
     3   6 C        3.916     0.081    19.177     6.224
     4   8 O        1.706    -0.489    22.629     6.423
     5  16 S        3.671     1.480    93.942    16.313
     6   8 O        0.860    -0.691    28.456     7.152
     7   8 O        0.860    -0.713    29.057     7.227
     8   8 O        0.860    -0.654    27.484     7.029
     9   6 C        3.468     0.284    18.013     6.373
    10   9 F        0.787    -0.218    11.419     3.992
    11   9 F        0.787    -0.211    11.353     3.980
    12   9 F        0.788    -0.228    11.532     4.011
    13   1 H        0.924     0.060     2.198     2.319
    14   1 H        0.923     0.078     2.001     2.212
    15   1 H        0.922     0.132     1.522     1.929

Wiberg/Mayer (AO) data.
largest (>0.10) Wiberg bond orders for each atom

     #   Z sym  total        # sym  WBO       # sym  WBO       # sym  WBO
 ---------------------------------------------------------------------------
     1   9 F    1.050 --     2 C    0.948
     2   6 C    3.851 --     1 F    0.948     3 C    0.946     9 C    0.945
                            12 F    0.931
     3   6 C    3.951 --     4 O    1.027    13 H    0.961    14 H    0.946
                             2 C    0.946
     4   8 O    2.021 --     3 C    1.027     5 S    0.742
     5  16 S    5.025 --     8 O    1.472     6 O    1.416     7 O    1.373
                             4 O    0.742
     6   8 O    1.752 --     5 S    1.416     8 O    0.123     7 O    0.118
     7   8 O    1.739 --     5 S    1.373     8 O    0.121     6 O    0.118
     8   8 O    1.786 --     5 S    1.472     6 O    0.123     7 O    0.121
     9   6 C    3.837 --    11 F    0.959    10 F    0.950     2 C    0.945
                            15 H    0.904
    10   9 F    1.042 --     9 C    0.950
    11   9 F    1.051 --     9 C    0.959
    12   9 F    1.034 --     2 C    0.931
    13   1 H    0.996 --     3 C    0.961
    14   1 H    0.994 --     3 C    0.946
    15   1 H    0.983 --     9 C    0.904
 ---------------------------------------------------------------------------

molecular dipole:
                 x           y           z       tot (Debye)
 q only:       -2.145       3.072       2.168
   full:       -2.049       3.023       2.272      10.933

           -------------------------------------------------
          | TOTAL ENERGY              -46.706806847592 Eh   |
          | GRADIENT NORM               0.000846210786 Eh/α |
          | HOMO-LUMO GAP               8.414654748637 eV   |
           -------------------------------------------------

 * finished run on 2024/12/20 at 01:52:43.153
