   * xtb version 6.7.1 (edcfbbe) compiled by 'conda@3ef47c1a292c' on 2024-11-25

   ID    Z sym.   atoms
    1    6 C      1-4, 9-12
    2    8 O      5, 7, 8, 13
    3   15 P      6
    4    1 H      14-31

          program call               : xtb A035.xyz --opt --namespace A035 --charge -1
          :  Hamiltonian                  GFN2-xTB          :
 * total energy  :   -45.3103999 Eh     change       -0.1776286E-09 Eh
 * total energy  :   -45.3781882 Eh     change       -0.6778829E-01 Eh
 * total energy  :   -45.4399193 Eh     change       -0.6173109E-01 Eh
 * total energy  :   -45.4608433 Eh     change       -0.2092404E-01 Eh
 * total energy  :   -45.4713485 Eh     change       -0.1050513E-01 Eh
 * total energy  :   -45.4814193 Eh     change       -0.1007079E-01 Eh
 * total energy  :   -45.4870029 Eh     change       -0.5583628E-02 Eh
 * total energy  :   -45.4895571 Eh     change       -0.2554223E-02 Eh
 * total energy  :   -45.4916393 Eh     change       -0.2082188E-02 Eh
 * total energy  :   -45.4935643 Eh     change       -0.1925001E-02 Eh
 * total energy  :   -45.4983746 Eh     change       -0.3289051E-04 Eh
 * total energy  :   -45.4983865 Eh     change       -0.1191568E-04 Eh
 * total energy  :   -45.4984226 Eh     change       -0.3611122E-04 Eh
 * total energy  :   -45.4984374 Eh     change       -0.1482174E-04 Eh
 * total energy  :   -45.4984507 Eh     change       -0.1326320E-04 Eh
 * total energy  :   -45.4984596 Eh     change       -0.8919526E-05 Eh
 * total energy  :   -45.4984658 Eh     change       -0.6217644E-05 Eh
 * total energy  :   -45.4984715 Eh     change       -0.5736684E-05 Eh
 * total energy  :   -45.4984763 Eh     change       -0.4719030E-05 Eh
   *** GEOMETRY OPTIMIZATION CONVERGED AFTER 34 ITERATIONS ***

 final structure:
================
31
 xtb: 6.7.1 (edcfbbe)
C           -1.06398554131542       -0.00396050782850       -1.30137027630316
C           -1.50719939287056        0.58591836461999        0.04130185798566
C           -0.90597457649054        1.96768637438692        0.29014119755414
C           -1.53911403383541        3.05310940251384       -0.57129502720593
O            0.31137509470670       -0.20400825347047       -1.32478371335296
P            1.24194525547477        0.83746613804798       -2.27351293110501
O            2.40274715050720        1.26090020007703       -1.45457227707678
O            1.70976706497165       -0.24467733086894       -3.45117312521119
C            2.20005877983480       -1.51507092753671       -3.14897901261756
C            3.47493951367530       -1.51708938605210       -2.29667159169763
C            3.19806228733301       -1.67151355077264       -0.80333755608831
C            2.81043405045150       -3.09352668819623       -0.41404601445765
O            0.35743414396481        1.80282041308361       -2.96623449537107
H           -1.35137516697965        0.66579511538091       -2.11894258204657
H           -1.55745379416384       -0.97928859646711       -1.45153780904764
H           -2.60098382465488        0.63469138337267        0.06379581059974
H           -1.17726614695394       -0.09399523907227        0.83247314026277
H           -1.02380417472405        2.22097803217290        1.35000241552445
H            0.16057091532534        1.91957109790306        0.06313534797500
H           -2.62681335188387        3.03687729384303       -0.48723433901966
H           -1.18145226085015        4.03390872865740       -0.26252801925752
H           -1.25409625497491        2.90335186411222       -1.60834480313614
H            1.41957041448185       -2.10330765834821       -2.64765440415829
H            2.40466025682527       -1.98121403116596       -4.12594480008062
H            4.14004956511341       -2.32023057008904       -2.63534850249271
H            3.96742591016396       -0.55952729408576       -2.46377785640106
H            4.09409640277984       -1.38282766704518       -0.24725607567266
H            2.40295413122100       -0.97740606708874       -0.53872943996776
H            2.64651656521947       -3.16224966013693        0.66030788255155
H            1.89368328739091       -3.39628140545929       -0.91468236251239
H            3.59720773025925       -3.79855957448649       -0.68764063816710

          :  Hamiltonian                  GFN2-xTB          :
         :: total energy             -45.498476262001 Eh    ::
         :: gradient norm              0.000402920388 Eh/a0 ::
         :: HOMO-LUMO gap              9.334117361414 eV    ::
         :: SCC energy               -45.954409030625 Eh    ::
         :: -> dispersion             -0.028594953868 Eh    ::
         :: repulsion energy           0.455932768625 Eh    ::

    * Orbital Energies and Occupations

         #    Occupation            Energy/Eh            Energy/eV
      -------------------------------------------------------------
         1        2.0000           -0.5422989             -14.7567
       ...           ...                  ...                  ...
        28        2.0000           -0.3182198              -8.6592
        29        2.0000           -0.3130875              -8.5195
        30        2.0000           -0.3083654              -8.3910
        31        2.0000           -0.3045230              -8.2865
        32        2.0000           -0.3008398              -8.1863
        33        2.0000           -0.2971156              -8.0849
        34        2.0000           -0.2924281              -7.9574
        35        2.0000           -0.2684458              -7.3048
        36        2.0000           -0.2638547              -7.1799
        37        2.0000           -0.2466525              -6.7118
        38        2.0000           -0.2422798              -6.5928
        39        2.0000           -0.2360246              -6.4226
        40        2.0000           -0.2241440              -6.0993 (HOMO)
        41                          0.1188785               3.2348 (LUMO)
        42                          0.1274125               3.4671
        43                          0.1821036               4.9553
        44                          0.2113251               5.7504
        45                          0.2148718               5.8470
        46                          0.2175891               5.9209
        47                          0.2285180               6.2183
        48                          0.2341026               6.3703
        49                          0.2414364               6.5698
        50                          0.2513637               6.8400
        51                          0.2556792               6.9574
       ...                                ...                  ...
        75                          1.4881072              40.4935
      -------------------------------------------------------------
                  HL-Gap            0.3430225 Eh            9.3341 eV

     #   Z          covCN         q      C6AA      α(0)
     1   6 C        3.886     0.104    18.821     6.168
     2   6 C        3.800    -0.058    21.615     6.620
     3   6 C        3.800    -0.048    21.430     6.591
     4   6 C        3.751    -0.101    22.500     6.765
     5   8 O        1.658    -0.341    19.743     5.998
     6  15 P        3.601     0.418   142.987    21.480
     7   8 O        0.808    -0.513    24.109     6.582
     8   8 O        1.658    -0.325    19.455     5.954
     9   6 C        3.833     0.107    18.799     6.169
    10   6 C        3.800    -0.062    21.684     6.630
    11   6 C        3.801    -0.058    21.621     6.620
    12   6 C        3.751    -0.093    22.333     6.740
    13   8 O        0.808    -0.511    24.050     6.574
    14   1 H        0.924     0.043     2.404     2.424
    15   1 H        0.923    -0.009     3.211     2.802
    16   1 H        0.924     0.010     2.898     2.662
    17   1 H        0.924     0.022     2.698     2.569
    18   1 H        0.924     0.005     2.973     2.697
    19   1 H        0.924     0.066     2.130     2.282
    20   1 H        0.924     0.010     2.890     2.658
    21   1 H        0.925     0.019     2.744     2.590
    22   1 H        0.925     0.069     2.102     2.267
    23   1 H        0.923     0.017     2.786     2.610
    24   1 H        0.923     0.004     2.993     2.706
    25   1 H        0.924     0.004     2.996     2.707
    26   1 H        0.925     0.058     2.218     2.329
    27   1 H        0.924     0.020     2.729     2.583
    28   1 H        0.925     0.084     1.940     2.178
    29   1 H        0.925     0.020     2.739     2.588
    30   1 H        0.925     0.026     2.647     2.544
    31   1 H        0.924     0.013     2.843     2.637

Wiberg/Mayer (AO) data.
largest (>0.10) Wiberg bond orders for each atom

     #   Z sym  total        # sym  WBO       # sym  WBO       # sym  WBO
 ---------------------------------------------------------------------------
     1   6 C    3.957 --     2 C    0.994     5 O    0.991    15 H    0.969
                            14 H    0.959
     2   6 C    3.999 --     3 C    1.009     1 C    0.994    17 H    0.979
                            16 H    0.977
     3   6 C    3.995 --     4 C    1.020     2 C    1.009    18 H    0.980
                            19 H    0.967
     4   6 C    3.995 --     3 C    1.020    21 H    0.988    20 H    0.988
                            22 H    0.978
     5   8 O    2.235 --     6 P    1.021     1 C    0.991
     6  15 P    5.753 --    13 O    1.816     7 O    1.805     8 O    1.056
                             5 O    1.021
     7   8 O    2.055 --     6 P    1.805
     8   8 O    2.253 --     6 P    1.056     9 C    0.986
     9   6 C    3.960 --    10 C    0.993     8 O    0.986    24 H    0.971
                            23 H    0.966
    10   6 C    3.996 --    11 C    1.010     9 C    0.993    25 H    0.979
                            26 H    0.974
    11   6 C    3.991 --    12 C    1.019    10 C    1.010    27 H    0.979
                            28 H    0.963
    12   6 C    3.999 --    11 C    1.019    29 H    0.989    31 H    0.988
                            30 H    0.985
    13   8 O    2.063 --     6 P    1.816
    14   1 H    0.998 --     1 C    0.959
    15   1 H    1.000 --     1 C    0.969
    16   1 H    1.000 --     2 C    0.977
    17   1 H    0.999 --     2 C    0.979
    18   1 H    1.000 --     3 C    0.980
    19   1 H    0.996 --     3 C    0.967
    20   1 H    1.000 --     4 C    0.988
    21   1 H    1.000 --     4 C    0.988
    22   1 H    0.995 --     4 C    0.978
    23   1 H    1.000 --     9 C    0.966
    24   1 H    1.000 --     9 C    0.971
    25   1 H    1.000 --    10 C    0.979
    26   1 H    0.997 --    10 C    0.974
    27   1 H    1.000 --    11 C    0.979
    28   1 H    0.993 --    11 C    0.963
    29   1 H    1.000 --    12 C    0.989
    30   1 H    0.999 --    12 C    0.985
    31   1 H    1.000 --    12 C    0.988
 ---------------------------------------------------------------------------

molecular dipole:
                 x           y           z       tot (Debye)
 q only:       -2.501      -2.074       4.210
   full:       -2.654      -2.476       4.194      14.096

           -------------------------------------------------
          | TOTAL ENERGY              -45.498476262001 Eh   |
          | GRADIENT NORM               0.000402920388 Eh/α |
          | HOMO-LUMO GAP               9.334117361414 eV   |
           -------------------------------------------------

 * finished run on 2024/12/20 at 01:52:44.040
