   * xtb version 6.7.1 (edcfbbe) compiled by 'conda@3ef47c1a292c' on 2024-11-25

   ID    Z sym.   atoms
    1    6 C      1, 12
    2    9 F      2-4, 13-15
    3   16 S      5, 9
    4    8 O      6, 7, 10, 11
    5    7 N      8

          program call               : xtb A036.xyz --opt --namespace A036 --charge -1
          :  Hamiltonian                  GFN2-xTB          :
 * total energy  :   -58.6133676 Eh     change       -0.6160406E-11 Eh
 * total energy  :   -58.6212189 Eh     change       -0.7851353E-02 Eh
 * total energy  :   -58.6243408 Eh     change       -0.3121845E-02 Eh
 * total energy  :   -58.6245372 Eh     change       -0.1963970E-03 Eh
 * total energy  :   -58.6246296 Eh     change       -0.9245928E-04 Eh
 * total energy  :   -58.6246474 Eh     change       -0.1772668E-04 Eh
 * total energy  :   -58.6246586 Eh     change       -0.1126638E-04 Eh
 * total energy  :   -58.6246624 Eh     change       -0.3777409E-05 Eh
   *** GEOMETRY OPTIMIZATION CONVERGED AFTER 8 ITERATIONS ***

 final structure:
================
15
 xtb: 6.7.1 (edcfbbe)
C            1.27643718428836        0.15927936336859       -0.32649331439262
F            0.44266588799719       -0.55966713029766        0.44318347159147
F            0.95919128893211        1.44310006202571       -0.13663752160759
F            0.97649771422153       -0.13717389428919       -1.59410374066565
S            3.09020454194454       -0.19295836782325        0.07689458536722
O            3.22475510935395        0.20649740604958        1.44467180055619
O            3.24600675926088       -1.58604892636016       -0.21121831070448
N            3.69486312913181        0.79853764213450       -0.98800541614961
S            5.26821062443142        0.84965774911355       -1.05675648447511
O            5.91809893439134        1.47881981211807        0.05238938739440
O            5.90484959318377       -0.30514773375070       -1.61283576831912
C            5.36826045745462        2.13816331437202       -2.43748027442024
F            4.74725023869148        1.73390687935396       -3.54912955087674
F            4.81761946795276        3.30161215440167       -2.07971864899357
F            6.63848906876425        2.40569166958328       -2.78262021430458

          :  Hamiltonian                  GFN2-xTB          :
         :: total energy             -58.624662409591 Eh    ::
         :: gradient norm              0.000751554641 Eh/a0 ::
         :: HOMO-LUMO gap              6.698943784495 eV    ::
         :: SCC energy               -58.826838401300 Eh    ::
         :: -> dispersion             -0.019281112640 Eh    ::
         :: repulsion energy           0.202175991709 Eh    ::

    * Orbital Energies and Occupations

         #    Occupation            Energy/Eh            Energy/eV
      -------------------------------------------------------------
         1        2.0000           -0.7855528             -21.3760
       ...           ...                  ...                  ...
        34        2.0000           -0.4222557             -11.4902
        35        2.0000           -0.4152045             -11.2983
        36        2.0000           -0.4061264             -11.0513
        37        2.0000           -0.3875699             -10.5463
        38        2.0000           -0.3596760              -9.7873
        39        2.0000           -0.3541002              -9.6356
        40        2.0000           -0.3518558              -9.5745
        41        2.0000           -0.3386968              -9.2164
        42        2.0000           -0.3370325              -9.1711
        43        2.0000           -0.3322175              -9.0401
        44        2.0000           -0.3169782              -8.6254
        45        2.0000           -0.3165075              -8.6126
        46        2.0000           -0.2902579              -7.8983 (HOMO)
        47                         -0.0440762              -1.1994 (LUMO)
        48                         -0.0347738              -0.9462
        49                         -0.0187306              -0.5097
        50                          0.0217111               0.5908
        51                          0.0329761               0.8973
        52                          0.0464375               1.2636
        53                          0.0933592               2.5404
        54                          0.1008767               2.7450
        55                          0.1718177               4.6754
        56                          0.1922269               5.2308
        57                          0.1961654               5.3379
       ...                                ...                  ...
        70                          1.3836608              37.6513
      -------------------------------------------------------------
                  HL-Gap            0.2461817 Eh            6.6989 eV

     #   Z          covCN         q      C6AA      α(0)
     1   6 C        3.311     0.364    19.360     7.023
     2   9 F        0.798    -0.196    11.193     3.952
     3   9 F        0.798    -0.191    11.139     3.943
     4   9 F        0.798    -0.191    11.139     3.942
     5  16 S        4.187     1.216   100.681    16.888
     6   8 O        0.860    -0.584    25.721     6.800
     7   8 O        0.860    -0.584    25.728     6.801
     8   7 N        1.829    -0.670    40.335     9.411
     9  16 S        4.187     1.216   100.682    16.888
    10   8 O        0.860    -0.584    25.730     6.801
    11   8 O        0.860    -0.584    25.719     6.799
    12   6 C        3.311     0.364    19.360     7.023
    13   9 F        0.798    -0.191    11.139     3.943
    14   9 F        0.798    -0.191    11.139     3.943
    15   9 F        0.798    -0.196    11.192     3.952

Wiberg/Mayer (AO) data.
largest (>0.10) Wiberg bond orders for each atom

     #   Z sym  total        # sym  WBO       # sym  WBO       # sym  WBO
 ---------------------------------------------------------------------------
     1   6 C    3.768 --     4 F    0.965     3 F    0.965     2 F    0.956
                             5 S    0.667
     2   9 F    1.081 --     1 C    0.956
     3   9 F    1.092 --     1 C    0.965
     4   9 F    1.092 --     1 C    0.965
     5  16 S    5.036 --     7 O    1.580     6 O    1.580     8 N    1.095
                             1 C    0.667
     6   8 O    1.896 --     5 S    1.580     7 O    0.115     8 N    0.102
     7   8 O    1.895 --     5 S    1.580     6 O    0.115     8 N    0.102
     8   7 N    2.735 --     5 S    1.095     9 S    1.095     7 O    0.102
                            11 O    0.102    10 O    0.102     6 O    0.102
     9  16 S    5.036 --    11 O    1.580    10 O    1.580     8 N    1.095
                            12 C    0.667
    10   8 O    1.895 --     9 S    1.580    11 O    0.115     8 N    0.102
    11   8 O    1.896 --     9 S    1.580    10 O    0.115     8 N    0.102
    12   6 C    3.768 --    13 F    0.965    14 F    0.965    15 F    0.956
                             9 S    0.667
    13   9 F    1.092 --    12 C    0.965
    14   9 F    1.092 --    12 C    0.965
    15   9 F    1.082 --    12 C    0.956
 ---------------------------------------------------------------------------

molecular dipole:
                 x           y           z       tot (Debye)
 q only:       -7.851      -0.662       0.976
   full:       -7.918      -0.600       0.905      20.313

           -------------------------------------------------
          | TOTAL ENERGY              -58.624662409591 Eh   |
          | GRADIENT NORM               0.000751554641 Eh/α |
          | HOMO-LUMO GAP               6.698943784495 eV   |
           -------------------------------------------------

 * finished run on 2024/12/20 at 01:52:44.217
