   * xtb version 6.7.1 (edcfbbe) compiled by 'conda@3ef47c1a292c' on 2024-11-25

   ID    Z sym.   atoms
    1    9 F      1, 3, 4, 6, 7, 16-18
    2    6 C      2, 5, 15
    3   16 S      8, 12
    4    8 O      9, 10, 13, 14
    5    7 N      11

          program call               : xtb A037.xyz --opt --namespace A037 --charge -1
          :  Hamiltonian                  GFN2-xTB          :
 * total energy  :   -70.2140548 Eh     change       -0.7720757E-10 Eh
 * total energy  :   -70.2241722 Eh     change       -0.1011736E-01 Eh
 * total energy  :   -70.2282814 Eh     change       -0.4109249E-02 Eh
 * total energy  :   -70.2285493 Eh     change       -0.2678336E-03 Eh
 * total energy  :   -70.2287161 Eh     change       -0.1668134E-03 Eh
 * total energy  :   -70.2287315 Eh     change       -0.1538753E-04 Eh
 * total energy  :   -70.2287471 Eh     change       -0.1567744E-04 Eh
 * total energy  :   -70.2287525 Eh     change       -0.5343994E-05 Eh
 * total energy  :   -70.2287473 Eh     change        0.5211241E-05 Eh
 * total energy  :   -70.2287581 Eh     change       -0.1077786E-04 Eh
 * total energy  :   -70.2287604 Eh     change       -0.2296053E-05 Eh
   *** GEOMETRY OPTIMIZATION CONVERGED AFTER 11 ITERATIONS ***

 final structure:
================
18
 xtb: 6.7.1 (edcfbbe)
F            0.98652396034267       -0.22644566576793        0.53296573805559
C            2.30251309066608       -0.06346413327737        0.27681470861111
F            2.50054271072557       -0.56601110718853       -0.93889459240941
F            2.49918795428009        1.25052185525209        0.20967890039156
C            3.19473967113831       -0.72515383893440        1.32439809081851
F            2.89439316544538       -0.20849288595169        2.53657580477557
F            2.89372019162943       -2.04156731673892        1.37909910398844
S            5.06036293929675       -0.50185963646463        0.96965566896019
O            5.23633651841096       -1.14457749151828       -0.29473568233579
O            5.23700062188504        0.91595420332455        1.00638235227136
N            5.56994447942933       -1.29507981911513        2.22539283724973
S            7.13700749958107       -1.39247595903173        2.38052601637079
O            7.79938290104367       -2.23911684209524        1.43686088314045
O            7.79827933765277       -0.17607447035824        2.73986075247179
C            7.12172320375720       -2.40142747359953        3.97793418314686
F            6.50614784838912       -1.75855070513655        4.97313073368921
F            6.50633909317300       -3.57640794468639        3.82502205951213
F            8.36583481315360       -2.67126076871208        4.40537244129198

          :  Hamiltonian                  GFN2-xTB          :
         :: total energy             -70.228760354353 Eh    ::
         :: gradient norm              0.000434793630 Eh/a0 ::
         :: HOMO-LUMO gap              6.388076350879 eV    ::
         :: SCC energy               -70.465569343763 Eh    ::
         :: -> dispersion             -0.023380819887 Eh    ::
         :: repulsion energy           0.236808989410 Eh    ::

    * Orbital Energies and Occupations

         #    Occupation            Energy/Eh            Energy/eV
      -------------------------------------------------------------
         1        2.0000           -0.8158122             -22.1994
       ...           ...                  ...                  ...
        43        2.0000           -0.4214626             -11.4686
        44        2.0000           -0.4194076             -11.4127
        45        2.0000           -0.4073465             -11.0845
        46        2.0000           -0.3940872             -10.7237
        47        2.0000           -0.3670179              -9.9871
        48        2.0000           -0.3606921              -9.8149
        49        2.0000           -0.3585587              -9.7569
        50        2.0000           -0.3463381              -9.4243
        51        2.0000           -0.3430495              -9.3349
        52        2.0000           -0.3392999              -9.2328
        53        2.0000           -0.3243249              -8.8253
        54        2.0000           -0.3231600              -8.7936
        55        2.0000           -0.2967985              -8.0763 (HOMO)
        56                         -0.0620411              -1.6882 (LUMO)
        57                         -0.0406291              -1.1056
        58                         -0.0292267              -0.7953
        59                          0.0131652               0.3582
        60                          0.0305912               0.8324
        61                          0.0310374               0.8446
        62                          0.0620303               1.6879
        63                          0.0692026               1.8831
        64                          0.1056310               2.8744
        65                          0.1195973               3.2544
        66                          0.1529399               4.1617
       ...                                ...                  ...
        82                          1.3866587              37.7329
      -------------------------------------------------------------
                  HL-Gap            0.2347575 Eh            6.3881 eV

     #   Z          covCN         q      C6AA      α(0)
     1   9 F        0.791    -0.188    11.114     3.938
     2   6 C        3.341     0.483    17.262     6.569
     3   9 F        0.792    -0.179    11.016     3.921
     4   9 F        0.792    -0.179    11.016     3.921
     5   6 C        3.500     0.191    18.952     6.460
     6   9 F        0.797    -0.193    11.165     3.947
     7   9 F        0.797    -0.193    11.165     3.947
     8  16 S        4.191     1.242    99.982    16.829
     9   8 O        0.860    -0.587    25.789     6.809
    10   8 O        0.860    -0.587    25.789     6.809
    11   7 N        1.829    -0.662    40.018     9.374
    12  16 S        4.194     1.219   100.596    16.881
    13   8 O        0.860    -0.582    25.670     6.793
    14   8 O        0.860    -0.582    25.670     6.793
    15   6 C        3.312     0.366    19.334     7.017
    16   9 F        0.798    -0.188    11.115     3.938
    17   9 F        0.798    -0.188    11.115     3.938
    18   9 F        0.798    -0.194    11.175     3.949

Wiberg/Mayer (AO) data.
largest (>0.10) Wiberg bond orders for each atom

     #   Z sym  total        # sym  WBO       # sym  WBO       # sym  WBO
 ---------------------------------------------------------------------------
     1   9 F    1.078 --     2 C    0.945
     2   6 C    3.861 --     3 F    0.970     4 F    0.970     1 F    0.945
                             5 C    0.927
     3   9 F    1.096 --     2 C    0.970
     4   9 F    1.096 --     2 C    0.970
     5   6 C    3.791 --     6 F    0.964     7 F    0.964     2 C    0.927
                             8 S    0.655
     6   9 F    1.075 --     5 C    0.964
     7   9 F    1.075 --     5 C    0.964
     8  16 S    5.018 --     9 O    1.577    10 O    1.577    11 N    1.103
                             5 C    0.655
     9   8 O    1.895 --     8 S    1.577    10 O    0.114    11 N    0.106
    10   8 O    1.895 --     8 S    1.577     9 O    0.114    11 N    0.106
    11   7 N    2.738 --     8 S    1.103    12 S    1.085    10 O    0.106
                             9 O    0.106    13 O    0.101    14 O    0.101
    12  16 S    5.031 --    14 O    1.582    13 O    1.582    11 N    1.085
                            15 C    0.667
    13   8 O    1.898 --    12 S    1.582    14 O    0.115    11 N    0.101
    14   8 O    1.898 --    12 S    1.582    13 O    0.115    11 N    0.101
    15   6 C    3.774 --    16 F    0.967    17 F    0.967    18 F    0.957
                            12 S    0.667
    16   9 F    1.094 --    15 C    0.967
    17   9 F    1.094 --    15 C    0.967
    18   9 F    1.083 --    15 C    0.957
 ---------------------------------------------------------------------------

molecular dipole:
                 x           y           z       tot (Debye)
 q only:      -11.076       1.713      -3.044
   full:      -11.170       1.668      -2.973      29.683

           -------------------------------------------------
          | TOTAL ENERGY              -70.228760354353 Eh   |
          | GRADIENT NORM               0.000434793630 Eh/α |
          | HOMO-LUMO GAP               6.388076350879 eV   |
           -------------------------------------------------

 * finished run on 2024/12/20 at 01:52:44.508
