   * xtb version 6.7.1 (edcfbbe) compiled by 'conda@3ef47c1a292c' on 2024-11-25

   ID    Z sym.   atoms
    1    6 C      1-9
    2    8 O      10-12
    3    1 H      13-19

          program call               : xtb A038.xyz --opt --namespace A038 --charge -1
          :  Hamiltonian                  GFN2-xTB          :
 * total energy  :   -35.2359237 Eh     change       -0.3559251E-09 Eh
 * total energy  :   -35.2386348 Eh     change       -0.2711026E-02 Eh
 * total energy  :   -35.2389028 Eh     change       -0.2680257E-03 Eh
 * total energy  :   -35.2389834 Eh     change       -0.8063204E-04 Eh
 * total energy  :   -35.2391868 Eh     change       -0.2033771E-03 Eh
 * total energy  :   -35.2392565 Eh     change       -0.6971382E-04 Eh
 * total energy  :   -35.2393384 Eh     change       -0.8192099E-04 Eh
 * total energy  :   -35.2394152 Eh     change       -0.7672522E-04 Eh
 * total energy  :   -35.2394968 Eh     change       -0.8161889E-04 Eh
 * total energy  :   -35.2395922 Eh     change       -0.9544989E-04 Eh
 * total energy  :   -35.2397827 Eh     change       -0.1799944E-04 Eh
 * total energy  :   -35.2397909 Eh     change       -0.8278040E-05 Eh
 * total energy  :   -35.2396956 Eh     change        0.9533702E-04 Eh
 * total energy  :   -35.2398048 Eh     change       -0.1091772E-03 Eh
 * total energy  :   -35.2398047 Eh     change        0.9368492E-07 Eh
 * total energy  :   -35.2398106 Eh     change       -0.5913302E-05 Eh
 * total energy  :   -35.2398139 Eh     change       -0.3326879E-05 Eh
 * total energy  :   -35.2398177 Eh     change       -0.3829067E-05 Eh
 * total energy  :   -35.2398209 Eh     change       -0.3142460E-05 Eh
   *** GEOMETRY OPTIMIZATION CONVERGED AFTER 22 ITERATIONS ***

 final structure:
================
19
 xtb: 6.7.1 (edcfbbe)
C            1.09630114348373        0.05101627701632        0.03847794615241
C            0.31120632768617       -0.87176328680752       -0.93277772713785
C           -0.92065014365031       -0.57608543923141       -1.34655230251109
C           -1.76226149825807       -1.32702600870455       -2.26130363978047
C           -1.37368928539543       -2.54341570760738       -2.82817614519664
C           -2.20356004237831       -3.23125270389629       -3.69070779432631
C           -3.45354843317380       -2.72258109783094       -4.01632516622405
C           -3.86221515722175       -1.51434523062296       -3.46681845581681
C           -3.02631220943094       -0.83495158901648       -2.60504028556690
O           -4.30530557814012       -3.38571151890485       -4.87296463048173
O            0.46799379051617        1.01109781501286        0.50658062857136
O            2.27527778002733       -0.28770223332999        0.22871982312269
H            0.85143246561873       -1.75203472228472       -1.26107610066987
H           -1.35066921022911        0.33772799662794       -0.94999821225560
H           -0.40602441948121       -2.95622184102877       -2.58705987373195
H           -1.88277521963061       -4.17530743238941       -4.11876734819747
H           -4.83613696480072       -1.12648968049135       -3.72663576088758
H           -3.35300541481711        0.10444804406298       -2.18147415703701
H           -3.87471793072478       -4.19994164057361       -5.15754079802510

          :  Hamiltonian                  GFN2-xTB          :
         :: total energy             -35.239820890386 Eh    ::
         :: gradient norm              0.000544375636 Eh/a0 ::
         :: HOMO-LUMO gap              1.283796253720 eV    ::
         :: SCC energy               -35.715092415794 Eh    ::
         :: -> dispersion             -0.016946650819 Eh    ::
         :: repulsion energy           0.475271525408 Eh    ::

    * Orbital Energies and Occupations

         #    Occupation            Energy/Eh            Energy/eV
      -------------------------------------------------------------
         1        2.0000           -0.6226672             -16.9436
       ...           ...                  ...                  ...
        19        2.0000           -0.3645200              -9.9191
        20        2.0000           -0.3403946              -9.2626
        21        2.0000           -0.3312292              -9.0132
        22        2.0000           -0.3249362              -8.8420
        23        2.0000           -0.3182486              -8.6600
        24        2.0000           -0.3065086              -8.3405
        25        2.0000           -0.3011345              -8.1943
        26        2.0000           -0.2996569              -8.1541
        27        2.0000           -0.2849607              -7.7542
        28        2.0000           -0.2463898              -6.7046
        29        2.0000           -0.2046564              -5.5690
        30        2.0000           -0.1903385              -5.1794
        31        2.0000           -0.1772318              -4.8227 (HOMO)
        32                         -0.1300532              -3.5389 (LUMO)
        33                         -0.1236489              -3.3647
        34                         -0.0535548              -1.4573
        35                          0.0232400               0.6324
        36                          0.0588258               1.6007
        37                          0.1505051               4.0955
        38                          0.2015270               5.4838
        39                          0.2318651               6.3094
        40                          0.2474570               6.7336
        41                          0.2580930               7.0231
        42                          0.2800792               7.6213
       ...                                ...                  ...
        55                          0.9180421              24.9812
      -------------------------------------------------------------
                  HL-Gap            0.0471786 Eh            1.2838 eV

     #   Z          covCN         q      C6AA      α(0)
     1   6 C        2.686     0.366    20.794     7.463
     2   6 C        2.884    -0.068    29.701     8.935
     3   6 C        2.898    -0.050    29.238     8.866
     4   6 C        2.967     0.009    27.807     8.650
     5   6 C        2.926    -0.039    28.969     8.827
     6   6 C        2.916    -0.074    29.839     8.958
     7   6 C        2.847     0.126    25.224     8.231
     8   6 C        2.915    -0.059    29.470     8.902
     9   6 C        2.930    -0.041    29.026     8.835
    10   8 O        1.658    -0.420    21.249     6.223
    11   8 O        0.856    -0.588    25.818     6.812
    12   8 O        0.857    -0.590    25.863     6.818
    13   1 H        0.925     0.009     2.911     2.668
    14   1 H        0.925     0.042     2.428     2.437
    15   1 H        0.926     0.033     2.543     2.494
    16   1 H        0.925     0.004     2.985     2.702
    17   1 H        0.926     0.027     2.632     2.537
    18   1 H        0.926     0.029     2.597     2.520
    19   1 H        0.805     0.284     0.772     1.380

Wiberg/Mayer (AO) data.
largest (>0.10) Wiberg bond orders for each atom

     #   Z sym  total        # sym  WBO       # sym  WBO       # sym  WBO
 ---------------------------------------------------------------------------
     1   6 C    3.948 --    11 O    1.516    12 O    1.510     2 C    0.899
     2   6 C    3.940 --     3 C    1.824    13 H    0.967     1 C    0.899
     3   6 C    3.986 --     2 C    1.824     4 C    1.108    14 H    0.958
     4   6 C    3.986 --     5 C    1.361     9 C    1.355     3 C    1.108
     5   6 C    3.991 --     6 C    1.462     4 C    1.361    15 H    0.966
                             8 C    0.102
     6   6 C    3.985 --     5 C    1.462     7 C    1.374    16 H    0.966
     7   6 C    3.925 --     6 C    1.374     8 C    1.367    10 O    1.032
     8   6 C    3.988 --     9 C    1.470     7 C    1.367    17 H    0.969
                             5 C    0.102
     9   6 C    3.988 --     8 C    1.470     4 C    1.355    18 H    0.969
    10   8 O    2.069 --     7 C    1.032    19 H    0.899
    11   8 O    1.853 --     1 C    1.516    12 O    0.243
    12   8 O    1.845 --     1 C    1.510    11 O    0.243
    13   1 H    1.000 --     2 C    0.967
    14   1 H    0.998 --     3 C    0.958
    15   1 H    0.999 --     5 C    0.966
    16   1 H    1.000 --     6 C    0.966
    17   1 H    0.999 --     8 C    0.969
    18   1 H    0.999 --     9 C    0.969
    19   1 H    0.919 --    10 O    0.899
 ---------------------------------------------------------------------------

molecular dipole:
                 x           y           z       tot (Debye)
 q only:       -1.249      -0.236       0.278
   full:       -1.316      -0.643      -0.017       3.722

           -------------------------------------------------
          | TOTAL ENERGY              -35.239820890386 Eh   |
          | GRADIENT NORM               0.000544375636 Eh/α |
          | HOMO-LUMO GAP               1.283796253720 eV   |
           -------------------------------------------------

 * finished run on 2024/12/20 at 01:52:44.963
