   * xtb version 6.7.1 (edcfbbe) compiled by 'conda@3ef47c1a292c' on 2024-11-25

   ID    Z sym.   atoms
    1    6 C      1-4
    2    8 O      5, 6
    3    1 H      7-11

          program call               : xtb A039.xyz --opt --namespace A039 --charge -1
          :  Hamiltonian                  GFN2-xTB          :
 * total energy  :   -19.4397044 Eh     change       -0.3531397E-11 Eh
 * total energy  :   -19.4414887 Eh     change       -0.1784371E-02 Eh
 * total energy  :   -19.4416389 Eh     change       -0.1501300E-03 Eh
 * total energy  :   -19.4416606 Eh     change       -0.2175478E-04 Eh
 * total energy  :   -19.4416689 Eh     change       -0.8265149E-05 Eh
 * total energy  :   -19.4416630 Eh     change        0.5924967E-05 Eh
 * total energy  :   -19.4416710 Eh     change       -0.8046071E-05 Eh
 * total energy  :   -19.4416717 Eh     change       -0.7351718E-06 Eh
   *** GEOMETRY OPTIMIZATION CONVERGED AFTER 8 ITERATIONS ***

 final structure:
================
11
 xtb: 6.7.1 (edcfbbe)
C            1.04363757363372       -0.04997224125972        0.05442340234468
C            0.50589383679071        0.25898192318974       -1.31283771203517
C           -0.25616205118021       -0.53247077921345       -2.04636518960920
C           -0.77271340576130       -0.14133270203606       -3.45354397320233
O           -1.47917355714734       -1.00153926098982       -4.00727318502357
O           -0.43345157122446        0.97616339300957       -3.87482718390076
H            0.72055217714011       -1.03752458566116        0.38225254026743
H            0.69653223035941        0.68854806756483        0.78113072092950
H            2.13602750543920       -0.02375750738929        0.05405141137954
H            0.77740826040446        1.22511829395086       -1.72194836531534
H           -0.56368099845429       -1.51286460116550       -1.69456246583477

          :  Hamiltonian                  GFN2-xTB          :
         :: total energy             -19.441671742428 Eh    ::
         :: gradient norm              0.000321666622 Eh/a0 ::
         :: HOMO-LUMO gap              2.927084903467 eV    ::
         :: SCC energy               -19.663240601616 Eh    ::
         :: -> dispersion             -0.006416666401 Eh    ::
         :: repulsion energy           0.221568859189 Eh    ::

    * Orbital Energies and Occupations

         #    Occupation            Energy/Eh            Energy/eV
      -------------------------------------------------------------
         1        2.0000           -0.4781757             -13.0118
       ...           ...                  ...                  ...
         5        2.0000           -0.3943869             -10.7318
         6        2.0000           -0.3719192             -10.1204
         7        2.0000           -0.3632558              -9.8847
         8        2.0000           -0.3428187              -9.3286
         9        2.0000           -0.3340029              -9.0887
        10        2.0000           -0.3091713              -8.4130
        11        2.0000           -0.3065934              -8.3428
        12        2.0000           -0.2861996              -7.7879
        13        2.0000           -0.2701186              -7.3503
        14        2.0000           -0.2346740              -6.3858
        15        2.0000           -0.1891963              -5.1483
        16        2.0000           -0.1744523              -4.7471
        17        2.0000           -0.1606061              -4.3703 (HOMO)
        18                         -0.0530377              -1.4432 (LUMO)
        19                          0.0676960               1.8421
        20                          0.2409386               6.5563
        21                          0.2803521               7.6288
        22                          0.2943415               8.0094
        23                          0.3328110               9.0562
        24                          0.3352952               9.1238
        25                          0.3611856               9.8284
        26                          0.5423641              14.7585
        27                          0.6245270              16.9942
        28                          0.7310478              19.8928
        29                          0.9274533              25.2373
      -------------------------------------------------------------
                  HL-Gap            0.1075684 Eh            2.9271 eV

     #   Z          covCN         q      C6AA      α(0)
     1   6 C        3.753    -0.087    22.221     6.722
     2   6 C        2.885    -0.048    29.191     8.858
     3   6 C        2.883    -0.086    30.161     9.004
     4   6 C        2.686     0.364    20.829     7.469
     5   8 O        0.857    -0.601    26.140     6.855
     6   8 O        0.856    -0.601    26.133     6.854
     7   1 H        0.925     0.015     2.807     2.620
     8   1 H        0.924     0.011     2.879     2.653
     9   1 H        0.924     0.011     2.879     2.653
    10   1 H        0.925     0.027     2.634     2.538
    11   1 H        0.925    -0.004     3.132     2.768

Wiberg/Mayer (AO) data.
largest (>0.10) Wiberg bond orders for each atom

     #   Z sym  total        # sym  WBO       # sym  WBO       # sym  WBO
 ---------------------------------------------------------------------------
     1   6 C    3.996 --     2 C    1.020     7 H    0.987     8 H    0.978
                             9 H    0.978
     2   6 C    3.984 --     3 C    1.937     1 C    1.020    10 H    0.963
     3   6 C    3.960 --     2 C    1.937    11 H    0.969     4 C    0.903
     4   6 C    3.947 --     6 O    1.512     5 O    1.508     3 C    0.903
     5   8 O    1.835 --     4 C    1.508     6 O    0.237
     6   8 O    1.839 --     4 C    1.512     5 O    0.237
     7   1 H    1.000 --     1 C    0.987
     8   1 H    0.999 --     1 C    0.978
     9   1 H    0.999 --     1 C    0.978
    10   1 H    0.999 --     2 C    0.963
    11   1 H    1.000 --     3 C    0.969
 ---------------------------------------------------------------------------

molecular dipole:
                 x           y           z       tot (Debye)
 q only:        1.586       0.061       6.972
   full:        1.731      -0.018       7.336      19.159

           -------------------------------------------------
          | TOTAL ENERGY              -19.441671742428 Eh   |
          | GRADIENT NORM               0.000321666622 Eh/α |
          | HOMO-LUMO GAP               2.927084903467 eV   |
           -------------------------------------------------

 * finished run on 2024/12/20 at 01:52:45.021
