   * xtb version 6.7.1 (edcfbbe) compiled by 'conda@3ef47c1a292c' on 2024-11-25

   ID    Z sym.   atoms
    1    6 C      1, 2, 4
    2    8 O      3, 5, 6
    3    1 H      7-11

          program call               : xtb A040.xyz --opt --namespace A040 --charge -1
          :  Hamiltonian                  GFN2-xTB          :
 * total energy  :   -21.4072653 Eh     change       -0.1256204E-09 Eh
 * total energy  :   -21.4104356 Eh     change       -0.3170315E-02 Eh
 * total energy  :   -21.4111440 Eh     change       -0.7083891E-03 Eh
 * total energy  :   -21.4112357 Eh     change       -0.9173329E-04 Eh
 * total energy  :   -21.4114488 Eh     change       -0.2131063E-03 Eh
 * total energy  :   -21.4114935 Eh     change       -0.4470046E-04 Eh
 * total energy  :   -21.4115253 Eh     change       -0.3179908E-04 Eh
 * total energy  :   -21.4115446 Eh     change       -0.1928563E-04 Eh
 * total energy  :   -21.4115542 Eh     change       -0.9591875E-05 Eh
 * total energy  :   -21.4115552 Eh     change       -0.1024979E-05 Eh
   *** GEOMETRY OPTIMIZATION CONVERGED AFTER 10 ITERATIONS ***

 final structure:
================
11
 xtb: 6.7.1 (edcfbbe)
C            1.13117383724934        0.02192654309568       -0.19297936917164
C            0.28537514632223        1.03965748973258       -1.07258996797297
O           -0.56433501383290        0.27196096689907       -1.89064891985944
C           -0.49051576632536        1.98645328933392       -0.15878008732291
O            0.81023273431390       -1.16666269539570       -0.39465560100218
O            1.97870550161369        0.49465042479596        0.56590573984985
H            0.97857941176397        1.62209937185408       -1.70230687051787
H           -0.34380175625292       -0.64368817318308       -1.56186735323787
H            0.20777660488868        2.45278502515698        0.53307244886904
H           -1.00863492403615        2.75758267860477       -0.73193177246708
H           -1.22679577570447        1.41902507910575        0.40874175283308

          :  Hamiltonian                  GFN2-xTB          :
         :: total energy             -21.411555246989 Eh    ::
         :: gradient norm              0.000693335509 Eh/a0 ::
         :: HOMO-LUMO gap              5.183754185882 eV    ::
         :: SCC energy               -21.577065964461 Eh    ::
         :: -> dispersion             -0.006583840229 Eh    ::
         :: repulsion energy           0.165510717473 Eh    ::

    * Orbital Energies and Occupations

         #    Occupation            Energy/Eh            Energy/eV
      -------------------------------------------------------------
         1        2.0000           -0.5087713             -13.8444
       ...           ...                  ...                  ...
         6        2.0000           -0.3991607             -10.8617
         7        2.0000           -0.3673955              -9.9973
         8        2.0000           -0.3633376              -9.8869
         9        2.0000           -0.3459072              -9.4126
        10        2.0000           -0.3271818              -8.9031
        11        2.0000           -0.3196208              -8.6973
        12        2.0000           -0.3080747              -8.3831
        13        2.0000           -0.2989633              -8.1352
        14        2.0000           -0.2936198              -7.9898
        15        2.0000           -0.2370092              -6.4493
        16        2.0000           -0.2163847              -5.8881
        17        2.0000           -0.2053748              -5.5885
        18        2.0000           -0.1792464              -4.8775 (HOMO)
        19                          0.0112531               0.3062 (LUMO)
        20                          0.2496723               6.7939
        21                          0.2635358               7.1712
        22                          0.2915535               7.9336
        23                          0.3105324               8.4500
        24                          0.3306326               8.9970
        25                          0.3556447               9.6776
        26                          0.3998246              10.8798
        27                          0.4102212              11.1627
        28                          0.5927188              16.1287
        29                          0.8649059              23.5353
      -------------------------------------------------------------
                  HL-Gap            0.1904995 Eh            5.1838 eV

     #   Z          covCN         q      C6AA      α(0)
     1   6 C        2.680     0.351    21.042     7.506
     2   6 C        3.716     0.076    19.423     6.296
     3   8 O        1.651    -0.508    23.066     6.483
     4   6 C        3.751    -0.090    22.287     6.733
     5   8 O        0.857    -0.589    25.844     6.816
     6   8 O        0.856    -0.578    25.596     6.783
     7   1 H        0.923    -0.021     3.446     2.903
     8   1 H        0.800     0.306     0.704     1.318
     9   1 H        0.925     0.027     2.626     2.534
    10   1 H        0.924     0.005     2.972     2.696
    11   1 H        0.925     0.021     2.723     2.580

Wiberg/Mayer (AO) data.
largest (>0.10) Wiberg bond orders for each atom

     #   Z sym  total        # sym  WBO       # sym  WBO       # sym  WBO
 ---------------------------------------------------------------------------
     1   6 C    3.943 --     6 O    1.560     5 O    1.489     2 C    0.861
     2   6 C    3.934 --     3 O    1.003     4 C    0.995     7 H    0.959
                             1 C    0.861
     3   8 O    1.915 --     2 C    1.003     8 H    0.816
     4   6 C    3.998 --     2 C    0.995    11 H    0.989    10 H    0.987
                             9 H    0.987
     5   8 O    1.894 --     1 C    1.489     6 O    0.224
     6   8 O    1.866 --     1 C    1.560     5 O    0.224
     7   1 H    1.000 --     2 C    0.959
     8   1 H    0.906 --     3 O    0.816
     9   1 H    0.999 --     4 C    0.987
    10   1 H    1.000 --     4 C    0.987
    11   1 H    1.000 --     4 C    0.989
 ---------------------------------------------------------------------------

molecular dipole:
                 x           y           z       tot (Debye)
 q only:       -1.932       0.094       0.580
   full:       -1.954       0.233       0.583       5.216

           -------------------------------------------------
          | TOTAL ENERGY              -21.411555246989 Eh   |
          | GRADIENT NORM               0.000693335509 Eh/α |
          | HOMO-LUMO GAP               5.183754185882 eV   |
           -------------------------------------------------

 * finished run on 2024/12/20 at 01:52:45.175
