   * xtb version 6.7.1 (edcfbbe) compiled by 'conda@3ef47c1a292c' on 2024-11-25

   ID    Z sym.   atoms
    1    7 N      1-3
    2    6 C      4, 5
    3    1 H      6, 7

          program call               : xtb A041.xyz --opt --namespace A041 --charge -1
          :  Hamiltonian                  GFN2-xTB          :
 * total energy  :   -14.1230253 Eh     change       -0.2945555E-10 Eh
 * total energy  :   -14.1292389 Eh     change       -0.6213548E-02 Eh
 * total energy  :   -14.1298901 Eh     change       -0.6512216E-03 Eh
 * total energy  :   -14.1301133 Eh     change       -0.2231887E-03 Eh
 * total energy  :   -14.1301576 Eh     change       -0.4433984E-04 Eh
 * total energy  :   -14.1301673 Eh     change       -0.9722396E-05 Eh
 * total energy  :   -14.1301688 Eh     change       -0.1501481E-05 Eh
   *** GEOMETRY OPTIMIZATION CONVERGED AFTER 7 ITERATIONS ***

 final structure:
================
7
 xtb: 6.7.1 (edcfbbe)
N            1.04183539822610       -0.45642590667920        0.00219184120482
N            0.76774183823288        0.86491262698951        0.00246796690735
N           -0.51984958128522        0.98377916660591       -0.00021133195878
C           -1.20062663422273       -0.23655860846658       -0.00233636591939
C           -0.15450014281771       -1.15228509740529       -0.00083349431105
H            1.99956978281169       -0.79589246333755        0.00401488330245
H           -0.11399066094501       -2.24029971770680       -0.00148349922540

          :  Hamiltonian                  GFN2-xTB          :
         :: total energy             -14.130168834761 Eh    ::
         :: gradient norm              0.000656113748 Eh/a0 ::
         :: HOMO-LUMO gap              2.129100117688 eV    ::
         :: SCC energy               -14.263257900395 Eh    ::
         :: -> dispersion             -0.004669859278 Eh    ::
         :: repulsion energy           0.133089065634 Eh    ::

    * Orbital Energies and Occupations

         #    Occupation            Energy/Eh            Energy/eV
      -------------------------------------------------------------
         1        2.0000           -0.4535870             -12.3427
         2        2.0000           -0.4074675             -11.0878
         3        2.0000           -0.3882945             -10.5660
         4        2.0000           -0.3363009              -9.1512
         5        2.0000           -0.3153160              -8.5802
         6        2.0000           -0.3035074              -8.2589
         7        2.0000           -0.3008194              -8.1857
         8        2.0000           -0.2330882              -6.3427
         9        2.0000           -0.1839005              -5.0042
        10        2.0000           -0.1796074              -4.8874
        11        2.0000           -0.1323630              -3.6018
        12        2.0000           -0.1172810              -3.1914
        13        2.0000           -0.0726287              -1.9763 (HOMO)
        14                          0.0056143               0.1528 (LUMO)
        15                          0.1004734               2.7340
        16                          0.2143681               5.8333
        17                          0.3156786               8.5901
        18                          0.3913544              10.6493
        19                          0.4358448              11.8599
        20                          0.4980761              13.5533
        21                          0.6317566              17.1910
        22                          0.7701582              20.9571
      -------------------------------------------------------------
                  HL-Gap            0.0782430 Eh            2.1291 eV

     #   Z          covCN         q      C6AA      α(0)
     1   7 N        2.888    -0.084    22.871     7.103
     2   7 N        2.066    -0.243    27.069     7.718
     3   7 N        2.090    -0.276    27.842     7.828
     4   6 C        1.975    -0.310    40.651    10.296
     5   6 C        2.982    -0.019    28.474     8.753
     6   1 H        0.860     0.050     2.336     2.394
     7   1 H        0.925    -0.118     6.234     3.904

Wiberg/Mayer (AO) data.
largest (>0.10) Wiberg bond orders for each atom

     #   Z sym  total        # sym  WBO       # sym  WBO       # sym  WBO
 ---------------------------------------------------------------------------
     1   7 N    3.528 --     2 N    1.179     5 C    1.154     6 H    0.954
                             3 N    0.175
     2   7 N    2.944 --     3 N    1.477     1 N    1.179     5 C    0.205
     3   7 N    3.007 --     2 N    1.477     4 C    1.286     1 N    0.175
     4   6 C    2.958 --     5 C    1.512     3 N    1.286
     5   6 C    3.866 --     4 C    1.512     1 N    1.154     7 H    0.954
                             2 N    0.205
     6   1 H    0.998 --     1 N    0.954
     7   1 H    0.986 --     5 C    0.954
 ---------------------------------------------------------------------------

molecular dipole:
                 x           y           z       tot (Debye)
 q only:        0.676      -0.234       0.001
   full:        1.616      -0.973       0.002       4.794

           -------------------------------------------------
          | TOTAL ENERGY              -14.130168834761 Eh   |
          | GRADIENT NORM               0.000656113748 Eh/α |
          | HOMO-LUMO GAP               2.129100117688 eV   |
           -------------------------------------------------

 * finished run on 2024/12/20 at 01:52:45.215
