   * xtb version 6.7.1 (edcfbbe) compiled by 'conda@3ef47c1a292c' on 2024-11-25

   ID    Z sym.   atoms
    1    6 C      1-4
    2    5 B      5
    3    9 F      6-8
    4    1 H      9-17

          program call               : xtb A042.xyz --opt --namespace A042 --charge -1
          :  Hamiltonian                  GFN2-xTB          :
 * total energy  :   -27.6444513 Eh     change       -0.1844214E-10 Eh
 * total energy  :   -28.7527049 Eh     change       -0.1108254E+01 Eh
 * total energy  :   -28.8372107 Eh     change       -0.8450580E-01 Eh
 * total energy  :   -28.8668684 Eh     change       -0.2965763E-01 Eh
 * total energy  :   -28.8925226 Eh     change       -0.2565430E-01 Eh
 * total energy  :   -28.9121565 Eh     change       -0.1963384E-01 Eh
 * total energy  :   -28.9315987 Eh     change       -0.1944224E-01 Eh
 * total energy  :   -28.9489287 Eh     change       -0.1732996E-01 Eh
 * total energy  :   -28.9620863 Eh     change       -0.1315762E-01 Eh
 * total energy  :   -28.9671103 Eh     change       -0.5023939E-02 Eh
 * total energy  :   -28.9744862 Eh     change       -0.3303178E-04 Eh
 * total energy  :   -28.9745206 Eh     change       -0.3447753E-04 Eh
 * total energy  :   -28.9746175 Eh     change       -0.9686804E-04 Eh
 * total energy  :   -28.9746877 Eh     change       -0.7016522E-04 Eh
 * total energy  :   -28.9747164 Eh     change       -0.2872595E-04 Eh
 * total energy  :   -28.9747759 Eh     change       -0.5953612E-04 Eh
 * total energy  :   -28.9747884 Eh     change       -0.1247525E-04 Eh
 * total energy  :   -28.9747949 Eh     change       -0.6521875E-05 Eh
 * total energy  :   -28.9747977 Eh     change       -0.2788788E-05 Eh
   *** GEOMETRY OPTIMIZATION CONVERGED AFTER 28 ITERATIONS ***

 final structure:
================
17
 xtb: 6.7.1 (edcfbbe)
C            1.16913926314631        0.02945626948421       -0.02349933849537
C            0.53785614663630       -0.25460266375354        1.34435988876067
C            1.05505190104752        0.63185047808149        2.47913283296454
C            0.52408795979434        2.05666521376598        2.40971029706908
B            0.54686165762057        1.27797750493586       -0.91069624706721
F            0.63798849541303        0.97858734974621       -2.29084809993628
F           -0.81127009562726        1.52710585701456       -0.62971878531716
F            1.24755222269556        2.49169378762214       -0.71887250389339
H            1.05067037222025       -0.87066324959116       -0.63586499729366
H            2.24656666298979        0.17552214430124        0.10198661376475
H           -0.54489046776419       -0.13401340010200        1.26446012157296
H            0.73455552022474       -1.30023807565317        1.62315037144276
H            0.76379165699144        0.18565924030851        3.43991445014380
H            2.14864529645882        0.65127127533777        2.44597427794239
H           -0.56098525816998        2.05783734909103        2.48691953655529
H            0.93463160885694        2.66401330873311        3.21767970970339
H            0.79147705746587        2.50380761067768        1.46014187208354

          :  Hamiltonian                  GFN2-xTB          :
         :: total energy             -28.974797725176 Eh    ::
         :: gradient norm              0.000450966967 Eh/a0 ::
         :: HOMO-LUMO gap             11.887299625502 eV    ::
         :: SCC energy               -29.190892934695 Eh    ::
         :: -> dispersion             -0.010916150924 Eh    ::
         :: repulsion energy           0.216095209519 Eh    ::

    * Orbital Energies and Occupations

         #    Occupation            Energy/Eh            Energy/eV
      -------------------------------------------------------------
         1        2.0000           -0.5701801             -15.5154
       ...           ...                  ...                  ...
        13        2.0000           -0.3089450              -8.4068
        14        2.0000           -0.3059229              -8.3246
        15        2.0000           -0.3003581              -8.1732
        16        2.0000           -0.2980723              -8.1110
        17        2.0000           -0.2859497              -7.7811
        18        2.0000           -0.2750779              -7.4853
        19        2.0000           -0.2721115              -7.4045
        20        2.0000           -0.2623167              -7.1380
        21        2.0000           -0.2602245              -7.0811
        22        2.0000           -0.2547031              -6.9308
        23        2.0000           -0.2519469              -6.8558
        24        2.0000           -0.2512379              -6.8365
        25        2.0000           -0.2039304              -5.5492 (HOMO)
        26                          0.2329198               6.3381 (LUMO)
        27                          0.2445988               6.6559
        28                          0.2646486               7.2015
        29                          0.2787302               7.5846
        30                          0.2858458               7.7783
        31                          0.3158882               8.5958
        32                          0.3381312               9.2010
        33                          0.3469216               9.4402
        34                          0.3667477               9.9797
        35                          0.3843953              10.4599
        36                          0.4012913              10.9197
       ...                                ...                  ...
        41                          0.5792059              15.7610
      -------------------------------------------------------------
                  HL-Gap            0.4368502 Eh           11.8873 eV

     #   Z          covCN         q      C6AA      α(0)
     1   6 C        3.708    -0.151    23.565     6.938
     2   6 C        3.798    -0.045    21.377     6.583
     3   6 C        3.798    -0.040    21.296     6.571
     4   6 C        3.752    -0.103    22.537     6.770
     5   5 B        3.043     0.572    13.773     6.190
     6   9 F        0.720    -0.444    14.104     4.435
     7   9 F        0.720    -0.438    14.018     4.421
     8   9 F        0.720    -0.443    14.081     4.431
     9   1 H        0.924    -0.011     3.259     2.823
    10   1 H        0.924    -0.013     3.285     2.834
    11   1 H        0.924     0.025     2.656     2.549
    12   1 H        0.923    -0.016     3.355     2.864
    13   1 H        0.923    -0.009     3.212     2.803
    14   1 H        0.924     0.013     2.845     2.638
    15   1 H        0.925     0.025     2.663     2.552
    16   1 H        0.924     0.000     3.055     2.733
    17   1 H        0.925     0.078     2.002     2.213

Wiberg/Mayer (AO) data.
largest (>0.10) Wiberg bond orders for each atom

     #   Z sym  total        # sym  WBO       # sym  WBO       # sym  WBO
 ---------------------------------------------------------------------------
     1   6 C    3.931 --     2 C    1.010     9 H    0.982    10 H    0.982
                             5 B    0.887
     2   6 C    3.994 --     1 C    1.010     3 C    1.007    12 H    0.979
                            11 H    0.978
     3   6 C    3.999 --     4 C    1.021     2 C    1.007    13 H    0.980
                            14 H    0.978
     4   6 C    3.993 --     3 C    1.021    16 H    0.989    15 H    0.988
                            17 H    0.979
     5   5 B    3.302 --     1 C    0.887     7 F    0.806     6 F    0.797
                             8 F    0.795
     6   9 F    0.870 --     5 B    0.797
     7   9 F    0.881 --     5 B    0.806
     8   9 F    0.876 --     5 B    0.795
     9   1 H    1.000 --     1 C    0.982
    10   1 H    1.000 --     1 C    0.982
    11   1 H    0.999 --     2 C    0.978
    12   1 H    1.000 --     2 C    0.979
    13   1 H    1.000 --     3 C    0.980
    14   1 H    1.000 --     3 C    0.978
    15   1 H    0.999 --     4 C    0.988
    16   1 H    1.000 --     4 C    0.989
    17   1 H    0.994 --     4 C    0.979
 ---------------------------------------------------------------------------

molecular dipole:
                 x           y           z       tot (Debye)
 q only:       -0.872      -2.701       1.652
   full:       -0.793      -2.889       1.826       8.918

           -------------------------------------------------
          | TOTAL ENERGY              -28.974797725176 Eh   |
          | GRADIENT NORM               0.000450966967 Eh/α |
          | HOMO-LUMO GAP              11.887299625502 eV   |
           -------------------------------------------------

 * finished run on 2024/12/20 at 01:52:45.413
