   * xtb version 6.7.1 (edcfbbe) compiled by 'conda@3ef47c1a292c' on 2024-11-25

   ID    Z sym.   atoms
    1    8 O      1, 3
    2    6 C      2, 4
    3   17 Cl     5
    4    1 H      6, 7

          program call               : xtb A043.xyz --opt --namespace A043 --charge -1
          :  Hamiltonian                  GFN2-xTB          :
 * total energy  :   -18.2196459 Eh     change       -0.5426664E-09 Eh
 * total energy  :   -18.2225806 Eh     change       -0.2934721E-02 Eh
 * total energy  :   -18.2217936 Eh     change        0.7869979E-03 Eh
 * total energy  :   -18.2237029 Eh     change       -0.1909280E-02 Eh
 * total energy  :   -18.2238240 Eh     change       -0.1210493E-03 Eh
 * total energy  :   -18.2238649 Eh     change       -0.4094238E-04 Eh
 * total energy  :   -18.2238666 Eh     change       -0.1687093E-05 Eh
   *** GEOMETRY OPTIMIZATION CONVERGED AFTER 7 ITERATIONS ***

 final structure:
================
7
 xtb: 6.7.1 (edcfbbe)
O            1.21081069413451        0.42275755353984       -0.30212722383888
C            2.37120164906438        0.18897453264076        0.03169472884123
O            3.05208969611910        0.61754577481090        0.96206029580446
C            3.15369326169663       -0.82430322803088       -0.95040038484223
Cl           2.94416039691219       -2.50308915564257       -0.43492297244042
H            2.75680335046560       -0.75856357434032       -1.96468070209923
H            4.22620095160760       -0.62451190297772       -0.93239374142492

          :  Hamiltonian                  GFN2-xTB          :
         :: total energy             -18.223866600016 Eh    ::
         :: gradient norm              0.000439887355 Eh/a0 ::
         :: HOMO-LUMO gap              4.529402368737 eV    ::
         :: SCC energy               -18.331179131615 Eh    ::
         :: -> dispersion             -0.004477169189 Eh    ::
         :: repulsion energy           0.107312531599 Eh    ::

    * Orbital Energies and Occupations

         #    Occupation            Energy/Eh            Energy/eV
      -------------------------------------------------------------
         1        2.0000           -0.9104093             -24.7735
       ...           ...                  ...                  ...
         3        2.0000           -0.4844203             -13.1817
         4        2.0000           -0.4544768             -12.3669
         5        2.0000           -0.3892079             -10.5909
         6        2.0000           -0.3588818              -9.7657
         7        2.0000           -0.3582928              -9.7496
         8        2.0000           -0.3507387              -9.5441
         9        2.0000           -0.3222033              -8.7676
        10        2.0000           -0.3088103              -8.4032
        11        2.0000           -0.2773565              -7.5473
        12        2.0000           -0.2671717              -7.2701
        13        2.0000           -0.2219008              -6.0382
        14        2.0000           -0.2079547              -5.6587
        15        2.0000           -0.1905527              -5.1852 (HOMO)
        16                         -0.0241002              -0.6558 (LUMO)
        17                          0.0310954               0.8461
        18                          0.1662962               4.5251
        19                          0.1730659               4.7094
        20                          0.1751602               4.7664
        21                          0.1766532               4.8070
        22                          0.2459894               6.6937
        23                          0.3004047               8.1744
        24                          0.3325871               9.0502
        25                          0.3562391               9.6938
        26                          0.6011744              16.3588
        27                          0.8925567              24.2877
      -------------------------------------------------------------
                  HL-Gap            0.1664525 Eh            4.5294 eV

     #   Z          covCN         q      C6AA      α(0)
     1   8 O        0.856    -0.568    25.354     6.751
     2   6 C        2.686     0.374    20.661     7.439
     3   8 O        0.856    -0.569    25.363     6.752
     4   6 C        3.700     0.004    20.676     6.503
     5  17 Cl       0.903    -0.269   107.681    15.875
     6   1 H        0.925     0.014     2.830     2.631
     7   1 H        0.925     0.014     2.827     2.629

Wiberg/Mayer (AO) data.
largest (>0.10) Wiberg bond orders for each atom

     #   Z sym  total        # sym  WBO       # sym  WBO       # sym  WBO
 ---------------------------------------------------------------------------
     1   8 O    1.883 --     2 C    1.554     3 O    0.243
     2   6 C    3.948 --     1 O    1.554     3 O    1.553     4 C    0.829
     3   8 O    1.883 --     2 C    1.553     1 O    0.243
     4   6 C    3.858 --     7 H    0.987     6 H    0.987     5 Cl   0.923
                             2 C    0.829
     5  17 Cl   0.970 --     4 C    0.923
     6   1 H    1.000 --     4 C    0.987
     7   1 H    1.000 --     4 C    0.987
 ---------------------------------------------------------------------------

molecular dipole:
                 x           y           z       tot (Debye)
 q only:       -4.193       0.244      -0.549
   full:       -4.084       0.474      -0.735      10.617

           -------------------------------------------------
          | TOTAL ENERGY              -18.223866600016 Eh   |
          | GRADIENT NORM               0.000439887355 Eh/α |
          | HOMO-LUMO GAP               4.529402368737 eV   |
           -------------------------------------------------

 * finished run on 2024/12/20 at 01:52:45.488
