   * xtb version 6.7.1 (edcfbbe) compiled by 'conda@3ef47c1a292c' on 2024-11-25

   ID    Z sym.   atoms
    1   16 S      1
    2    8 O      2-4, 13
    3    6 C      5-12
    4    1 H      14-30

          program call               : xtb A044.xyz --opt --namespace A044 --charge -1
          :  Hamiltonian                  GFN2-xTB          :
 * total energy  :   -45.6038769 Eh     change       -0.3194671E-09 Eh
 * total energy  :   -45.6078822 Eh     change       -0.4005342E-02 Eh
 * total energy  :   -45.6096150 Eh     change       -0.1732809E-02 Eh
 * total energy  :   -45.6102075 Eh     change       -0.5924072E-03 Eh
 * total energy  :   -45.6110471 Eh     change       -0.8396421E-03 Eh
 * total energy  :   -45.6115947 Eh     change       -0.5476372E-03 Eh
 * total energy  :   -45.6122475 Eh     change       -0.6527381E-03 Eh
 * total energy  :   -45.6127980 Eh     change       -0.5505530E-03 Eh
 * total energy  :   -45.6131931 Eh     change       -0.3951107E-03 Eh
 * total energy  :   -45.6135379 Eh     change       -0.3447608E-03 Eh
 * total energy  :   -45.6143321 Eh     change       -0.1147634E-04 Eh
 * total energy  :   -45.6143523 Eh     change       -0.2014926E-04 Eh
 * total energy  :   -45.6143708 Eh     change       -0.1858761E-04 Eh
 * total energy  :   -45.6143804 Eh     change       -0.9560810E-05 Eh
 * total energy  :   -45.6143934 Eh     change       -0.1302735E-04 Eh
 * total energy  :   -45.6144058 Eh     change       -0.1241743E-04 Eh
 * total energy  :   -45.6144161 Eh     change       -0.1029814E-04 Eh
 * total energy  :   -45.6144245 Eh     change       -0.8323697E-05 Eh
 * total energy  :   -45.6144283 Eh     change       -0.3806119E-05 Eh
   *** GEOMETRY OPTIMIZATION CONVERGED AFTER 33 ITERATIONS ***

 final structure:
================
30
 xtb: 6.7.1 (edcfbbe)
S            1.46082748918880       -0.11456486742381       -0.76622527141230
O            1.78138988009074       -0.11789924295784        0.65127998798792
O            0.61526507045161        0.99974113013808       -1.17144767692707
O            0.56444873638048       -1.49254080588760       -1.03704121320622
C           -0.81088216215396       -1.29576670774495       -1.07152365594420
C           -1.49433426688103       -1.60041800129093        0.26579721936301
C           -1.08481914816731       -0.63769456664363        1.37897831789575
C           -1.50318620859384        0.81705769038230        1.15997645675868
C           -2.99694264516958        1.05211976927589        0.92628638591098
C           -3.91340727679047        0.54231640038224        2.04288129914734
C           -3.64764372692860        1.15083239237528        3.42062565892087
C           -3.87229347661827        2.65781197664559        3.46417258636032
O            2.61527214460959       -0.31656671905376       -1.61461996736687
H           -1.00039636334459       -0.25967081818845       -1.37019519365967
H           -1.21823166140127       -1.96832990517666       -1.84464659088028
H           -2.57816348173881       -1.58628323462667        0.11114158192452
H           -1.21261988985702       -2.61486004761351        0.56357947912219
H           -1.48595015630381       -1.00823053220787        2.32901744617650
H            0.00651191962632       -0.64205784737108        1.43420958635851
H           -1.17698023040260        1.39281123416978        2.02904625051882
H           -0.94287914648935        1.19905281246654        0.30450577190506
H           -3.16163563231852        2.12339852492829        0.78783300469685
H           -3.29515160584136        0.56487632958869       -0.00475857780050
H           -4.95242434077136        0.74962523637846        1.76363789268095
H           -3.80719525932323       -0.54159935915969        2.11977830962148
H           -4.31454117412865        0.67160289118886        4.14498619704653
H           -2.62341489768268        0.93008622191903        3.72149544747701
H           -4.87289924112256        2.90591873026113        3.11301812998445
H           -3.76336027383479        3.02965718178967        4.48180060874151
H           -3.14955297448595        3.17095413345428        2.83650052859979

          :  Hamiltonian                  GFN2-xTB          :
         :: total energy             -45.614428274236 Eh    ::
         :: gradient norm              0.000763010831 Eh/a0 ::
         :: HOMO-LUMO gap              8.444580887659 eV    ::
         :: SCC energy               -46.060278300178 Eh    ::
         :: -> dispersion             -0.028198230631 Eh    ::
         :: repulsion energy           0.445850025942 Eh    ::

    * Orbital Energies and Occupations

         #    Occupation            Energy/Eh            Energy/eV
      -------------------------------------------------------------
         1        2.0000           -0.5753464             -15.6560
       ...           ...                  ...                  ...
        28        2.0000           -0.3308374              -9.0025
        29        2.0000           -0.3243391              -8.8257
        30        2.0000           -0.3117583              -8.4834
        31        2.0000           -0.3005597              -8.1786
        32        2.0000           -0.2981415              -8.1128
        33        2.0000           -0.2916805              -7.9370
        34        2.0000           -0.2804851              -7.6324
        35        2.0000           -0.2667128              -7.2576
        36        2.0000           -0.2585721              -7.0361
        37        2.0000           -0.2537541              -6.9050
        38        2.0000           -0.2451635              -6.6712
        39        2.0000           -0.2417827              -6.5792
        40        2.0000           -0.2321316              -6.3166 (HOMO)
        41                          0.0782011               2.1280 (LUMO)
        42                          0.1424116               3.8752
        43                          0.1824895               4.9658
        44                          0.1867654               5.0821
        45                          0.1883911               5.1264
        46                          0.2032293               5.5302
        47                          0.2150069               5.8506
        48                          0.2172956               5.9129
        49                          0.2212321               6.0200
        50                          0.2239812               6.0948
        51                          0.2297148               6.2509
       ...                                ...                  ...
        74                          1.4045138              38.2188
      -------------------------------------------------------------
                  HL-Gap            0.3103326 Eh            8.4446 eV

     #   Z          covCN         q      C6AA      α(0)
     1  16 S        3.593     1.457    94.512    16.362
     2   8 O        0.860    -0.701    28.745     7.188
     3   8 O        0.860    -0.712    29.048     7.226
     4   8 O        1.707    -0.486    22.567     6.414
     5   6 C        3.834     0.094    19.004     6.202
     6   6 C        3.798    -0.061    21.678     6.629
     7   6 C        3.800    -0.069    21.829     6.652
     8   6 C        3.800    -0.069    21.823     6.651
     9   6 C        3.799    -0.054    21.554     6.610
    10   6 C        3.800    -0.053    21.535     6.607
    11   6 C        3.799    -0.050    21.480     6.599
    12   6 C        3.751    -0.098    22.436     6.755
    13   8 O        0.860    -0.686    28.318     7.135
    14   1 H        0.924     0.044     2.398     2.421
    15   1 H        0.923     0.006     2.962     2.692
    16   1 H        0.924     0.014     2.823     2.627
    17   1 H        0.924     0.025     2.656     2.548
    18   1 H        0.924     0.008     2.915     2.670
    19   1 H        0.924     0.078     1.997     2.210
    20   1 H        0.924     0.025     2.662     2.551
    21   1 H        0.924     0.069     2.096     2.264
    22   1 H        0.924     0.022     2.707     2.573
    23   1 H        0.924     0.023     2.691     2.565
    24   1 H        0.924     0.012     2.858     2.644
    25   1 H        0.924     0.028     2.615     2.529
    26   1 H        0.924     0.013     2.845     2.638
    27   1 H        0.925     0.039     2.462     2.454
    28   1 H        0.925     0.024     2.680     2.560
    29   1 H        0.925     0.020     2.732     2.585
    30   1 H        0.925     0.041     2.439     2.442

Wiberg/Mayer (AO) data.
largest (>0.10) Wiberg bond orders for each atom

     #   Z sym  total        # sym  WBO       # sym  WBO       # sym  WBO
 ---------------------------------------------------------------------------
     1  16 S    5.042 --    13 O    1.441     2 O    1.395     3 O    1.386
                             4 O    0.798
     2   8 O    1.740 --     1 S    1.395    13 O    0.121     3 O    0.118
     3   8 O    1.733 --     1 S    1.386     2 O    0.118    13 O    0.115
     4   8 O    2.044 --     5 C    0.994     1 S    0.798
     5   6 C    3.948 --     4 O    0.994     6 C    0.992    15 H    0.967
                            14 H    0.955
     6   6 C    3.999 --     7 C    1.008     5 C    0.992    17 H    0.978
                            16 H    0.975
     7   6 C    3.991 --     6 C    1.008     8 C    1.008    18 H    0.977
                            19 H    0.954
     8   6 C    3.991 --     7 C    1.008     9 C    1.007    20 H    0.975
                            21 H    0.960
     9   6 C    3.997 --     8 C    1.007    10 C    1.006    22 H    0.976
                            23 H    0.975
    10   6 C    3.998 --    11 C    1.008     9 C    1.006    24 H    0.978
                            25 H    0.976
    11   6 C    3.998 --    12 C    1.020    10 C    1.008    26 H    0.979
                            27 H    0.975
    12   6 C    3.998 --    11 C    1.020    29 H    0.988    28 H    0.988
                            30 H    0.986
    13   8 O    1.752 --     1 S    1.441     2 O    0.121     3 O    0.115
    14   1 H    0.998 --     5 C    0.955
    15   1 H    1.000 --     5 C    0.967
    16   1 H    0.999 --     6 C    0.975
    17   1 H    0.999 --     6 C    0.978
    18   1 H    1.000 --     7 C    0.977
    19   1 H    0.994 --     7 C    0.954
    20   1 H    0.999 --     8 C    0.975
    21   1 H    0.995 --     8 C    0.960
    22   1 H    1.000 --     9 C    0.976
    23   1 H    0.999 --     9 C    0.975
    24   1 H    1.000 --    10 C    0.978
    25   1 H    0.999 --    10 C    0.976
    26   1 H    1.000 --    11 C    0.979
    27   1 H    0.998 --    11 C    0.975
    28   1 H    0.999 --    12 C    0.988
    29   1 H    1.000 --    12 C    0.988
    30   1 H    0.998 --    12 C    0.986
 ---------------------------------------------------------------------------

molecular dipole:
                 x           y           z       tot (Debye)
 q only:       -2.849       0.015       1.192
   full:       -3.093      -0.166       1.132       8.383

           -------------------------------------------------
          | TOTAL ENERGY              -45.614428274236 Eh   |
          | GRADIENT NORM               0.000763010831 Eh/α |
          | HOMO-LUMO GAP               8.444580887659 eV   |
           -------------------------------------------------

 * finished run on 2024/12/20 at 01:52:46.854
