   * xtb version 6.7.1 (edcfbbe) compiled by 'conda@3ef47c1a292c' on 2024-11-25

   ID    Z sym.   atoms
    1    6 C      1, 4
    2    7 N      2, 3, 5

          program call               : xtb A045.xyz --opt --namespace A045 --charge -1
          :  Hamiltonian                  GFN2-xTB          :
 * total energy  :   -13.1851448 Eh     change       -0.2851461E-09 Eh
 * total energy  :   -13.2211803 Eh     change       -0.3603554E-01 Eh
 * total energy  :   -13.2263321 Eh     change       -0.5151727E-02 Eh
 * total energy  :   -13.2305895 Eh     change       -0.4257461E-02 Eh
 * total energy  :   -13.2313941 Eh     change       -0.8045200E-03 Eh
 * total energy  :   -13.2322898 Eh     change       -0.8957263E-03 Eh
 * total energy  :   -13.2322360 Eh     change        0.5376440E-04 Eh
 * total energy  :   -13.2325229 Eh     change       -0.2868523E-03 Eh
 * total energy  :   -13.2326571 Eh     change       -0.1342152E-03 Eh
 * total energy  :   -13.2326511 Eh     change        0.6010310E-05 Eh
 * total energy  :   -13.2327075 Eh     change       -0.5638369E-04 Eh
 * total energy  :   -13.2327144 Eh     change       -0.6992664E-05 Eh
 * total energy  :   -13.2327172 Eh     change       -0.2713473E-05 Eh
   *** GEOMETRY OPTIMIZATION CONVERGED AFTER 13 ITERATIONS ***

 final structure:
================
5
 xtb: 6.7.1 (edcfbbe)
C            0.99511547581085       -0.18356992031455        0.08620344131630
N           -0.13229748571578        0.09142952726623       -0.00126644905024
N            2.25949295690194       -0.32460722453670        0.13139454578891
C            3.02000377233687       -1.29687946446153        0.44265822401758
N            3.83357528066611       -2.08953291795346        0.69583023792746

          :  Hamiltonian                  GFN2-xTB          :
         :: total energy             -13.232717161805 Eh    ::
         :: gradient norm              0.000501287676 Eh/a0 ::
         :: HOMO-LUMO gap              4.955573397455 eV    ::
         :: SCC energy               -13.494403329798 Eh    ::
         :: -> dispersion             -0.002901986404 Eh    ::
         :: repulsion energy           0.261686167992 Eh    ::

    * Orbital Energies and Occupations

         #    Occupation            Energy/Eh            Energy/eV
      -------------------------------------------------------------
         1        2.0000           -0.4435478             -12.0695
         2        2.0000           -0.4289855             -11.6733
         3        2.0000           -0.4148464             -11.2885
         4        2.0000           -0.3710583             -10.0970
         5        2.0000           -0.3083169              -8.3897
         6        2.0000           -0.3060476              -8.3280
         7        2.0000           -0.2544981              -6.9252
         8        2.0000           -0.2537137              -6.9039
         9        2.0000           -0.2300595              -6.2602
        10        2.0000           -0.2104662              -5.7271
        11        2.0000           -0.1851305              -5.0377
        12        2.0000           -0.1737607              -4.7283 (HOMO)
        13                          0.0083532               0.2273 (LUMO)
        14                          0.0093444               0.2543
        15                          0.0648183               1.7638
        16                          0.1117102               3.0398
        17                          0.3466517               9.4329
        18                          0.6225686              16.9410
        19                          1.3662052              37.1763
        20                          1.4602645              39.7358
      -------------------------------------------------------------
                  HL-Gap            0.1821140 Eh            4.9556 eV

     #   Z          covCN         q      C6AA      α(0)
     1   6 C        1.857     0.158    27.325     8.444
     2   7 N        0.912    -0.499    33.254     8.340
     3   7 N        1.823    -0.318    29.086     7.991
     4   6 C        1.857     0.158    27.324     8.444
     5   7 N        0.912    -0.499    33.254     8.340

Wiberg/Mayer (AO) data.
largest (>0.10) Wiberg bond orders for each atom

     #   Z sym  total        # sym  WBO       # sym  WBO       # sym  WBO
 ---------------------------------------------------------------------------
     1   6 C    3.951 --     2 N    2.492     3 N    1.390
     2   7 N    2.885 --     1 C    2.492     3 N    0.240
     3   7 N    3.261 --     1 C    1.390     4 C    1.390     2 N    0.240
                             5 N    0.240
     4   6 C    3.951 --     5 N    2.492     3 N    1.390
     5   7 N    2.885 --     4 C    2.492     3 N    0.240
 ---------------------------------------------------------------------------

molecular dipole:
                 x           y           z       tot (Debye)
 q only:       -3.649       1.637      -0.576
   full:       -3.610       1.701      -0.596      10.257

           -------------------------------------------------
          | TOTAL ENERGY              -13.232717161805 Eh   |
          | GRADIENT NORM               0.000501287676 Eh/α |
          | HOMO-LUMO GAP               4.955573397455 eV   |
           -------------------------------------------------

 * finished run on 2024/12/20 at 01:52:46.898
