   * xtb version 6.7.1 (edcfbbe) compiled by 'conda@3ef47c1a292c' on 2024-11-25

   ID    Z sym.   atoms
    1    1 H      1, 4
    2    8 O      2, 5, 6
    3   15 P      3

          program call               : xtb A046.xyz --opt --namespace A046 --charge -1
          :  Hamiltonian                  GFN2-xTB          :
 * total energy  :   -15.9373697 Eh     change       -0.2666312E-11 Eh
 * total energy  :   -15.9905428 Eh     change       -0.5317306E-01 Eh
 * total energy  :   -16.0341978 Eh     change       -0.4365499E-01 Eh
 * total energy  :   -16.0519338 Eh     change       -0.1773605E-01 Eh
 * total energy  :   -16.0730433 Eh     change       -0.2110948E-01 Eh
 * total energy  :   -16.0872378 Eh     change       -0.1419455E-01 Eh
 * total energy  :   -16.0894618 Eh     change       -0.2223944E-02 Eh
 * total energy  :   -16.0909054 Eh     change       -0.1443642E-02 Eh
 * total energy  :   -16.0910049 Eh     change       -0.9949989E-04 Eh
 * total energy  :   -16.0910558 Eh     change       -0.5086969E-04 Eh
 * total energy  :   -16.0911126 Eh     change       -0.5682868E-04 Eh
 * total energy  :   -16.0912000 Eh     change       -0.8734060E-04 Eh
 * total energy  :   -16.0912801 Eh     change       -0.8010448E-04 Eh
 * total energy  :   -16.0913546 Eh     change       -0.7455120E-04 Eh
 * total energy  :   -16.0913574 Eh     change       -0.2751135E-05 Eh
 * total energy  :   -16.0913771 Eh     change       -0.1970187E-04 Eh
 * total energy  :   -16.0913829 Eh     change       -0.5807188E-05 Eh
 * total energy  :   -16.0913887 Eh     change       -0.5810856E-05 Eh
 * total energy  :   -16.0913896 Eh     change       -0.8917698E-06 Eh
   *** GEOMETRY OPTIMIZATION CONVERGED AFTER 19 ITERATIONS ***

 final structure:
================
6
 xtb: 6.7.1 (edcfbbe)
H            2.13702224781010        0.02688413481625       -0.69445431971347
O            1.65176144128940        0.39483842273309        0.04057157111846
P            2.87537857060885        1.25665094223031        0.77511672491730
H            3.29429170936727        0.23854317212210        1.65679349296453
O            3.92262401604358        1.47683969016840       -0.26083115197929
O            2.30676201488081        2.38066363792985        1.54788368269246

          :  Hamiltonian                  GFN2-xTB          :
         :: total energy             -16.091389572953 Eh    ::
         :: gradient norm              0.000648037301 Eh/a0 ::
         :: HOMO-LUMO gap              9.188126200568 eV    ::
         :: SCC energy               -16.172878092576 Eh    ::
         :: -> dispersion             -0.003281553650 Eh    ::
         :: repulsion energy           0.081488519622 Eh    ::

    * Orbital Energies and Occupations

         #    Occupation            Energy/Eh            Energy/eV
      -------------------------------------------------------------
         1        2.0000           -0.5343695             -14.5409
         2        2.0000           -0.4854883             -13.2108
         3        2.0000           -0.4579072             -12.4603
         4        2.0000           -0.4185564             -11.3895
         5        2.0000           -0.3879421             -10.5564
         6        2.0000           -0.3487493              -9.4900
         7        2.0000           -0.3370092              -9.1705
         8        2.0000           -0.2955698              -8.0429
         9        2.0000           -0.2900001              -7.8913
        10        2.0000           -0.2401589              -6.5351
        11        2.0000           -0.2377731              -6.4701
        12        2.0000           -0.2240406              -6.0965
        13        2.0000           -0.2177302              -5.9247 (HOMO)
        14                          0.1199272               3.2634 (LUMO)
        15                          0.1569611               4.2711
        16                          0.2256584               6.1405
        17                          0.2384264               6.4879
        18                          0.3367081               9.1623
        19                          0.4054169              11.0320
        20                          0.4837773              13.1643
        21                          1.0396855              28.2913
        22                          1.2542602              34.1302
        23                          1.3183810              35.8750
      -------------------------------------------------------------
                  HL-Gap            0.3376574 Eh            9.1881 eV

     #   Z          covCN         q      C6AA      α(0)
     1   1 H        0.987     0.311     0.675     1.283
     2   8 O        1.613    -0.408    21.035     6.190
     3  15 P        3.580    -0.000   160.238    22.739
     4   1 H        0.976    -0.029     3.605     2.967
     5   8 O        0.808    -0.457    22.867     6.410
     6   8 O        0.808    -0.417    22.040     6.293

Wiberg/Mayer (AO) data.
largest (>0.10) Wiberg bond orders for each atom

     #   Z sym  total        # sym  WBO       # sym  WBO       # sym  WBO
 ---------------------------------------------------------------------------
     1   1 H    0.903 --     2 O    0.869
     2   8 O    2.221 --     3 P    1.190     1 H    0.869
     3  15 P    5.985 --     6 O    1.980     5 O    1.921     2 O    1.190
                             4 H    0.869
     4   1 H    0.999 --     3 P    0.869
     5   8 O    2.146 --     3 P    1.921     6 O    0.102
     6   8 O    2.194 --     3 P    1.980     5 O    0.102
 ---------------------------------------------------------------------------

molecular dipole:
                 x           y           z       tot (Debye)
 q only:       -5.402      -3.452      -1.525
   full:       -5.382      -3.761      -1.546      17.144

           -------------------------------------------------
          | TOTAL ENERGY              -16.091389572953 Eh   |
          | GRADIENT NORM               0.000648037301 Eh/α |
          | HOMO-LUMO GAP               9.188126200568 eV   |
           -------------------------------------------------

 * finished run on 2024/12/20 at 01:52:46.981
