   * xtb version 6.7.1 (edcfbbe) compiled by 'conda@3ef47c1a292c' on 2024-11-25

   ID    Z sym.   atoms
    1    8 O      1, 4, 5
    2    6 C      2, 3
    3    1 H      6-8

          program call               : xtb A047.xyz --opt --namespace A047 --charge -1
          :  Hamiltonian                  GFN2-xTB          :
 * total energy  :   -18.2410508 Eh     change       -0.7457146E-10 Eh
 * total energy  :   -18.2436684 Eh     change       -0.2617635E-02 Eh
 * total energy  :   -18.2442312 Eh     change       -0.5627554E-03 Eh
 * total energy  :   -18.2443001 Eh     change       -0.6893263E-04 Eh
 * total energy  :   -18.2443115 Eh     change       -0.1137934E-04 Eh
 * total energy  :   -18.2443505 Eh     change       -0.3905374E-04 Eh
 * total energy  :   -18.2443516 Eh     change       -0.1028611E-05 Eh
   *** GEOMETRY OPTIMIZATION CONVERGED AFTER 7 ITERATIONS ***

 final structure:
================
8
 xtb: 6.7.1 (edcfbbe)
O            0.91867104155634        0.01835234622466        0.05433930047210
C            0.64169326938152        0.91238376160538        1.10101478029646
C            1.20848981408504        0.28305589177437        2.43851030478046
O            1.06347383343177        0.92757198537827        3.47856827869866
O            1.74697559355828       -0.82683326863710        2.25013045462448
H            1.38179011041013       -0.70342402492201        0.56458871354364
H            1.12247703671189        1.88431415463676        0.92094201824360
H           -0.44155069913499        1.07064915393967        1.20167614934061

          :  Hamiltonian                  GFN2-xTB          :
         :: total energy             -18.244351564581 Eh    ::
         :: gradient norm              0.000281277241 Eh/a0 ::
         :: HOMO-LUMO gap              5.272430479252 eV    ::
         :: SCC energy               -18.361883864580 Eh    ::
         :: -> dispersion             -0.004080550444 Eh    ::
         :: repulsion energy           0.117532300000 Eh    ::

    * Orbital Energies and Occupations

         #    Occupation            Energy/Eh            Energy/eV
      -------------------------------------------------------------
         1        2.0000           -0.5086758             -13.8418
       ...           ...                  ...                  ...
         3        2.0000           -0.4758228             -12.9478
         4        2.0000           -0.4366992             -11.8832
         5        2.0000           -0.3966398             -10.7931
         6        2.0000           -0.3658631              -9.9556
         7        2.0000           -0.3573762              -9.7247
         8        2.0000           -0.3453228              -9.3967
         9        2.0000           -0.3136422              -8.5346
        10        2.0000           -0.3040558              -8.2738
        11        2.0000           -0.2958834              -8.0514
        12        2.0000           -0.2365171              -6.4360
        13        2.0000           -0.2154406              -5.8624
        14        2.0000           -0.2053325              -5.5874
        15        2.0000           -0.1805657              -4.9134 (HOMO)
        16                          0.0131925               0.3590 (LUMO)
        17                          0.2688233               7.3151
        18                          0.2785551               7.5799
        19                          0.3258207               8.8660
        20                          0.3637024               9.8968
        21                          0.3758612              10.2277
        22                          0.5916806              16.1004
        23                          0.8646847              23.5293
      -------------------------------------------------------------
                  HL-Gap            0.1937583 Eh            5.2724 eV

     #   Z          covCN         q      C6AA      α(0)
     1   8 O        1.651    -0.506    23.024     6.477
     2   6 C        3.667     0.050    19.989     6.411
     3   6 C        2.679     0.353    21.006     7.500
     4   8 O        0.856    -0.581    25.659     6.791
     5   8 O        0.857    -0.589    25.860     6.818
     6   1 H        0.800     0.307     0.702     1.317
     7   1 H        0.923    -0.016     3.359     2.866
     8   1 H        0.923    -0.017     3.362     2.867

Wiberg/Mayer (AO) data.
largest (>0.10) Wiberg bond orders for each atom

     #   Z sym  total        # sym  WBO       # sym  WBO       # sym  WBO
 ---------------------------------------------------------------------------
     1   8 O    1.909 --     2 C    1.012     6 H    0.816
     2   6 C    3.936 --     1 O    1.012     7 H    0.967     8 H    0.967
                             3 C    0.874
     3   6 C    3.944 --     4 O    1.558     5 O    1.488     2 C    0.874
     4   8 O    1.861 --     3 C    1.558     5 O    0.223
     5   8 O    1.891 --     3 C    1.488     4 O    0.223
     6   1 H    0.906 --     1 O    0.816
     7   1 H    1.000 --     2 C    0.967
     8   1 H    1.000 --     2 C    0.967
 ---------------------------------------------------------------------------

molecular dipole:
                 x           y           z       tot (Debye)
 q only:       -2.346      -0.340      -4.386
   full:       -2.416      -0.219      -4.424      12.824

           -------------------------------------------------
          | TOTAL ENERGY              -18.244351564581 Eh   |
          | GRADIENT NORM               0.000281277241 Eh/α |
          | HOMO-LUMO GAP               5.272430479252 eV   |
           -------------------------------------------------

 * finished run on 2024/12/20 at 01:52:47.054
