   * xtb version 6.7.1 (edcfbbe) compiled by 'conda@3ef47c1a292c' on 2024-11-25

   ID    Z sym.   atoms
    1   13 Al     1
    2   17 Cl     2-5

          program call               : xtb A048.xyz --opt --namespace A048 --charge -1
          :  Hamiltonian                  GFN2-xTB          :
 * total energy  :   -19.8039880 Eh     change       -0.3907985E-13 Eh
 * total energy  :   -19.8149217 Eh     change       -0.1093371E-01 Eh
 * total energy  :   -19.8149213 Eh     change        0.4188238E-06 Eh
 * total energy  :   -19.8149218 Eh     change       -0.5367722E-06 Eh
   *** GEOMETRY OPTIMIZATION CONVERGED AFTER 4 ITERATIONS ***

 final structure:
================
5
 xtb: 6.7.1 (edcfbbe)
Al           1.02144890892787       -0.04587991111939        0.08614633461416
Cl           0.31701657510101        0.31398608104754       -1.87420568303881
Cl           0.31692355720309       -1.92304678151365        0.75597767480884
Cl           0.31642902670715        1.47215787525854        1.37753097037629
Cl           3.13542193206087       -0.04597726367305        0.08603070323951

          :  Hamiltonian                  GFN2-xTB          :
         :: total energy             -19.814921831160 Eh    ::
         :: gradient norm              0.000043898976 Eh/a0 ::
         :: HOMO-LUMO gap              9.076927038582 eV    ::
         :: SCC energy               -19.840904591725 Eh    ::
         :: -> dispersion             -0.006342092449 Eh    ::
         :: repulsion energy           0.025982760566 Eh    ::

    * Orbital Energies and Occupations

         #    Occupation            Energy/Eh            Energy/eV
      -------------------------------------------------------------
         1        2.0000           -0.9031799             -24.5768
       ...           ...                  ...                  ...
         4        2.0000           -0.8997716             -24.4840
         5        2.0000           -0.3758048             -10.2262
         6        2.0000           -0.3039965              -8.2722
         7        2.0000           -0.3039819              -8.2718
         8        2.0000           -0.2972984              -8.0899
         9        2.0000           -0.2972955              -8.0898
        10        2.0000           -0.2972870              -8.0896
        11        2.0000           -0.2829028              -7.6982
        12        2.0000           -0.2828927              -7.6979
        13        2.0000           -0.2828823              -7.6976
        14        2.0000           -0.2764228              -7.5218
        15        2.0000           -0.2764130              -7.5216
        16        2.0000           -0.2764109              -7.5215 (HOMO)
        17                          0.0571600               1.5554 (LUMO)
        18                          0.0693760               1.8878
        19                          0.0694178               1.8890
        20                          0.0694580               1.8900
        21                          0.1416074               3.8533
        22                          0.1416394               3.8542
        23                          0.1781051               4.8465
        24                          0.1781107               4.8466
        25                          0.1781177               4.8468
        26                          0.1816346               4.9425
        27                          0.1816410               4.9427
       ...                                ...                  ...
        45                          1.1648288              31.6966
      -------------------------------------------------------------
                  HL-Gap            0.3335709 Eh            9.0769 eV

     #   Z          covCN         q      C6AA      α(0)
     1  13 Al       3.069     0.425    92.141    19.561
     2  17 Cl       0.769    -0.356   110.481    16.079
     3  17 Cl       0.769    -0.356   110.481    16.079
     4  17 Cl       0.769    -0.356   110.485    16.079
     5  17 Cl       0.769    -0.356   110.482    16.079

Wiberg/Mayer (AO) data.
largest (>0.10) Wiberg bond orders for each atom

     #   Z sym  total        # sym  WBO       # sym  WBO       # sym  WBO
 ---------------------------------------------------------------------------
     1  13 Al   4.066 --     2 Cl   1.017     3 Cl   1.017     5 Cl   1.017
                             4 Cl   1.016
     2  17 Cl   1.138 --     1 Al   1.017
     3  17 Cl   1.138 --     1 Al   1.017
     4  17 Cl   1.138 --     1 Al   1.016
     5  17 Cl   1.138 --     1 Al   1.017
 ---------------------------------------------------------------------------

molecular dipole:
                 x           y           z       tot (Debye)
 q only:       -1.930       0.086      -0.164
   full:       -1.930       0.086      -0.164       4.929

           -------------------------------------------------
          | TOTAL ENERGY              -19.814921831160 Eh   |
          | GRADIENT NORM               0.000043898976 Eh/α |
          | HOMO-LUMO GAP               9.076927038582 eV   |
           -------------------------------------------------

 * finished run on 2024/12/20 at 01:52:47.110
