   * xtb version 6.7.1 (edcfbbe) compiled by 'conda@3ef47c1a292c' on 2024-11-25

   ID    Z sym.   atoms
    1    9 F      1, 12-18
    2    6 C      2, 3, 9-11
    3    8 O      4, 6-8
    4   16 S      5
    5    1 H      19-21

          program call               : xtb A049.xyz --opt --namespace A049 --charge -1
          :  Hamiltonian                  GFN2-xTB          :
 * total energy  :   -69.8815274 Eh     change       -0.1236913E-09 Eh
 * total energy  :   -69.8895173 Eh     change       -0.7989937E-02 Eh
 * total energy  :   -69.8936241 Eh     change       -0.4106750E-02 Eh
 * total energy  :   -69.8944159 Eh     change       -0.7918285E-03 Eh
 * total energy  :   -69.8948508 Eh     change       -0.4349287E-03 Eh
 * total energy  :   -69.8950509 Eh     change       -0.2000657E-03 Eh
 * total energy  :   -69.8952232 Eh     change       -0.1723199E-03 Eh
 * total energy  :   -69.8953580 Eh     change       -0.1347827E-03 Eh
 * total energy  :   -69.8955029 Eh     change       -0.1448643E-03 Eh
 * total energy  :   -69.8956465 Eh     change       -0.1436577E-03 Eh
 * total energy  :   -69.8960644 Eh     change       -0.1158040E-03 Eh
 * total energy  :   -69.8961584 Eh     change       -0.9403199E-04 Eh
 * total energy  :   -69.8961694 Eh     change       -0.1096944E-04 Eh
 * total energy  :   -69.8962635 Eh     change       -0.9416654E-04 Eh
 * total energy  :   -69.8962988 Eh     change       -0.3527022E-04 Eh
 * total energy  :   -69.8963427 Eh     change       -0.4389228E-04 Eh
 * total energy  :   -69.8963550 Eh     change       -0.1230803E-04 Eh
 * total energy  :   -69.8963644 Eh     change       -0.9420158E-05 Eh
 * total energy  :   -69.8963687 Eh     change       -0.4279323E-05 Eh
   *** GEOMETRY OPTIMIZATION CONVERGED AFTER 21 ITERATIONS ***

 final structure:
================
21
 xtb: 6.7.1 (edcfbbe)
F            1.47522685055210        0.54740600206314       -0.40876714205601
C            2.57721580054666       -0.04744551920068        0.09022397530732
C            2.67764545513681        0.00059924048695        1.62905212606531
O            2.26091843014272       -1.12416448124463        2.27417581194251
S            0.55211627338359       -1.16690566358593        2.12908333165403
O            0.16409355232584        0.14266038259769        2.60944885349918
O            0.36703190749270       -1.35435689904774        0.70842138878478
O            0.16936264758773       -2.26968320364737        2.96414956802933
C            2.85270954254199       -1.41517606646828       -0.59650942116331
C            2.25342975571494       -1.52796478676581       -2.03185423880219
C            2.61100011969240       -0.33848816253387       -2.95865700732519
F            3.94027164190433       -0.18486951119533       -3.07970595015853
F            2.14753353847366       -0.59594989620741       -4.20052656788103
F            2.73504274707229       -2.66996688061527       -2.58867408310877
F            0.92127536257943       -1.65340662037500       -2.02798744072204
F            4.21270022427051       -1.49636964863279       -0.74333505647353
F            2.53792405156429       -2.50677898321125        0.09333489890539
F            3.57275741987452        0.78209386489158       -0.40619865361003
H            3.73690167097491        0.17835775170685        1.85945605792720
H            2.05684830728183        0.85558216579107        1.94242135007096
H            2.15882470088562        0.59903691519449       -2.60935180088296

          :  Hamiltonian                  GFN2-xTB          :
         :: total energy             -69.896368697859 Eh    ::
         :: gradient norm              0.000941882380 Eh/a0 ::
         :: HOMO-LUMO gap              7.053409785646 eV    ::
         :: SCC energy               -70.143847652438 Eh    ::
         :: -> dispersion             -0.023508574322 Eh    ::
         :: repulsion energy           0.247478954580 Eh    ::

    * Orbital Energies and Occupations

         #    Occupation            Energy/Eh            Energy/eV
      -------------------------------------------------------------
         1        2.0000           -0.8015811             -21.8121
       ...           ...                  ...                  ...
        43        2.0000           -0.4232436             -11.5170
        44        2.0000           -0.4069774             -11.0744
        45        2.0000           -0.3904819             -10.6256
        46        2.0000           -0.3652194              -9.9381
        47        2.0000           -0.3627418              -9.8707
        48        2.0000           -0.3567292              -9.7071
        49        2.0000           -0.3230696              -8.7912
        50        2.0000           -0.2994625              -8.1488
        51        2.0000           -0.2967678              -8.0755
        52        2.0000           -0.2936832              -7.9915
        53        2.0000           -0.2810186              -7.6469
        54        2.0000           -0.2805641              -7.6345
        55        2.0000           -0.2680770              -7.2947 (HOMO)
        56                         -0.0088689              -0.2413 (LUMO)
        57                          0.0238207               0.6482
        58                          0.0376711               1.0251
        59                          0.0438938               1.1944
        60                          0.0748069               2.0356
        61                          0.0778619               2.1187
        62                          0.0969501               2.6381
        63                          0.1022323               2.7819
        64                          0.1295017               3.5239
        65                          0.1487336               4.0472
        66                          0.1665145               4.5311
       ...                                ...                  ...
        80                          1.4221837              38.6996
      -------------------------------------------------------------
                  HL-Gap            0.2592080 Eh            7.0534 eV

     #   Z          covCN         q      C6AA      α(0)
     1   9 F        0.791    -0.200    11.235     3.959
     2   6 C        3.515     0.302    17.175     6.120
     3   6 C        3.969     0.098    18.902     6.177
     4   8 O        1.705    -0.480    22.451     6.397
     5  16 S        3.724     1.485    93.815    16.302
     6   8 O        0.860    -0.696    28.603     7.171
     7   8 O        0.860    -0.713    29.061     7.228
     8   8 O        0.860    -0.649    27.350     7.012
     9   6 C        3.517     0.327    16.824     6.053
    10   6 C        3.517     0.321    16.896     6.065
    11   6 C        3.468     0.295    17.858     6.346
    12   9 F        0.787    -0.190    11.129     3.941
    13   9 F        0.788    -0.193    11.166     3.947
    14   9 F        0.789    -0.185    11.086     3.933
    15   9 F        0.789    -0.167    10.899     3.900
    16   9 F        0.791    -0.204    11.280     3.967
    17   9 F        0.790    -0.152    10.748     3.873
    18   9 F        0.793    -0.242    11.674     4.036
    19   1 H        0.923     0.063     2.167     2.302
    20   1 H        0.923     0.079     1.993     2.208
    21   1 H        0.923     0.101     1.777     2.084

Wiberg/Mayer (AO) data.
largest (>0.10) Wiberg bond orders for each atom

     #   Z sym  total        # sym  WBO       # sym  WBO       # sym  WBO
 ---------------------------------------------------------------------------
     1   9 F    1.074 --     2 C    0.965
     2   6 C    3.838 --     1 F    0.965     3 C    0.933     9 C    0.917
                            18 F    0.914
     3   6 C    3.953 --     4 O    1.053    19 H    0.957    20 H    0.943
                             2 C    0.933
     4   8 O    2.014 --     3 C    1.053     5 S    0.705
     5  16 S    5.014 --     8 O    1.475     6 O    1.410     7 O    1.407
                             4 O    0.705
     6   8 O    1.742 --     5 S    1.410     8 O    0.124     7 O    0.121
     7   8 O    1.734 --     5 S    1.407     8 O    0.123     6 O    0.121
     8   8 O    1.791 --     5 S    1.475     6 O    0.124     7 O    0.123
     9   6 C    3.883 --    17 F    1.001    16 F    0.940     2 C    0.917
                            10 C    0.911
    10   6 C    3.888 --    15 F    0.984    14 F    0.958    11 C    0.929
                             9 C    0.911
    11   6 C    3.871 --    12 F    0.974    13 F    0.966    21 H    0.941
                            10 C    0.929
    12   9 F    1.072 --    11 C    0.974
    13   9 F    1.065 --    11 C    0.966
    14   9 F    1.072 --    10 C    0.958
    15   9 F    1.100 --    10 C    0.984
    16   9 F    1.050 --     9 C    0.940
    17   9 F    1.122 --     9 C    1.001
    18   9 F    1.016 --     2 C    0.914
    19   1 H    0.996 --     3 C    0.957
    20   1 H    0.993 --     3 C    0.943
    21   1 H    0.990 --    11 C    0.941
 ---------------------------------------------------------------------------

molecular dipole:
                 x           y           z       tot (Debye)
 q only:       -1.694       2.884      -2.212
   full:       -1.616       3.071      -2.120      10.336

           -------------------------------------------------
          | TOTAL ENERGY              -69.896368697859 Eh   |
          | GRADIENT NORM               0.000941882380 Eh/α |
          | HOMO-LUMO GAP               7.053409785646 eV   |
           -------------------------------------------------

 * finished run on 2024/12/20 at 01:52:47.674
