   * xtb version 6.7.1 (edcfbbe) compiled by 'conda@3ef47c1a292c' on 2024-11-25

   ID    Z sym.   atoms
    1    6 C      1, 2
    2   16 S      3
    3    8 O      4-6
    4    1 H      7-11

          program call               : xtb A050.xyz --opt --namespace A050 --charge -1
          :  Hamiltonian                  GFN2-xTB          :
 * total energy  :   -22.5178369 Eh     change       -0.1575913E-09 Eh
 * total energy  :   -22.5206266 Eh     change       -0.2789761E-02 Eh
 * total energy  :   -22.5216360 Eh     change       -0.1009422E-02 Eh
 * total energy  :   -22.5217271 Eh     change       -0.9103091E-04 Eh
 * total energy  :   -22.5217623 Eh     change       -0.3517109E-04 Eh
 * total energy  :   -22.5217697 Eh     change       -0.7437807E-05 Eh
 * total energy  :   -22.5217720 Eh     change       -0.2311313E-05 Eh
   *** GEOMETRY OPTIMIZATION CONVERGED AFTER 7 ITERATIONS ***

 final structure:
================
11
 xtb: 6.7.1 (edcfbbe)
C            1.08105722168437       -0.04165114536164       -0.06815329897621
C            0.55032088369085       -1.44830210194410       -0.11308912998031
S            0.44257129535203        0.66073443651416        1.50796322431587
O            0.95914289015648        2.02963597967712        1.54981968814838
O           -1.01300613740993        0.58541654628931        1.38370395155973
O            0.99267922204908       -0.20707255355375        2.54919287402892
H            0.70383256481014        0.58812734838865       -0.86789406606605
H            2.16428056113149        0.00980249054117       -0.01829151974108
H            0.90094082843240       -1.97070460833706        0.77441683162718
H           -0.53544788486809       -1.40225010801507       -0.06286636811550
H            0.85334855497117       -1.99978628419875       -1.00742218680095

          :  Hamiltonian                  GFN2-xTB          :
         :: total energy             -22.521772000522 Eh    ::
         :: gradient norm              0.000515629249 Eh/a0 ::
         :: HOMO-LUMO gap              8.370067765487 eV    ::
         :: SCC energy               -22.683937740644 Eh    ::
         :: -> dispersion             -0.008514277843 Eh    ::
         :: repulsion energy           0.162165740122 Eh    ::

    * Orbital Energies and Occupations

         #    Occupation            Energy/Eh            Energy/eV
      -------------------------------------------------------------
         1        2.0000           -0.5527002             -15.0397
       ...           ...                  ...                  ...
         7        2.0000           -0.3675371             -10.0012
         8        2.0000           -0.3598314              -9.7915
         9        2.0000           -0.3327827              -9.0555
        10        2.0000           -0.3166893              -8.6176
        11        2.0000           -0.3082783              -8.3887
        12        2.0000           -0.3070128              -8.3542
        13        2.0000           -0.2983031              -8.1172
        14        2.0000           -0.2439056              -6.6370
        15        2.0000           -0.2436310              -6.6295
        16        2.0000           -0.2239697              -6.0945
        17        2.0000           -0.2238826              -6.0922
        18        2.0000           -0.2117237              -5.7613
        19        2.0000           -0.2098061              -5.7091 (HOMO)
        20                          0.0977882               2.6610 (LUMO)
        21                          0.1501342               4.0854
        22                          0.1874563               5.1009
        23                          0.1991129               5.4181
        24                          0.2784239               7.5763
        25                          0.3017583               8.2113
        26                          0.3035045               8.2588
        27                          0.3260840               8.8732
        28                          0.3791565              10.3174
        29                          0.3818936              10.3919
        30                          0.4412857              12.0080
       ...                                ...                  ...
        34                          1.3514548              36.7750
      -------------------------------------------------------------
                  HL-Gap            0.3075943 Eh            8.3701 eV

     #   Z          covCN         q      C6AA      α(0)
     1   6 C        3.794    -0.134    23.072     6.840
     2   6 C        3.835    -0.098    22.348     6.726
     3  16 S        3.631     1.103   103.747    17.143
     4   8 O        0.860    -0.670    27.889     7.081
     5   8 O        0.860    -0.671    27.939     7.087
     6   8 O        0.860    -0.671    27.940     7.087
     7   1 H        0.925     0.021     2.713     2.576
     8   1 H        0.925     0.021     2.713     2.576
     9   1 H        0.925     0.046     2.372     2.408
    10   1 H        0.925     0.046     2.372     2.409
    11   1 H        0.924     0.007     2.939     2.681

Wiberg/Mayer (AO) data.
largest (>0.10) Wiberg bond orders for each atom

     #   Z sym  total        # sym  WBO       # sym  WBO       # sym  WBO
 ---------------------------------------------------------------------------
     1   6 C    3.988 --     2 C    1.035     7 H    0.983     8 H    0.983
                             3 S    0.730
     2   6 C    3.996 --     1 C    1.035    11 H    0.984    10 H    0.984
                             9 H    0.984
     3  16 S    5.167 --     4 O    1.477     5 O    1.473     6 O    1.473
                             1 C    0.730
     4   8 O    1.783 --     3 S    1.477     5 O    0.106     6 O    0.106
     5   8 O    1.781 --     3 S    1.473     6 O    0.106     4 O    0.106
     6   8 O    1.781 --     3 S    1.473     5 O    0.106     4 O    0.106
     7   1 H    1.000 --     1 C    0.983
     8   1 H    1.000 --     1 C    0.983
     9   1 H    0.998 --     2 C    0.984
    10   1 H    0.998 --     2 C    0.984
    11   1 H    1.000 --     2 C    0.984
 ---------------------------------------------------------------------------

molecular dipole:
                 x           y           z       tot (Debye)
 q only:       -0.482      -1.686      -3.757
   full:       -0.398      -1.770      -3.959      11.069

           -------------------------------------------------
          | TOTAL ENERGY              -22.521772000522 Eh   |
          | GRADIENT NORM               0.000515629249 Eh/α |
          | HOMO-LUMO GAP               8.370067765487 eV   |
           -------------------------------------------------

 * finished run on 2024/12/20 at 01:52:47.739
