   * xtb version 6.7.1 (edcfbbe) compiled by 'conda@3ef47c1a292c' on 2024-11-25

   ID    Z sym.   atoms
    1    6 C      1-4, 6-11
    2    8 O      5
    3    9 F      12, 13, 15-19
    4    5 B      14
    5    1 H      20-28

          program call               : xtb A051.xyz --opt --namespace A051 --charge -1
          :  Hamiltonian                  GFN2-xTB          :
 * total energy  :   -64.6869510 Eh     change       -0.1160316E-09 Eh
 * total energy  :   -64.7655478 Eh     change       -0.7859675E-01 Eh
 * total energy  :   -64.7990327 Eh     change       -0.3348495E-01 Eh
 * total energy  :   -64.8127257 Eh     change       -0.1369302E-01 Eh
 * total energy  :   -64.8210363 Eh     change       -0.8310592E-02 Eh
 * total energy  :   -64.8262167 Eh     change       -0.5180360E-02 Eh
 * total energy  :   -64.8297865 Eh     change       -0.3569809E-02 Eh
 * total energy  :   -64.8322503 Eh     change       -0.2463762E-02 Eh
 * total energy  :   -64.8339306 Eh     change       -0.1680319E-02 Eh
 * total energy  :   -64.8350542 Eh     change       -0.1123597E-02 Eh
 * total energy  :   -64.8375358 Eh     change       -0.1194969E-04 Eh
 * total energy  :   -64.8375466 Eh     change       -0.1081207E-04 Eh
 * total energy  :   -64.8375558 Eh     change       -0.9229735E-05 Eh
 * total energy  :   -64.8375635 Eh     change       -0.7668612E-05 Eh
 * total energy  :   -64.8375702 Eh     change       -0.6770704E-05 Eh
 * total energy  :   -64.8375766 Eh     change       -0.6371478E-05 Eh
 * total energy  :   -64.8375831 Eh     change       -0.6471520E-05 Eh
 * total energy  :   -64.8375895 Eh     change       -0.6449059E-05 Eh
 * total energy  :   -64.8375941 Eh     change       -0.4551558E-05 Eh
   *** GEOMETRY OPTIMIZATION CONVERGED AFTER 44 ITERATIONS ***

 final structure:
================
28
 xtb: 6.7.1 (edcfbbe)
C            0.89695463334443       -0.17823297330478        0.02086377606852
C           -0.09687662270830       -1.34411084311155       -0.01471115445967
C            0.76937105722001        0.58133413365682        1.34167899132329
C            0.64843147629916        0.76711929539604       -1.15688901805122
O            2.23375646509131       -0.67292143626056       -0.19866268457016
C            2.98527636930097       -1.04399242376225        0.88506107731410
C            3.88317217665096       -0.14908946047034        1.46473142962196
C            4.69436865163561       -0.51482011339443        2.53181652390574
C            4.66384095668804       -1.78512676081635        3.08999468494997
C            3.77958416166390       -2.67482047745790        2.49388918548289
C            2.96637535128092       -2.33000314831083        1.42040898426219
F            2.13727543837646       -3.25831903779695        0.88459347347618
F            3.66966654233434       -3.93374283468424        2.94761691155707
B            5.56392142142478       -2.27354116214765        4.42556181888270
F            4.67604351542598       -2.56648863596704        5.46040408961203
F            6.29705216959160       -3.40862683891261        4.09754581996504
F            6.43557134240150       -1.28640240559281        4.85092320844247
F            5.51491135011960        0.43483480663885        3.01076089020629
F            3.94951155211126        1.11075952532555        0.96733453931979
H            0.03230578272387       -1.98774417245421        0.85072334629649
H           -1.11637817443028       -0.96552515776062       -0.01871134273866
H            0.06681796297835       -1.93844536007015       -0.91006423907615
H            1.48178766559673        1.40147121652917        1.38178119327166
H           -0.23526851746973        0.98827550686301        1.42790565462570
H            0.94997791516163       -0.07949437690181        2.18769929100334
H            1.37076807527873        1.57872218652146       -1.13123066098554
H            0.77164562921294        0.22619071895544       -2.09115625539834
H           -0.35635434730708        1.17842022929224       -1.10895953430689

          :  Hamiltonian                  GFN2-xTB          :
         :: total energy             -64.837594092818 Eh    ::
         :: gradient norm              0.000259580958 Eh/a0 ::
         :: HOMO-LUMO gap              3.353394167651 eV    ::
         :: SCC energy               -65.319872898724 Eh    ::
         :: -> dispersion             -0.027274111925 Eh    ::
         :: repulsion energy           0.482278805906 Eh    ::

    * Orbital Energies and Occupations

         #    Occupation            Energy/Eh            Energy/eV
      -------------------------------------------------------------
         1        2.0000           -0.7297873             -19.8585
       ...           ...                  ...                  ...
        42        2.0000           -0.3535250              -9.6199
        43        2.0000           -0.3447655              -9.3815
        44        2.0000           -0.3427262              -9.3261
        45        2.0000           -0.3395125              -9.2386
        46        2.0000           -0.3226898              -8.7808
        47        2.0000           -0.3092345              -8.4147
        48        2.0000           -0.3045858              -8.2882
        49        2.0000           -0.3023208              -8.2266
        50        2.0000           -0.2998918              -8.1605
        51        2.0000           -0.2946798              -8.0186
        52        2.0000           -0.2925271              -7.9601
        53        2.0000           -0.2915986              -7.9348
        54        2.0000           -0.2678088              -7.2874 (HOMO)
        55                         -0.1445738              -3.9341 (LUMO)
        56                         -0.1409579              -3.8357
        57                         -0.0171721              -0.4673
        58                          0.0722470               1.9659
        59                          0.1091695               2.9707
        60                          0.1378760               3.7518
        61                          0.1474479               4.0123
        62                          0.1632209               4.4415
        63                          0.1689131               4.5964
        64                          0.1754915               4.7754
        65                          0.2204499               5.9987
       ...                                ...                  ...
        85                          0.7214762              19.6324
      -------------------------------------------------------------
                  HL-Gap            0.1232350 Eh            3.3534 eV

     #   Z          covCN         q      C6AA      α(0)
     1   6 C        3.783     0.155    18.113     6.063
     2   6 C        3.756    -0.117    22.793     6.807
     3   6 C        3.756    -0.115    22.747     6.800
     4   6 C        3.757    -0.115    22.744     6.799
     5   8 O        1.702    -0.298    18.950     5.877
     6   6 C        2.851     0.104    25.697     8.308
     7   6 C        2.783     0.111    25.538     8.277
     8   6 C        2.789     0.145    24.834     8.163
     9   6 C        2.858    -0.118    30.995     9.125
    10   6 C        2.791     0.147    24.790     8.156
    11   6 C        2.782     0.109    25.575     8.283
    12   9 F        0.786    -0.209    11.326     3.975
    13   9 F        0.788    -0.186    11.096     3.935
    14   5 B        3.037     0.597    13.530     6.136
    15   9 F        0.721    -0.408    13.627     4.359
    16   9 F        0.721    -0.404    13.585     4.352
    17   9 F        0.721    -0.400    13.529     4.344
    18   9 F        0.788    -0.188    11.112     3.938
    19   9 F        0.786    -0.210    11.344     3.978
    20   1 H        0.925     0.053     2.288     2.365
    21   1 H        0.925     0.030     2.590     2.516
    22   1 H        0.925     0.050     2.315     2.379
    23   1 H        0.925     0.054     2.266     2.354
    24   1 H        0.925     0.035     2.516     2.480
    25   1 H        0.925     0.039     2.463     2.454
    26   1 H        0.925     0.054     2.268     2.355
    27   1 H        0.925     0.049     2.326     2.385
    28   1 H        0.925     0.035     2.521     2.483

Wiberg/Mayer (AO) data.
largest (>0.10) Wiberg bond orders for each atom

     #   Z sym  total        # sym  WBO       # sym  WBO       # sym  WBO
 ---------------------------------------------------------------------------
     1   6 C    3.939 --     3 C    0.997     4 C    0.993     2 C    0.991
                             5 O    0.913
     2   6 C    3.995 --     1 C    0.991    21 H    0.985    22 H    0.985
                            20 H    0.984
     3   6 C    3.995 --     1 C    0.997    24 H    0.985    25 H    0.983
                            23 H    0.983
     4   6 C    3.994 --     1 C    0.993    28 H    0.986    27 H    0.985
                            26 H    0.985
     5   8 O    2.121 --     6 C    1.034     1 C    0.913
     6   6 C    3.953 --    11 C    1.342     7 C    1.340     5 O    1.034
                             9 C    0.100
     7   6 C    3.885 --     8 C    1.352     6 C    1.340    19 F    0.961
     8   6 C    3.896 --     9 C    1.377     7 C    1.352    18 F    0.984
     9   6 C    3.845 --     8 C    1.377    10 C    1.377    14 B    0.778
                             6 C    0.100
    10   6 C    3.896 --     9 C    1.377    11 C    1.350    13 F    0.985
    11   6 C    3.885 --    10 C    1.350     6 C    1.342    12 F    0.962
    12   9 F    1.092 --    11 C    0.962
    13   9 F    1.127 --    10 C    0.985
    14   5 B    3.323 --    17 F    0.847    16 F    0.837    15 F    0.830
                             9 C    0.778
    15   9 F    0.919 --    14 B    0.830
    16   9 F    0.923 --    14 B    0.837
    17   9 F    0.930 --    14 B    0.847
    18   9 F    1.124 --     8 C    0.984
    19   9 F    1.090 --     7 C    0.961
    20   1 H    0.997 --     2 C    0.984
    21   1 H    0.999 --     2 C    0.985
    22   1 H    0.997 --     2 C    0.985
    23   1 H    0.997 --     3 C    0.983
    24   1 H    0.999 --     3 C    0.985
    25   1 H    0.998 --     3 C    0.983
    26   1 H    0.997 --     4 C    0.985
    27   1 H    0.998 --     4 C    0.985
    28   1 H    0.998 --     4 C    0.986
 ---------------------------------------------------------------------------

molecular dipole:
                 x           y           z       tot (Debye)
 q only:      -10.299       4.220      -7.293
   full:      -10.524       4.291      -7.428      34.510

           -------------------------------------------------
          | TOTAL ENERGY              -64.837594092818 Eh   |
          | GRADIENT NORM               0.000259580958 Eh/α |
          | HOMO-LUMO GAP               3.353394167651 eV   |
           -------------------------------------------------

 * finished run on 2024/12/20 at 01:52:48.335
