   * xtb version 6.7.1 (edcfbbe) compiled by 'conda@3ef47c1a292c' on 2024-11-25

   ID    Z sym.   atoms
    1    6 C      1, 2, 7, 8
    2    8 O      3, 5, 6, 9
    3   15 P      4
    4    1 H      10-19

          program call               : xtb A052.xyz --opt --namespace A052 --charge -1
          :  Hamiltonian                  GFN2-xTB          :
 * total energy  :   -32.6599035 Eh     change       -0.3919354E-10 Eh
 * total energy  :   -32.7319847 Eh     change       -0.7208122E-01 Eh
 * total energy  :   -32.7794881 Eh     change       -0.4750340E-01 Eh
 * total energy  :   -32.8036381 Eh     change       -0.2414992E-01 Eh
 * total energy  :   -32.8197988 Eh     change       -0.1616072E-01 Eh
 * total energy  :   -32.8318244 Eh     change       -0.1202566E-01 Eh
 * total energy  :   -32.8344506 Eh     change       -0.2626161E-02 Eh
 * total energy  :   -32.8370331 Eh     change       -0.2582499E-02 Eh
 * total energy  :   -32.8381211 Eh     change       -0.1088029E-02 Eh
 * total energy  :   -32.8388208 Eh     change       -0.6996909E-03 Eh
 * total energy  :   -32.8432698 Eh     change       -0.5356109E-05 Eh
 * total energy  :   -32.8432771 Eh     change       -0.7321755E-05 Eh
 * total energy  :   -32.8432860 Eh     change       -0.8889127E-05 Eh
 * total energy  :   -32.8432938 Eh     change       -0.7829341E-05 Eh
 * total energy  :   -32.8433028 Eh     change       -0.9003660E-05 Eh
 * total energy  :   -32.8433089 Eh     change       -0.6047309E-05 Eh
 * total energy  :   -32.8433144 Eh     change       -0.5543225E-05 Eh
 * total energy  :   -32.8433231 Eh     change       -0.8698894E-05 Eh
 * total energy  :   -32.8433272 Eh     change       -0.4124728E-05 Eh
   *** GEOMETRY OPTIMIZATION CONVERGED AFTER 44 ITERATIONS ***

 final structure:
================
19
 xtb: 6.7.1 (edcfbbe)
C            0.81000232995554        0.05035609710384       -0.40851289269791
C            0.86123563055627       -0.95413988203449        0.73837012273129
O            0.02329703581580        1.15292186870641       -0.09559112256676
P            0.80864617556534        2.27696380056123        0.90433913209084
O            2.19403025179871        2.44785512440031        0.41204144438523
O           -0.06963000433845        3.59884891597788        0.44395601026366
C           -1.30026459678018        3.78735571589173        1.07333891536889
C           -2.42858802310899        3.06084187013469        0.34979770158468
O            0.49939143164771        1.95403653673144        2.32495282926065
H            0.37556520069942       -0.41187243495131       -1.30968464542838
H            1.83135285635293        0.38468621400271       -0.63657700550337
H            1.21786111690219       -0.42835120101240        1.61954774148644
H           -0.13511022606119       -1.34143436631050        0.94532289157088
H            1.53023737966045       -1.78031513073534        0.50019062608828
H           -1.23456969971100        3.41770178841529        2.10480105246255
H           -1.48989212113959        4.87161804286635        1.08953101942134
H           -2.18921070188601        2.00208048131016        0.32453492429960
H           -3.37555094885580        3.21634141731585        0.86622934786519
H           -2.51075308707330        3.42162514162559       -0.67395809268324

          :  Hamiltonian                  GFN2-xTB          :
         :: total energy             -32.843327245934 Eh    ::
         :: gradient norm              0.000625823035 Eh/a0 ::
         :: HOMO-LUMO gap              9.730321179665 eV    ::
         :: SCC energy               -33.113413062435 Eh    ::
         :: -> dispersion             -0.015597944508 Eh    ::
         :: repulsion energy           0.270085816501 Eh    ::

    * Orbital Energies and Occupations

         #    Occupation            Energy/Eh            Energy/eV
      -------------------------------------------------------------
         1        2.0000           -0.5385477             -14.6546
       ...           ...                  ...                  ...
        16        2.0000           -0.3466316              -9.4323
        17        2.0000           -0.3376700              -9.1885
        18        2.0000           -0.3356408              -9.1333
        19        2.0000           -0.3283042              -8.9336
        20        2.0000           -0.3041486              -8.2763
        21        2.0000           -0.3008137              -8.1856
        22        2.0000           -0.2922373              -7.9522
        23        2.0000           -0.2724703              -7.4143
        24        2.0000           -0.2554357              -6.9508
        25        2.0000           -0.2421250              -6.5886
        26        2.0000           -0.2397544              -6.5241
        27        2.0000           -0.2344487              -6.3797
        28        2.0000           -0.2216577              -6.0316 (HOMO)
        29                          0.1359250               3.6987 (LUMO)
        30                          0.1397047               3.8016
        31                          0.1971322               5.3642
        32                          0.2292745               6.2389
        33                          0.2545632               6.9270
        34                          0.2577902               7.0148
        35                          0.2625615               7.1447
        36                          0.2648184               7.2061
        37                          0.2877534               7.8302
        38                          0.2934570               7.9854
        39                          0.3032276               8.2512
       ...                                ...                  ...
        51                          1.4059091              38.2567
      -------------------------------------------------------------
                  HL-Gap            0.3575827 Eh            9.7303 eV

     #   Z          covCN         q      C6AA      α(0)
     1   6 C        3.957     0.112    18.690     6.143
     2   6 C        3.750    -0.107    22.607     6.781
     3   8 O        1.658    -0.342    19.761     6.001
     4  15 P        3.778     0.398   143.759    21.538
     5   8 O        0.808    -0.505    23.917     6.556
     6   8 O        1.659    -0.308    19.145     5.907
     7   6 C        3.937     0.103    18.823     6.165
     8   6 C        3.750    -0.107    22.605     6.781
     9   8 O        0.808    -0.521    24.290     6.607
    10   1 H        0.923    -0.005     3.142     2.772
    11   1 H        0.923     0.028     2.622     2.532
    12   1 H        0.925     0.066     2.125     2.279
    13   1 H        0.925     0.028     2.617     2.530
    14   1 H        0.925     0.011     2.879     2.653
    15   1 H        0.924     0.040     2.449     2.447
    16   1 H        0.923     0.001     3.035     2.724
    17   1 H        0.925     0.065     2.141     2.288
    18   1 H        0.925     0.013     2.835     2.633
    19   1 H        0.925     0.029     2.595     2.519

Wiberg/Mayer (AO) data.
largest (>0.10) Wiberg bond orders for each atom

     #   Z sym  total        # sym  WBO       # sym  WBO       # sym  WBO
 ---------------------------------------------------------------------------
     1   6 C    3.962 --     2 C    1.007     3 O    0.994    10 H    0.970
                            11 H    0.963
     2   6 C    3.996 --     1 C    1.007    14 H    0.989    13 H    0.989
                            12 H    0.979
     3   8 O    2.217 --     4 P    0.998     1 C    0.994
     4  15 P    5.766 --     5 O    1.834     9 O    1.793     6 O    1.091
                             3 O    0.998
     5   8 O    2.069 --     4 P    1.834
     6   8 O    2.277 --     4 P    1.091     7 C    0.984
     7   6 C    3.956 --     8 C    1.008     6 O    0.984    16 H    0.971
                            15 H    0.963
     8   6 C    3.996 --     7 C    1.008    19 H    0.989    18 H    0.989
                            17 H    0.981
     9   8 O    2.048 --     4 P    1.793
    10   1 H    1.000 --     1 C    0.970
    11   1 H    0.999 --     1 C    0.963
    12   1 H    0.996 --     2 C    0.979
    13   1 H    0.999 --     2 C    0.989
    14   1 H    1.000 --     2 C    0.989
    15   1 H    0.998 --     7 C    0.963
    16   1 H    1.000 --     7 C    0.971
    17   1 H    0.996 --     8 C    0.981
    18   1 H    0.999 --     8 C    0.989
    19   1 H    0.999 --     8 C    0.989
 ---------------------------------------------------------------------------

molecular dipole:
                 x           y           z       tot (Debye)
 q only:       -2.041      -4.410      -1.868
   full:       -2.242      -4.450      -2.015      13.661

           -------------------------------------------------
          | TOTAL ENERGY              -32.843327245934 Eh   |
          | GRADIENT NORM               0.000625823035 Eh/α |
          | HOMO-LUMO GAP               9.730321179665 eV   |
           -------------------------------------------------

 * finished run on 2024/12/20 at 01:52:48.822
