   * xtb version 6.7.1 (edcfbbe) compiled by 'conda@3ef47c1a292c' on 2024-11-25

   ID    Z sym.   atoms
    1    6 C      1-6
    2   16 S      7
    3    8 O      8-10
    4    1 H      11-23

          program call               : xtb A053.xyz --opt --namespace A053 --charge -1
          :  Hamiltonian                  GFN2-xTB          :
 * total energy  :   -35.1712639 Eh     change       -0.1311662E-10 Eh
 * total energy  :   -35.1758908 Eh     change       -0.4626905E-02 Eh
 * total energy  :   -35.1781890 Eh     change       -0.2298118E-02 Eh
 * total energy  :   -35.1790348 Eh     change       -0.8458379E-03 Eh
 * total energy  :   -35.1795488 Eh     change       -0.5140470E-03 Eh
 * total energy  :   -35.1799983 Eh     change       -0.4494464E-03 Eh
 * total energy  :   -35.1803674 Eh     change       -0.3691110E-03 Eh
 * total energy  :   -35.1806966 Eh     change       -0.3291847E-03 Eh
 * total energy  :   -35.1809914 Eh     change       -0.2947750E-03 Eh
 * total energy  :   -35.1811816 Eh     change       -0.1902398E-03 Eh
 * total energy  :   -35.1812627 Eh     change       -0.8109766E-04 Eh
 * total energy  :   -35.1812875 Eh     change       -0.2475559E-04 Eh
 * total energy  :   -35.1813259 Eh     change       -0.3844762E-04 Eh
 * total energy  :   -35.1813393 Eh     change       -0.1339348E-04 Eh
 * total energy  :   -35.1813502 Eh     change       -0.1090449E-04 Eh
 * total energy  :   -35.1813546 Eh     change       -0.4436203E-05 Eh
   *** GEOMETRY OPTIMIZATION CONVERGED AFTER 16 ITERATIONS ***

 final structure:
================
23
 xtb: 6.7.1 (edcfbbe)
C            1.19816252540887        0.13335158572644       -0.13714902888493
C            0.47587964946751        0.77712689755418        1.02516353695953
C            0.85950039676135        2.23892024380099        1.25434601917285
C            0.42059913572893        3.17943429373293        0.13319395508870
C           -1.09259478418812        3.32529317044023       -0.02457854118949
C           -1.80680182388649        3.81748677635164        1.23074933815235
S            0.26300413301123        0.32241467637434       -1.71699295682619
O            0.55625343877872       -0.91701237519344       -2.43604695366110
O           -1.14608217111478        0.45371682461650       -1.34107357717808
O            0.81177835935434        1.50692807506778       -2.38063901271590
H            1.26786939203684       -0.94436305780667       -0.02417364689597
H            2.18413982922057        0.54961709626123       -0.32042791998070
H           -0.59094827704627        0.70195363514421        0.80874889594661
H            0.67714422443565        0.21979261967266        1.95012744515003
H            0.43366166626471        2.57287072342673        2.20671103924243
H            1.94924351883487        2.30259657163994        1.35241006332578
H            0.86285453479062        4.16627197110158        0.31745754832254
H            0.80132536175746        2.79503772244884       -0.81561584754346
H           -1.27224911226737        4.03769177176436       -0.83382828410615
H           -1.49992825322012        2.36723926485437       -0.34906575622665
H           -1.33756982345114        4.72606002413730        1.61130111541031
H           -2.85012859022892        4.03933094610946        1.01086191524581
H           -1.78438333044858        3.06550054277282        2.01599065319120

          :  Hamiltonian                  GFN2-xTB          :
         :: total energy             -35.181354640033 Eh    ::
         :: gradient norm              0.000614708626 Eh/a0 ::
         :: HOMO-LUMO gap              8.290210184150 eV    ::
         :: SCC energy               -35.527288667869 Eh    ::
         :: -> dispersion             -0.021373759962 Eh    ::
         :: repulsion energy           0.345934027835 Eh    ::

    * Orbital Energies and Occupations

         #    Occupation            Energy/Eh            Energy/eV
      -------------------------------------------------------------
         1        2.0000           -0.5604191             -15.2498
       ...           ...                  ...                  ...
        19        2.0000           -0.3258658              -8.8673
        20        2.0000           -0.3196621              -8.6984
        21        2.0000           -0.3094206              -8.4198
        22        2.0000           -0.3054021              -8.3104
        23        2.0000           -0.2959992              -8.0545
        24        2.0000           -0.2908397              -7.9142
        25        2.0000           -0.2884489              -7.8491
        26        2.0000           -0.2509149              -6.8277
        27        2.0000           -0.2498677              -6.7992
        28        2.0000           -0.2326474              -6.3307
        29        2.0000           -0.2291481              -6.2354
        30        2.0000           -0.2187107              -5.9514
        31        2.0000           -0.2176982              -5.9239 (HOMO)
        32                          0.0869614               2.3663 (LUMO)
        33                          0.1459800               3.9723
        34                          0.1676311               4.5615
        35                          0.1807666               4.9189
        36                          0.2170557               5.9064
        37                          0.2222552               6.0479
        38                          0.2359521               6.4206
        39                          0.2395284               6.5179
        40                          0.2615394               7.1168
        41                          0.2663279               7.2472
        42                          0.2861191               7.7857
       ...                                ...                  ...
        58                          1.3463382              36.6357
      -------------------------------------------------------------
                  HL-Gap            0.3046596 Eh            8.2902 eV

     #   Z          covCN         q      C6AA      α(0)
     1   6 C        3.794    -0.143    23.265     6.869
     2   6 C        3.827    -0.058    21.590     6.612
     3   6 C        3.800    -0.048    21.443     6.593
     4   6 C        3.800    -0.070    21.846     6.655
     5   6 C        3.800    -0.062    21.690     6.631
     6   6 C        3.750    -0.092    22.318     6.737
     7  16 S        3.572     1.125   103.132    17.092
     8   8 O        0.860    -0.673    27.973     7.091
     9   8 O        0.860    -0.672    27.949     7.088
    10   8 O        0.860    -0.673    27.968     7.091
    11   1 H        0.925     0.027     2.624     2.533
    12   1 H        0.925     0.027     2.623     2.533
    13   1 H        0.924     0.060     2.196     2.317
    14   1 H        0.923     0.004     2.984     2.701
    15   1 H        0.924     0.012     2.859     2.644
    16   1 H        0.924     0.011     2.882     2.655
    17   1 H        0.924     0.002     3.024     2.719
    18   1 H        0.924     0.078     2.000     2.211
    19   1 H        0.924     0.019     2.749     2.593
    20   1 H        0.924     0.073     2.058     2.243
    21   1 H        0.924     0.013     2.835     2.633
    22   1 H        0.925     0.015     2.816     2.624
    23   1 H        0.925     0.024     2.678     2.559

Wiberg/Mayer (AO) data.
largest (>0.10) Wiberg bond orders for each atom

     #   Z sym  total        # sym  WBO       # sym  WBO       # sym  WBO
 ---------------------------------------------------------------------------
     1   6 C    3.986 --     2 C    1.022    11 H    0.983    12 H    0.980
                             7 S    0.728
     2   6 C    3.995 --     1 C    1.022     3 C    1.008    14 H    0.976
                            13 H    0.963
     3   6 C    3.999 --     4 C    1.008     2 C    1.008    16 H    0.978
                            15 H    0.976
     4   6 C    3.991 --     5 C    1.008     3 C    1.008    17 H    0.978
                            18 H    0.954
     5   6 C    3.991 --     6 C    1.017     4 C    1.008    19 H    0.978
                            20 H    0.962
     6   6 C    3.999 --     5 C    1.017    22 H    0.989    21 H    0.988
                            23 H    0.987
     7  16 S    5.135 --     8 O    1.478     9 O    1.457    10 O    1.453
                             1 C    0.728
     8   8 O    1.781 --     7 S    1.478    10 O    0.104     9 O    0.103
     9   8 O    1.789 --     7 S    1.457    10 O    0.105     8 O    0.103
    10   8 O    1.788 --     7 S    1.453     9 O    0.105     8 O    0.104
    11   1 H    0.999 --     1 C    0.983
    12   1 H    0.999 --     1 C    0.980
    13   1 H    0.996 --     2 C    0.963
    14   1 H    1.000 --     2 C    0.976
    15   1 H    1.000 --     3 C    0.976
    16   1 H    1.000 --     3 C    0.978
    17   1 H    1.000 --     4 C    0.978
    18   1 H    0.994 --     4 C    0.954
    19   1 H    1.000 --     5 C    0.978
    20   1 H    0.995 --     5 C    0.962
    21   1 H    1.000 --     6 C    0.988
    22   1 H    1.000 --     6 C    0.989
    23   1 H    0.999 --     6 C    0.987
 ---------------------------------------------------------------------------

molecular dipole:
                 x           y           z       tot (Debye)
 q only:        0.049      -1.008       3.885
   full:        0.185      -1.033       4.112      10.787

           -------------------------------------------------
          | TOTAL ENERGY              -35.181354640033 Eh   |
          | GRADIENT NORM               0.000614708626 Eh/α |
          | HOMO-LUMO GAP               8.290210184150 eV   |
           -------------------------------------------------

 * finished run on 2024/12/20 at 01:52:49.311
