   * xtb version 6.7.1 (edcfbbe) compiled by 'conda@3ef47c1a292c' on 2024-11-25

   ID    Z sym.   atoms
    1    9 F      1, 3, 4, 12-14
    2    6 C      2, 5, 11
    3    8 O      6, 9, 10
    4    7 N      7
    5   16 S      8

          program call               : xtb A054.xyz --opt --namespace A054 --charge -1
          :  Hamiltonian                  GFN2-xTB          :
 * total energy  :   -53.4596174 Eh     change       -0.2213838E-09 Eh
 * total energy  :   -53.4655862 Eh     change       -0.5968816E-02 Eh
 * total energy  :   -53.4677126 Eh     change       -0.2126399E-02 Eh
 * total energy  :   -53.4678428 Eh     change       -0.1301619E-03 Eh
 * total energy  :   -53.4679175 Eh     change       -0.7465994E-04 Eh
 * total energy  :   -53.4679452 Eh     change       -0.2770652E-04 Eh
 * total energy  :   -53.4679587 Eh     change       -0.1353461E-04 Eh
 * total energy  :   -53.4679698 Eh     change       -0.1113645E-04 Eh
 * total energy  :   -53.4679737 Eh     change       -0.3861189E-05 Eh
   *** GEOMETRY OPTIMIZATION CONVERGED AFTER 9 ITERATIONS ***

 final structure:
================
14
 xtb: 6.7.1 (edcfbbe)
F            1.26118541155589        0.09174616868640        0.23718098848501
C            2.56168458110615       -0.08652916938133       -0.05255757617561
F            3.10590477789126        1.14405656447835       -0.05883254670724
F            3.08866336822969       -0.72038037075465        1.01107862949488
C            2.78190185067938       -0.85654766864666       -1.39055976917440
O            1.81354096076729       -1.21792772695545       -2.02931734699726
N            4.06687846032701       -0.99152277740537       -1.61155908483120
S            4.52962573719865       -1.75679246458217       -2.94410274601018
O            4.34289855895668       -3.17755222950912       -2.94240808305542
O            4.33588732710082       -1.04510693929495       -4.17245451646494
C            6.38038702056703       -1.55816049138713       -2.61170004027127
F            6.75243313241531       -0.27645447754642       -2.53886859646446
F            6.76230855750634       -2.14641146520075       -1.47358813976152
F            7.10651025569848       -2.11483695250073       -3.59565117206638

          :  Hamiltonian                  GFN2-xTB          :
         :: total energy             -53.467973707665 Eh    ::
         :: gradient norm              0.000870726416 Eh/a0 ::
         :: HOMO-LUMO gap              4.726877188257 eV    ::
         :: SCC energy               -53.672987983830 Eh    ::
         :: -> dispersion             -0.014606296883 Eh    ::
         :: repulsion energy           0.205014276164 Eh    ::

    * Orbital Energies and Occupations

         #    Occupation            Energy/Eh            Energy/eV
      -------------------------------------------------------------
         1        2.0000           -0.7784572             -21.1829
       ...           ...                  ...                  ...
        30        2.0000           -0.4185177             -11.3884
        31        2.0000           -0.4174275             -11.3588
        32        2.0000           -0.4166684             -11.3381
        33        2.0000           -0.4145435             -11.2803
        34        2.0000           -0.4078483             -11.0981
        35        2.0000           -0.3978761             -10.8268
        36        2.0000           -0.3631881              -9.8829
        37        2.0000           -0.3522755              -9.5859
        38        2.0000           -0.3348316              -9.1112
        39        2.0000           -0.3240493              -8.8178
        40        2.0000           -0.2999566              -8.1622
        41        2.0000           -0.2978654              -8.1053
        42        2.0000           -0.2889265              -7.8621 (HOMO)
        43                         -0.1152169              -3.1352 (LUMO)
        44                         -0.0466304              -1.2689
        45                          0.0008713               0.0237
        46                          0.0451929               1.2298
        47                          0.0846692               2.3040
        48                          0.1543511               4.2001
        49                          0.1758122               4.7841
        50                          0.1930587               5.2534
        51                          0.1982570               5.3948
        52                          0.2049568               5.5772
        53                          0.2213695               6.0238
       ...                                ...                  ...
        61                          1.3595221              36.9945
      -------------------------------------------------------------
                  HL-Gap            0.1737095 Eh            4.7269 eV

     #   Z          covCN         q      C6AA      α(0)
     1   9 F        0.791    -0.205    11.290     3.969
     2   6 C        3.336     0.457    17.679     6.658
     3   9 F        0.790    -0.210    11.338     3.978
     4   9 F        0.790    -0.210    11.339     3.978
     5   6 C        2.989     0.281    22.244     7.736
     6   8 O        0.857    -0.447    22.642     6.380
     7   7 N        1.839    -0.492    34.116     8.656
     8  16 S        3.868     1.187   101.438    16.951
     9   8 O        0.860    -0.569    25.364     6.752
    10   8 O        0.860    -0.569    25.361     6.752
    11   6 C        3.311     0.366    19.328     7.017
    12   9 F        0.797    -0.194    11.172     3.948
    13   9 F        0.797    -0.194    11.174     3.949
    14   9 F        0.799    -0.202    11.258     3.964

Wiberg/Mayer (AO) data.
largest (>0.10) Wiberg bond orders for each atom

     #   Z sym  total        # sym  WBO       # sym  WBO       # sym  WBO
 ---------------------------------------------------------------------------
     1   9 F    1.069 --     2 C    0.952
     2   6 C    3.799 --     1 F    0.952     3 F    0.947     4 F    0.947
                             5 C    0.851
     3   9 F    1.067 --     2 C    0.947
     4   9 F    1.067 --     2 C    0.947
     5   6 C    3.967 --     6 O    1.640     7 N    1.383     2 C    0.851
     6   8 O    2.002 --     5 C    1.640     7 N    0.239
     7   7 N    2.959 --     5 C    1.383     8 S    1.036     6 O    0.239
                            10 O    0.101     9 O    0.101
     8  16 S    5.029 --    10 O    1.600     9 O    1.600     7 N    1.036
                            11 C    0.670
     9   8 O    1.917 --     8 S    1.600    10 O    0.114     7 N    0.101
    10   8 O    1.917 --     8 S    1.600     9 O    0.114     7 N    0.101
    11   6 C    3.758 --    12 F    0.964    13 F    0.964    14 F    0.953
                             8 S    0.670
    12   9 F    1.089 --    11 C    0.964
    13   9 F    1.089 --    11 C    0.964
    14   9 F    1.078 --    11 C    0.953
 ---------------------------------------------------------------------------

molecular dipole:
                 x           y           z       tot (Debye)
 q only:       -6.987       2.431       4.035
   full:       -6.985       2.480       4.117      21.552

           -------------------------------------------------
          | TOTAL ENERGY              -53.467973707665 Eh   |
          | GRADIENT NORM               0.000870726416 Eh/α |
          | HOMO-LUMO GAP               4.726877188257 eV   |
           -------------------------------------------------

 * finished run on 2024/12/20 at 01:52:49.479
