   * xtb version 6.7.1 (edcfbbe) compiled by 'conda@3ef47c1a292c' on 2024-11-25

   ID    Z sym.   atoms
    1    9 F      1, 10-19
    2    6 C      2, 3, 6-9
    3    8 O      4, 5

          program call               : xtb A055.xyz --opt --namespace A055 --charge -1
          :  Hamiltonian                  GFN2-xTB          :
 * total energy  :   -73.2615208 Eh     change       -0.1105747E-09 Eh
 * total energy  :   -73.2753780 Eh     change       -0.1385724E-01 Eh
 * total energy  :   -73.2817426 Eh     change       -0.6364633E-02 Eh
 * total energy  :   -73.2836434 Eh     change       -0.1900781E-02 Eh
 * total energy  :   -73.2848869 Eh     change       -0.1243515E-02 Eh
 * total energy  :   -73.2854741 Eh     change       -0.5871847E-03 Eh
 * total energy  :   -73.2858324 Eh     change       -0.3582744E-03 Eh
 * total energy  :   -73.2859093 Eh     change       -0.7692142E-04 Eh
 * total energy  :   -73.2859595 Eh     change       -0.5018722E-04 Eh
 * total energy  :   -73.2859942 Eh     change       -0.3473844E-04 Eh
 * total energy  :   -73.2862524 Eh     change       -0.8219698E-05 Eh
 * total energy  :   -73.2862614 Eh     change       -0.8963579E-05 Eh
 * total energy  :   -73.2862715 Eh     change       -0.1011031E-04 Eh
 * total energy  :   -73.2862848 Eh     change       -0.1331991E-04 Eh
 * total energy  :   -73.2862850 Eh     change       -0.1852525E-06 Eh
 * total energy  :   -73.2862989 Eh     change       -0.1383631E-04 Eh
 * total energy  :   -73.2863019 Eh     change       -0.3038379E-05 Eh
 * total energy  :   -73.2863048 Eh     change       -0.2927711E-05 Eh
 * total energy  :   -73.2863077 Eh     change       -0.2848625E-05 Eh
   *** GEOMETRY OPTIMIZATION CONVERGED AFTER 34 ITERATIONS ***

 final structure:
================
19
 xtb: 6.7.1 (edcfbbe)
F            1.23612528180495       -0.59468681766386       -0.06548935664187
C            2.50081048119129       -0.12371088344063       -0.30807561793253
C            2.70110007930340        0.48789943825179       -1.99806987185550
O            3.85543115403352        0.74440208993224       -2.18954316461352
O            1.63992056184904        0.50832039754904       -2.54999796989304
C            2.81474294330237        0.94837089832374        0.74026667594393
C            2.33720416485004        0.68324195103538        2.20914713117253
C            2.88944588917937       -0.57878938129187        2.92470796440282
C            4.43480754233354       -0.67075945984116        3.08167759315772
F            4.95646008505366        0.47863547471927        3.50518703969942
F            4.71093931571714       -1.58555191447659        4.02182651727073
F            5.06796649436233       -1.04051845040521        1.98653426792569
F            2.39564956594380       -0.56213551267950        4.19271708423183
F            2.43603758629635       -1.70992072929397        2.37265184497804
F            2.69179199023224        1.74676949937236        2.97934604346112
F            0.99429089691411        0.62996744060289        2.26953546826440
F            4.14715575033992        1.17485559258302        0.81783481356032
F            2.25359767951473        2.13056649963445        0.39384356499520
F            3.32891253777810       -1.19231613291150       -0.05074002812751

          :  Hamiltonian                  GFN2-xTB          :
         :: total energy             -73.286307669563 Eh    ::
         :: gradient norm              0.000972250305 Eh/a0 ::
         :: HOMO-LUMO gap              5.666941931442 eV    ::
         :: SCC energy               -73.524199173665 Eh    ::
         :: -> dispersion             -0.019024373807 Eh    ::
         :: repulsion energy           0.237891504102 Eh    ::

    * Orbital Energies and Occupations

         #    Occupation            Energy/Eh            Energy/eV
      -------------------------------------------------------------
         1        2.0000           -0.8400305             -22.8584
       ...           ...                  ...                  ...
        45        2.0000           -0.4340125             -11.8101
        46        2.0000           -0.4318584             -11.7515
        47        2.0000           -0.4280081             -11.6467
        48        2.0000           -0.4177837             -11.3685
        49        2.0000           -0.4033564             -10.9759
        50        2.0000           -0.3953593             -10.7583
        51        2.0000           -0.3927655             -10.6877
        52        2.0000           -0.3840639             -10.4509
        53        2.0000           -0.3824303             -10.4065
        54        2.0000           -0.3685505             -10.0288
        55        2.0000           -0.2977926              -8.1033
        56        2.0000           -0.2888651              -7.8604
        57        2.0000           -0.2566216              -6.9830 (HOMO)
        58                         -0.0483653              -1.3161 (LUMO)
        59                         -0.0080989              -0.2204
        60                         -0.0015172              -0.0413
        61                          0.0105945               0.2883
        62                          0.0312308               0.8498
        63                          0.0548543               1.4927
        64                          0.0778022               2.1171
        65                          0.1029035               2.8001
        66                          0.1129781               3.0743
        67                          0.1391443               3.7863
        68                          0.1623864               4.4188
       ...                                ...                  ...
        76                          1.0278635              27.9696
      -------------------------------------------------------------
                  HL-Gap            0.2082563 Eh            5.6669 eV

     #   Z          covCN         q      C6AA      α(0)
     1   9 F        0.786    -0.243    11.691     4.039
     2   6 C        3.372     0.191    21.147     7.187
     3   6 C        2.540     0.397    20.362     7.374
     4   8 O        0.856    -0.458    22.876     6.412
     5   8 O        0.856    -0.448    22.660     6.382
     6   6 C        3.518     0.319    16.917     6.068
     7   6 C        3.518     0.317    16.945     6.073
     8   6 C        3.519     0.315    16.970     6.076
     9   6 C        3.329     0.486    17.389     6.620
    10   9 F        0.791    -0.173    10.960     3.911
    11   9 F        0.793    -0.178    11.007     3.919
    12   9 F        0.791    -0.151    10.746     3.872
    13   9 F        0.791    -0.188    11.113     3.938
    14   9 F        0.789    -0.162    10.850     3.891
    15   9 F        0.789    -0.198    11.210     3.955
    16   9 F        0.789    -0.173    10.962     3.911
    17   9 F        0.789    -0.205    11.291     3.969
    18   9 F        0.790    -0.195    11.180     3.950
    19   9 F        0.787    -0.254    11.804     4.058

Wiberg/Mayer (AO) data.
largest (>0.10) Wiberg bond orders for each atom

     #   Z sym  total        # sym  WBO       # sym  WBO       # sym  WBO
 ---------------------------------------------------------------------------
     1   9 F    1.033 --     2 C    0.935
     2   6 C    3.574 --     1 F    0.935     6 C    0.931    19 F    0.926
                             3 C    0.540
     3   6 C    3.944 --     5 O    1.685     4 O    1.676     2 C    0.540
     4   8 O    2.049 --     3 C    1.676     5 O    0.266
     5   8 O    2.061 --     3 C    1.685     4 O    0.266
     6   6 C    3.843 --    18 F    0.959    17 F    0.955     2 C    0.931
                             7 C    0.892
     7   6 C    3.870 --    16 F    0.977    15 F    0.952     8 C    0.917
                             6 C    0.892
     8   6 C    3.886 --    14 F    0.987    13 F    0.955     7 C    0.917
                             9 C    0.897
     9   6 C    3.873 --    12 F    0.993    10 F    0.969    11 F    0.958
                             8 C    0.897
    10   9 F    1.101 --     9 C    0.969
    11   9 F    1.091 --     9 C    0.958
    12   9 F    1.128 --     9 C    0.993
    13   9 F    1.068 --     8 C    0.955
    14   9 F    1.103 --     8 C    0.987
    15   9 F    1.064 --     7 C    0.952
    16   9 F    1.092 --     7 C    0.977
    17   9 F    1.062 --     6 C    0.955
    18   9 F    1.072 --     6 C    0.959
    19   9 F    1.022 --     2 C    0.926
 ---------------------------------------------------------------------------

molecular dipole:
                 x           y           z       tot (Debye)
 q only:       -5.086      -0.587       1.236
   full:       -5.092      -0.651       1.548      13.628

           -------------------------------------------------
          | TOTAL ENERGY              -73.286307669563 Eh   |
          | GRADIENT NORM               0.000972250305 Eh/α |
          | HOMO-LUMO GAP               5.666941931442 eV   |
           -------------------------------------------------

 * finished run on 2024/12/20 at 01:52:50.126
