   * xtb version 6.7.1 (edcfbbe) compiled by 'conda@3ef47c1a292c' on 2024-11-25

   ID    Z sym.   atoms
    1    6 C      1, 2
    2    8 O      3-6
    3    1 H      7

          program call               : xtb A056.xyz --opt --namespace A056 --charge -1
          :  Hamiltonian                  GFN2-xTB          :
 * total energy  :   -21.3025827 Eh     change       -0.9592327E-12 Eh
 * total energy  :   -21.3074914 Eh     change       -0.4908685E-02 Eh
 * total energy  :   -21.3084607 Eh     change       -0.9693365E-03 Eh
 * total energy  :   -21.3086788 Eh     change       -0.2180783E-03 Eh
 * total energy  :   -21.3087719 Eh     change       -0.9309911E-04 Eh
 * total energy  :   -21.3088221 Eh     change       -0.5014741E-04 Eh
 * total energy  :   -21.3088607 Eh     change       -0.3859015E-04 Eh
 * total energy  :   -21.3088731 Eh     change       -0.1244999E-04 Eh
 * total energy  :   -21.3088730 Eh     change        0.5541632E-07 Eh
 * total energy  :   -21.3088779 Eh     change       -0.4830422E-05 Eh
   *** GEOMETRY OPTIMIZATION CONVERGED AFTER 10 ITERATIONS ***

 final structure:
================
7
 xtb: 6.7.1 (edcfbbe)
C            1.08634650470432        0.00032861703830        0.12502370518096
C            0.41123392137270        0.81389824905669       -1.04943877467206
O           -0.80618837054184        0.88265248730327       -1.15065111020144
O            1.31688973729641        1.31433870317501       -1.77729573134550
O            0.54143033284139       -0.61429690924078        1.01377376212932
O            2.40349416199696        0.10504811811386       -0.02625125615382
H            2.39824371233007        0.70395073455366       -0.89105059493746

          :  Hamiltonian                  GFN2-xTB          :
         :: total energy             -21.308877875577 Eh    ::
         :: gradient norm              0.000784454724 Eh/a0 ::
         :: HOMO-LUMO gap              2.834541792802 eV    ::
         :: SCC energy               -21.432035508181 Eh    ::
         :: -> dispersion             -0.004080396957 Eh    ::
         :: repulsion energy           0.123157632604 Eh    ::

    * Orbital Energies and Occupations

         #    Occupation            Energy/Eh            Energy/eV
      -------------------------------------------------------------
         1        2.0000           -0.5665311             -15.4161
       ...           ...                  ...                  ...
         5        2.0000           -0.4620160             -12.5721
         6        2.0000           -0.4482570             -12.1977
         7        2.0000           -0.4027826             -10.9603
         8        2.0000           -0.4011899             -10.9169
         9        2.0000           -0.3862538             -10.5105
        10        2.0000           -0.3512682              -9.5585
        11        2.0000           -0.3421458              -9.3103
        12        2.0000           -0.3304809              -8.9928
        13        2.0000           -0.3019726              -8.2171
        14        2.0000           -0.2928081              -7.9677
        15        2.0000           -0.2492786              -6.7832
        16        2.0000           -0.2378579              -6.4724
        17        2.0000           -0.1959114              -5.3310 (HOMO)
        18                         -0.0917439              -2.4965 (LUMO)
        19                          0.0185119               0.5037
        20                          0.2502487               6.8096
        21                          0.2640509               7.1852
        22                          0.4110869              11.1862
        23                          0.5384719              14.6526
        24                          0.7005539              19.0630
        25                          0.9133566              24.8537
      -------------------------------------------------------------
                  HL-Gap            0.1041675 Eh            2.8345 eV

     #   Z          covCN         q      C6AA      α(0)
     1   6 C        2.683     0.298    21.935     7.664
     2   6 C        2.680     0.324    21.487     7.586
     3   8 O        0.856    -0.512    24.061     6.576
     4   8 O        0.870    -0.574    25.490     6.769
     5   8 O        0.856    -0.436    22.416     6.348
     6   8 O        1.636    -0.441    21.680     6.285
     7   1 H        0.795     0.342     0.610     1.228

Wiberg/Mayer (AO) data.
largest (>0.10) Wiberg bond orders for each atom

     #   Z sym  total        # sym  WBO       # sym  WBO       # sym  WBO
 ---------------------------------------------------------------------------
     1   6 C    3.874 --     5 O    1.743     6 O    1.193     2 C    0.834
     2   6 C    3.943 --     3 O    1.613     4 O    1.421     1 C    0.834
     3   8 O    1.936 --     2 C    1.613     4 O    0.233
     4   8 O    1.944 --     2 C    1.421     3 O    0.233     7 H    0.165
     5   8 O    2.012 --     1 C    1.743     6 O    0.176
     6   8 O    2.168 --     1 C    1.193     7 H    0.703     5 O    0.176
     7   1 H    0.883 --     6 O    0.703     4 O    0.165
 ---------------------------------------------------------------------------

molecular dipole:
                 x           y           z       tot (Debye)
 q only:       -0.688      -0.909       1.082
   full:       -0.596      -0.868       1.023       3.730

           -------------------------------------------------
          | TOTAL ENERGY              -21.308877875577 Eh   |
          | GRADIENT NORM               0.000784454724 Eh/α |
          | HOMO-LUMO GAP               2.834541792802 eV   |
           -------------------------------------------------

 * finished run on 2024/12/20 at 01:52:50.177
