   * xtb version 6.7.1 (edcfbbe) compiled by 'conda@3ef47c1a292c' on 2024-11-25

   ID    Z sym.   atoms
    1    6 C      1-3, 5-7
    2    7 N      4
    3    8 O      8, 9
    4    1 H      10-13

          program call               : xtb A057.xyz --opt --namespace A057 --charge -1
          :  Hamiltonian                  GFN2-xTB          :
 * total energy  :   -26.1577761 Eh     change       -0.3404530E-09 Eh
 * total energy  :   -26.1617925 Eh     change       -0.4016380E-02 Eh
 * total energy  :   -26.1627774 Eh     change       -0.9849802E-03 Eh
 * total energy  :   -26.1629519 Eh     change       -0.1744352E-03 Eh
 * total energy  :   -26.1630053 Eh     change       -0.5344130E-04 Eh
 * total energy  :   -26.1629983 Eh     change        0.7043592E-05 Eh
 * total energy  :   -26.1630092 Eh     change       -0.1095666E-04 Eh
 * total energy  :   -26.1630095 Eh     change       -0.2687066E-06 Eh
   *** GEOMETRY OPTIMIZATION CONVERGED AFTER 8 ITERATIONS ***

 final structure:
================
13
 xtb: 6.7.1 (edcfbbe)
C            1.14049832885546        0.00535160698308       -0.06013554643934
C            0.34055560120742       -1.33384953334161       -0.20577740749096
C           -0.82209839452020       -1.41113069041573       -0.96225212271961
N           -1.53839924918539       -2.51656832511854       -1.12025704429893
C           -1.10808104772131       -3.61284408095539       -0.51234449542004
C            0.03560338164308       -3.66010038698543        0.26789258468336
C            0.77058971865294       -2.49566823444404        0.42089045415252
O            0.65947122836649        0.97524732840163       -0.65912148816745
O            2.15946375527138       -0.07119877628162        0.63927165693364
H           -1.18831061446362       -0.52481052620572       -1.46582615282893
H           -1.71889097396804       -4.49880305629117       -0.66344057679114
H            0.33862860721289       -4.58641770973845        0.74103976594128
H            1.67396965864890       -2.45904761560701        1.01530037244561

          :  Hamiltonian                  GFN2-xTB          :
         :: total energy             -26.163009496335 Eh    ::
         :: gradient norm              0.000102456353 Eh/a0 ::
         :: HOMO-LUMO gap              1.931691027428 eV    ::
         :: SCC energy               -26.495766224972 Eh    ::
         :: -> dispersion             -0.011420088172 Eh    ::
         :: repulsion energy           0.332756728637 Eh    ::

    * Orbital Energies and Occupations

         #    Occupation            Energy/Eh            Energy/eV
      -------------------------------------------------------------
         1        2.0000           -0.5237092             -14.2509
       ...           ...                  ...                  ...
        11        2.0000           -0.3689211             -10.0389
        12        2.0000           -0.3609840              -9.8229
        13        2.0000           -0.3456187              -9.4048
        14        2.0000           -0.3303123              -8.9883
        15        2.0000           -0.3265514              -8.8859
        16        2.0000           -0.3086788              -8.3996
        17        2.0000           -0.2986087              -8.1256
        18        2.0000           -0.2949012              -8.0247
        19        2.0000           -0.2697193              -7.3394
        20        2.0000           -0.2388425              -6.4992
        21        2.0000           -0.2119574              -5.7677
        22        2.0000           -0.1978719              -5.3844
        23        2.0000           -0.1822206              -4.9585 (HOMO)
        24                         -0.1112323              -3.0268 (LUMO)
        25                         -0.1004799              -2.7342
        26                         -0.0008785              -0.0239
        27                          0.0667416               1.8161
        28                          0.2362652               6.4291
        29                          0.2487226               6.7681
        30                          0.2748069               7.4779
        31                          0.3174734               8.6389
        32                          0.3199988               8.7076
        33                          0.4306877              11.7196
        34                          0.4986999              13.5703
       ...                                ...                  ...
        40                          0.9046335              24.6163
      -------------------------------------------------------------
                  HL-Gap            0.0709883 Eh            1.9317 eV

     #   Z          covCN         q      C6AA      α(0)
     1   6 C        2.683     0.365    20.808     7.465
     2   6 C        2.957    -0.046    29.152     8.856
     3   6 C        2.919     0.063    26.578     8.454
     4   7 N        1.834    -0.263    27.680     7.796
     5   6 C        2.916     0.048    26.920     8.508
     6   6 C        2.911    -0.052    29.302     8.876
     7   6 C        2.933    -0.011    28.302     8.725
     8   8 O        0.856    -0.583    25.700     6.797
     9   8 O        0.857    -0.584    25.739     6.802
    10   1 H        0.925     0.036     2.497     2.471
    11   1 H        0.925    -0.005     3.150     2.775
    12   1 H        0.925    -0.004     3.127     2.765
    13   1 H        0.925     0.036     2.497     2.471

Wiberg/Mayer (AO) data.
largest (>0.10) Wiberg bond orders for each atom

     #   Z sym  total        # sym  WBO       # sym  WBO       # sym  WBO
 ---------------------------------------------------------------------------
     1   6 C    3.948 --     8 O    1.526     9 O    1.523     2 C    0.869
     2   6 C    3.939 --     7 C    1.415     3 C    1.395     1 C    0.869
                             5 C    0.115
     3   6 C    3.978 --     4 N    1.436     2 C    1.395    10 H    0.961
                             6 C    0.106
     4   7 N    3.046 --     3 C    1.436     5 C    1.428
     5   6 C    3.987 --     6 C    1.432     4 N    1.428    11 H    0.965
                             2 C    0.115
     6   6 C    3.991 --     7 C    1.439     5 C    1.432    12 H    0.970
                             3 C    0.106
     7   6 C    3.989 --     6 C    1.439     2 C    1.415    13 H    0.966
     8   8 O    1.862 --     1 C    1.526     9 O    0.243
     9   8 O    1.860 --     1 C    1.523     8 O    0.243
    10   1 H    0.999 --     3 C    0.961
    11   1 H    0.999 --     5 C    0.965
    12   1 H    0.999 --     6 C    0.970
    13   1 H    0.999 --     7 C    0.966
 ---------------------------------------------------------------------------

molecular dipole:
                 x           y           z       tot (Debye)
 q only:       -1.762       0.167       0.325
   full:       -1.608      -0.155       0.522       4.315

           -------------------------------------------------
          | TOTAL ENERGY              -26.163009496335 Eh   |
          | GRADIENT NORM               0.000102456353 Eh/α |
          | HOMO-LUMO GAP               1.931691027428 eV   |
           -------------------------------------------------

 * finished run on 2024/12/20 at 01:52:50.345
