   * xtb version 6.7.1 (edcfbbe) compiled by 'conda@3ef47c1a292c' on 2024-11-25

   ID    Z sym.   atoms
    1   17 Cl     1
    2    6 C      2-5, 7, 8, 11-13
    3    8 O      6, 9, 10
    4    1 H      14-21

          program call               : xtb A058.xyz --opt --namespace A058 --charge -1
          :  Hamiltonian                  GFN2-xTB          :
 * total energy  :   -40.3344263 Eh     change       -0.1002689E-08 Eh
 * total energy  :   -40.3388079 Eh     change       -0.4381612E-02 Eh
 * total energy  :   -40.3389914 Eh     change       -0.1834460E-03 Eh
 * total energy  :   -40.3400476 Eh     change       -0.1056194E-02 Eh
 * total energy  :   -40.3401874 Eh     change       -0.1398009E-03 Eh
 * total energy  :   -40.3402941 Eh     change       -0.1067814E-03 Eh
 * total energy  :   -40.3403455 Eh     change       -0.5139534E-04 Eh
 * total energy  :   -40.3404285 Eh     change       -0.8295677E-04 Eh
 * total energy  :   -40.3405056 Eh     change       -0.7712119E-04 Eh
 * total energy  :   -40.3405465 Eh     change       -0.4085257E-04 Eh
 * total energy  :   -40.3477032 Eh     change       -0.4330425E-04 Eh
 * total energy  :   -40.3477809 Eh     change       -0.7769665E-04 Eh
 * total energy  :   -40.3478131 Eh     change       -0.3218478E-04 Eh
 * total energy  :   -40.3478463 Eh     change       -0.3322634E-04 Eh
 * total energy  :   -40.3478915 Eh     change       -0.4520307E-04 Eh
 * total energy  :   -40.3479012 Eh     change       -0.9686055E-05 Eh
 * total energy  :   -40.3479151 Eh     change       -0.1394408E-04 Eh
 * total energy  :   -40.3479197 Eh     change       -0.4616067E-05 Eh
 * total energy  :   -40.3479223 Eh     change       -0.2561567E-05 Eh
   *** GEOMETRY OPTIMIZATION CONVERGED AFTER 57 ITERATIONS ***

 final structure:
================
21
 xtb: 6.7.1 (edcfbbe)
Cl           2.31493395146741        0.20147483834415        0.22850409700478
C            0.61104353662692       -0.12721734778034        0.11483407224787
C           -0.26700829806769        0.91594282294520       -0.11717530415510
C           -1.62924985396643        0.69677352788362       -0.23189545313420
C           -2.12052652474978       -0.61527160977032       -0.06695301296048
O           -3.38943878173484       -1.02806343174816       -0.30232824476989
C           -4.49168247502499       -0.33397189795702        0.26015498117316
C           -4.17968668109485        0.25689006570813        1.71282257204289
O           -5.08240928840554        0.96441399735055        2.16623157671750
O           -3.08300182118425       -0.06040813492420        2.17743872352342
C           -1.20186013300181       -1.65168217869853        0.14064911280583
C            0.15410377426174       -1.42429901504393        0.23695697383392
C           -2.52085708656714        1.86657393708106       -0.52687811399530
H            0.11958318774391        1.92028811015918       -0.22134962580419
H           -4.85066666243033        0.47237869347481       -0.38956932599306
H           -5.28770766664448       -1.07958201377090        0.35256114664072
H           -1.59354831256012       -2.65195059104630        0.24272511394053
H            0.84254048778411       -2.23760740687958        0.41300562436213
H           -3.17429519611239        2.06277560279728        0.32170727248802
H           -1.92456976023480        2.75749915866680       -0.71840339823410
H           -3.14059639610657        1.66865287320736       -1.40110878773480

          :  Hamiltonian                  GFN2-xTB          :
         :: total energy             -40.347922311692 Eh    ::
         :: gradient norm              0.000755514421 Eh/a0 ::
         :: HOMO-LUMO gap              2.398686851184 eV    ::
         :: SCC energy               -40.797244732785 Eh    ::
         :: -> dispersion             -0.022535694953 Eh    ::
         :: repulsion energy           0.449322421093 Eh    ::

    * Orbital Energies and Occupations

         #    Occupation            Energy/Eh            Energy/eV
      -------------------------------------------------------------
         1        2.0000           -0.9525642             -25.9206
       ...           ...                  ...                  ...
        23        2.0000           -0.3494333              -9.5086
        24        2.0000           -0.3393918              -9.2353
        25        2.0000           -0.3322784              -9.0418
        26        2.0000           -0.3249955              -8.8436
        27        2.0000           -0.3238799              -8.8132
        28        2.0000           -0.3189331              -8.6786
        29        2.0000           -0.3086861              -8.3998
        30        2.0000           -0.2890855              -7.8664
        31        2.0000           -0.2875438              -7.8245
        32        2.0000           -0.2606791              -7.0934
        33        2.0000           -0.2333147              -6.3488
        34        2.0000           -0.2190785              -5.9614
        35        2.0000           -0.1977770              -5.3818 (HOMO)
        36                         -0.1096269              -2.9831 (LUMO)
        37                         -0.1023600              -2.7854
        38                         -0.0358547              -0.9757
        39                         -0.0041070              -0.1118
        40                          0.0163639               0.4453
        41                          0.1242539               3.3811
        42                          0.1279960               3.4829
        43                          0.1281344               3.4867
        44                          0.1427572               3.8846
        45                          0.1660364               4.5181
        46                          0.2207049               6.0057
       ...                                ...                  ...
        65                          0.8738353              23.7783
      -------------------------------------------------------------
                  HL-Gap            0.0881501 Eh            2.3987 eV

     #   Z          covCN         q      C6AA      α(0)
     1  17 Cl       0.962    -0.240   106.774    15.809
     2   6 C        2.890     0.075    26.322     8.411
     3   6 C        2.959    -0.053    29.310     8.880
     4   6 C        2.965    -0.000    28.030     8.684
     5   6 C        2.856     0.168    24.374     8.092
     6   8 O        1.705    -0.289    18.795     5.853
     7   6 C        3.677     0.040    20.118     6.426
     8   6 C        2.675     0.367    20.778     7.459
     9   8 O        0.856    -0.579    25.600     6.784
    10   8 O        0.856    -0.553    24.997     6.703
    11   6 C        2.927    -0.054    29.351     8.885
    12   6 C        2.948    -0.048    29.194     8.862
    13   6 C        3.758    -0.092    22.310     6.734
    14   1 H        0.926     0.035     2.522     2.484
    15   1 H        0.924     0.004     2.990     2.704
    16   1 H        0.924     0.017     2.773     2.604
    17   1 H        0.926     0.043     2.408     2.427
    18   1 H        0.926     0.032     2.555     2.500
    19   1 H        0.925     0.069     2.099     2.266
    20   1 H        0.925     0.025     2.657     2.549
    21   1 H        0.925     0.033     2.543     2.494

Wiberg/Mayer (AO) data.
largest (>0.10) Wiberg bond orders for each atom

     #   Z sym  total        # sym  WBO       # sym  WBO       # sym  WBO
 ---------------------------------------------------------------------------
     1  17 Cl   1.036 --     2 C    0.925
     2   6 C    3.887 --    12 C    1.398     3 C    1.390     1 Cl   0.925
     3   6 C    3.986 --     4 C    1.442     2 C    1.390    14 H    0.966
     4   6 C    3.987 --     3 C    1.442     5 C    1.303    13 C    1.026
     5   6 C    3.947 --    11 C    1.342     4 C    1.303     6 O    1.084
     6   8 O    2.210 --     5 C    1.084     7 C    0.945
     7   6 C    3.888 --    16 H    0.969    15 H    0.966     6 O    0.945
                             8 C    0.838
     8   6 C    3.948 --    10 O    1.542     9 O    1.539     7 C    0.838
     9   8 O    1.859 --     8 C    1.539    10 O    0.232
    10   8 O    1.927 --     8 C    1.542     9 O    0.232
    11   6 C    3.988 --    12 C    1.456     5 C    1.342    17 H    0.968
    12   6 C    3.988 --    11 C    1.456     2 C    1.398    18 H    0.969
    13   6 C    3.997 --     4 C    1.026    20 H    0.985    21 H    0.975
                            19 H    0.963
    14   1 H    0.999 --     3 C    0.966
    15   1 H    0.999 --     7 C    0.966
    16   1 H    0.999 --     7 C    0.969
    17   1 H    0.998 --    11 C    0.968
    18   1 H    0.998 --    12 C    0.969
    19   1 H    0.995 --    13 C    0.963
    20   1 H    0.999 --    13 C    0.985
    21   1 H    0.999 --    13 C    0.975
 ---------------------------------------------------------------------------

molecular dipole:
                 x           y           z       tot (Debye)
 q only:        5.346      -0.456      -3.355
   full:        5.136      -0.466      -3.487      15.824

           -------------------------------------------------
          | TOTAL ENERGY              -40.347922311692 Eh   |
          | GRADIENT NORM               0.000755514421 Eh/α |
          | HOMO-LUMO GAP               2.398686851184 eV   |
           -------------------------------------------------

 * finished run on 2024/12/20 at 01:52:51.473
