   * xtb version 6.7.1 (edcfbbe) compiled by 'conda@3ef47c1a292c' on 2024-11-25

   ID    Z sym.   atoms
    1    6 C      1-3
    2   16 S      4
    3    8 O      5-7
    4    1 H      8-14

          program call               : xtb A059.xyz --opt --namespace A059 --charge -1
          :  Hamiltonian                  GFN2-xTB          :
 * total energy  :   -25.6815037 Eh     change       -0.5339729E-10 Eh
 * total energy  :   -25.6849667 Eh     change       -0.3463009E-02 Eh
 * total energy  :   -25.6867682 Eh     change       -0.1801573E-02 Eh
 * total energy  :   -25.6872204 Eh     change       -0.4521076E-03 Eh
 * total energy  :   -25.6875473 Eh     change       -0.3269045E-03 Eh
 * total energy  :   -25.6878469 Eh     change       -0.2996016E-03 Eh
 * total energy  :   -25.6880633 Eh     change       -0.2164386E-03 Eh
 * total energy  :   -25.6881641 Eh     change       -0.1008283E-03 Eh
 * total energy  :   -25.6881839 Eh     change       -0.1977915E-04 Eh
 * total energy  :   -25.6882530 Eh     change       -0.6905683E-04 Eh
 * total energy  :   -25.6882643 Eh     change       -0.1138655E-04 Eh
 * total energy  :   -25.6882698 Eh     change       -0.5500417E-05 Eh
 * total energy  :   -25.6882714 Eh     change       -0.1502477E-05 Eh
   *** GEOMETRY OPTIMIZATION CONVERGED AFTER 13 ITERATIONS ***

 final structure:
================
14
 xtb: 6.7.1 (edcfbbe)
C            1.15147203287783        0.11098582651240       -0.08710438043201
C            0.54563675306393        1.43263086313290        0.31617060474144
C            1.08671976527353        2.55867647844082       -0.55502369311233
S            0.39121012074324       -0.39785081508332       -1.68684729351439
O            0.78227077611404       -1.79985234492076       -1.83646655341133
O           -1.04662359832441       -0.20800069770987       -1.49749675935945
O            0.96603321243228        0.47382897628115       -2.71433695266742
H            0.90579011177450       -0.69308962309325        0.60013337265880
H            2.22384030895296        0.15701293469107       -0.24961055580694
H           -0.53049546882443        1.33911489057894        0.15345168867239
H            0.72229598229436        1.65212821371538        1.37898854256230
H            1.00006488810698        2.24702818347229       -1.59394660545328
H            0.52869370996241        3.48196472405699       -0.40047335575367
H            2.13719140555283        2.74725238992522       -0.33287805912415

          :  Hamiltonian                  GFN2-xTB          :
         :: total energy             -25.688271352305 Eh    ::
         :: gradient norm              0.000526370206 Eh/a0 ::
         :: HOMO-LUMO gap              8.312562474025 eV    ::
         :: SCC energy               -25.895942756363 Eh    ::
         :: -> dispersion             -0.011577864742 Eh    ::
         :: repulsion energy           0.207671404058 Eh    ::

    * Orbital Energies and Occupations

         #    Occupation            Energy/Eh            Energy/eV
      -------------------------------------------------------------
         1        2.0000           -0.5553180             -15.1110
       ...           ...                  ...                  ...
        10        2.0000           -0.3493533              -9.5064
        11        2.0000           -0.3225976              -8.7783
        12        2.0000           -0.3196381              -8.6978
        13        2.0000           -0.3130943              -8.5197
        14        2.0000           -0.3100246              -8.4362
        15        2.0000           -0.3045644              -8.2876
        16        2.0000           -0.2971500              -8.0859
        17        2.0000           -0.2469128              -6.7188
        18        2.0000           -0.2454108              -6.6780
        19        2.0000           -0.2267382              -6.1699
        20        2.0000           -0.2257690              -6.1435
        21        2.0000           -0.2149734              -5.8497
        22        2.0000           -0.2116624              -5.7596 (HOMO)
        23                          0.0938187               2.5529 (LUMO)
        24                          0.1493888               4.0651
        25                          0.1793617               4.8807
        26                          0.1937715               5.2728
        27                          0.2430426               6.6135
        28                          0.2685934               7.3088
        29                          0.2869402               7.8080
        30                          0.2972210               8.0878
        31                          0.3179182               8.6510
        32                          0.3379801               9.1969
        33                          0.3743915              10.1877
       ...                                ...                  ...
        40                          1.3515794              36.7783
      -------------------------------------------------------------
                  HL-Gap            0.3054810 Eh            8.3126 eV

     #   Z          covCN         q      C6AA      α(0)
     1   6 C        3.797    -0.139    23.178     6.855
     2   6 C        3.852    -0.050    21.429     6.584
     3   6 C        3.753    -0.110    22.656     6.787
     4  16 S        3.598     1.114   103.436    17.117
     5   8 O        0.860    -0.671    27.934     7.086
     6   8 O        0.860    -0.672    27.960     7.089
     7   8 O        0.859    -0.672    27.964     7.090
     8   1 H        0.925     0.022     2.697     2.568
     9   1 H        0.925     0.024     2.667     2.554
    10   1 H        0.924     0.049     2.337     2.391
    11   1 H        0.923     0.001     3.041     2.727
    12   1 H        0.925     0.078     2.000     2.212
    13   1 H        0.925     0.012     2.865     2.647
    14   1 H        0.925     0.014     2.825     2.629

Wiberg/Mayer (AO) data.
largest (>0.10) Wiberg bond orders for each atom

     #   Z sym  total        # sym  WBO       # sym  WBO       # sym  WBO
 ---------------------------------------------------------------------------
     1   6 C    3.987 --     2 C    1.024     8 H    0.982     9 H    0.981
                             4 S    0.730
     2   6 C    3.997 --     1 C    1.024     3 C    1.019    11 H    0.975
                            10 H    0.971
     3   6 C    3.992 --     2 C    1.019    14 H    0.989    13 H    0.989
                            12 H    0.971
     4  16 S    5.151 --     5 O    1.478     6 O    1.471     7 O    1.458
                             1 C    0.730
     5   8 O    1.782 --     4 S    1.478     7 O    0.105     6 O    0.105
     6   8 O    1.783 --     4 S    1.471     7 O    0.106     5 O    0.105
     7   8 O    1.785 --     4 S    1.458     6 O    0.106     5 O    0.105
     8   1 H    0.999 --     1 C    0.982
     9   1 H    0.999 --     1 C    0.981
    10   1 H    0.998 --     2 C    0.971
    11   1 H    1.000 --     2 C    0.975
    12   1 H    0.994 --     3 C    0.971
    13   1 H    1.000 --     3 C    0.989
    14   1 H    1.000 --     3 C    0.989
 ---------------------------------------------------------------------------

molecular dipole:
                 x           y           z       tot (Debye)
 q only:       -0.336       0.997       4.015
   full:       -0.230       1.043       4.247      11.130

           -------------------------------------------------
          | TOTAL ENERGY              -25.688271352305 Eh   |
          | GRADIENT NORM               0.000526370206 Eh/α |
          | HOMO-LUMO GAP               8.312562474025 eV   |
           -------------------------------------------------

 * finished run on 2024/12/20 at 01:52:51.635
