   * xtb version 6.7.1 (edcfbbe) compiled by 'conda@3ef47c1a292c' on 2024-11-25

   ID    Z sym.   atoms
    1    6 C      1
    2    8 O      2-4
    3    1 H      5

          program call               : xtb A060.xyz --opt --namespace A060 --charge -1
          :  Hamiltonian                  GFN2-xTB          :
 * total energy  :   -15.0905544 Eh     change       -0.2673239E-10 Eh
 * total energy  :   -15.0986003 Eh     change       -0.8045939E-02 Eh
 * total energy  :   -15.1036100 Eh     change       -0.5009659E-02 Eh
 * total energy  :   -15.1045578 Eh     change       -0.9478301E-03 Eh
 * total energy  :   -15.1048607 Eh     change       -0.3029560E-03 Eh
 * total energy  :   -15.1049176 Eh     change       -0.5681127E-04 Eh
 * total energy  :   -15.1048765 Eh     change        0.4104891E-04 Eh
 * total energy  :   -15.1049441 Eh     change       -0.6759368E-04 Eh
 * total energy  :   -15.1049472 Eh     change       -0.3115700E-05 Eh
 * total energy  :   -15.1049494 Eh     change       -0.2162465E-05 Eh
   *** GEOMETRY OPTIMIZATION CONVERGED AFTER 10 ITERATIONS ***

 final structure:
================
5
 xtb: 6.7.1 (edcfbbe)
C            1.00796626707323       -0.14249953369714        0.00182853569066
O            0.23826398666189       -1.00778552723223        0.41391740343917
O            0.32888225437605        1.02113608377702       -0.55218065132244
O            2.22447707521173       -0.07601419847925       -0.02974710784167
H           -0.61156958332291        0.82731317563161       -0.45989817996572

          :  Hamiltonian                  GFN2-xTB          :
         :: total energy             -15.104949379625 Eh    ::
         :: gradient norm              0.000311951576 Eh/a0 ::
         :: HOMO-LUMO gap              6.408568837846 eV    ::
         :: SCC energy               -15.191120033242 Eh    ::
         :: -> dispersion             -0.001949603828 Eh    ::
         :: repulsion energy           0.086170653618 Eh    ::

    * Orbital Energies and Occupations

         #    Occupation            Energy/Eh            Energy/eV
      -------------------------------------------------------------
         1        2.0000           -0.4988857             -13.5754
         2        2.0000           -0.4750323             -12.9263
         3        2.0000           -0.4665925             -12.6966
         4        2.0000           -0.3961429             -10.7796
         5        2.0000           -0.3519978              -9.5783
         6        2.0000           -0.3356907              -9.1346
         7        2.0000           -0.3317875              -9.0284
         8        2.0000           -0.2803205              -7.6279
         9        2.0000           -0.2465135              -6.7080
        10        2.0000           -0.2014777              -5.4825
        11        2.0000           -0.1943372              -5.2882
        12        2.0000           -0.1871143              -5.0916 (HOMO)
        13                          0.0483963               1.3169 (LUMO)
        14                          0.2815934               7.6625
        15                          0.3484425               9.4816
        16                          0.6325540              17.2127
        17                          0.9434141              25.6716
      -------------------------------------------------------------
                  HL-Gap            0.2355106 Eh            6.4086 eV

     #   Z          covCN         q      C6AA      α(0)
     1   6 C        2.555     0.484    19.021     7.129
     2   8 O        0.856    -0.620    26.625     6.918
     3   8 O        1.649    -0.541    23.806     6.586
     4   8 O        0.856    -0.581    25.645     6.790
     5   1 H        0.805     0.258     0.862     1.458

Wiberg/Mayer (AO) data.
largest (>0.10) Wiberg bond orders for each atom

     #   Z sym  total        # sym  WBO       # sym  WBO       # sym  WBO
 ---------------------------------------------------------------------------
     1   6 C    3.920 --     4 O    1.554     2 O    1.511     3 O    0.855
     2   8 O    1.823 --     1 C    1.511     4 O    0.209
     3   8 O    1.967 --     5 H    0.918     1 C    0.855
     4   8 O    1.867 --     1 C    1.554     2 O    0.209
     5   1 H    0.933 --     3 O    0.918
 ---------------------------------------------------------------------------

molecular dipole:
                 x           y           z       tot (Debye)
 q only:       -2.432       0.493      -0.110
   full:       -2.692       0.555      -0.140       6.995

           -------------------------------------------------
          | TOTAL ENERGY              -15.104949379625 Eh   |
          | GRADIENT NORM               0.000311951576 Eh/α |
          | HOMO-LUMO GAP               6.408568837846 eV   |
           -------------------------------------------------

 * finished run on 2024/12/20 at 01:52:51.674
