   * xtb version 6.7.1 (edcfbbe) compiled by 'conda@3ef47c1a292c' on 2024-11-25

   ID    Z sym.   atoms
    1    8 O      1, 3, 4
    2   16 S      2
    3    7 N      5
    4    6 C      6-11
    5    1 H      12-23

          program call               : xtb A061.xyz --opt --namespace A061 --charge -1
          :  Hamiltonian                  GFN2-xTB          :
 * total energy  :   -37.6184908 Eh     change       -0.3215490E-09 Eh
 * total energy  :   -37.6234721 Eh     change       -0.4981220E-02 Eh
 * total energy  :   -37.6251160 Eh     change       -0.1643973E-02 Eh
 * total energy  :   -37.6259422 Eh     change       -0.8262088E-03 Eh
 * total energy  :   -37.6266383 Eh     change       -0.6960429E-03 Eh
 * total energy  :   -37.6270418 Eh     change       -0.4035213E-03 Eh
 * total energy  :   -37.6273493 Eh     change       -0.3074523E-03 Eh
 * total energy  :   -37.6275597 Eh     change       -0.2104725E-03 Eh
 * total energy  :   -37.6277728 Eh     change       -0.2130637E-03 Eh
 * total energy  :   -37.6279611 Eh     change       -0.1882500E-03 Eh
 * total energy  :   -37.6283070 Eh     change       -0.5485603E-04 Eh
 * total energy  :   -37.6283437 Eh     change       -0.3672012E-04 Eh
 * total energy  :   -37.6283858 Eh     change       -0.4209539E-04 Eh
 * total energy  :   -37.6284052 Eh     change       -0.1938826E-04 Eh
 * total energy  :   -37.6284176 Eh     change       -0.1242856E-04 Eh
 * total energy  :   -37.6284307 Eh     change       -0.1313214E-04 Eh
 * total energy  :   -37.6284380 Eh     change       -0.7237113E-05 Eh
 * total energy  :   -37.6284486 Eh     change       -0.1063203E-04 Eh
 * total energy  :   -37.6284533 Eh     change       -0.4713094E-05 Eh
   *** GEOMETRY OPTIMIZATION CONVERGED AFTER 24 ITERATIONS ***

 final structure:
================
23
 xtb: 6.7.1 (edcfbbe)
O            1.56231151898885       -0.43104662129403       -0.74897174724195
S            2.92122879834174       -0.23299508400064       -0.27178417920803
O            3.91844293699263       -1.01937108682092       -0.99861947575895
O            3.30957706897679        1.15609577199287       -0.09414006281439
N            2.90287754584848       -0.85045048276628        1.33770536705917
C            2.46082611026397       -2.21866265377384        1.32528610527568
C            3.55167496496616       -3.21774969038063        0.93090403699149
C            2.99220787507386       -4.63430041383097        0.86867281088925
C            2.38483104464931       -5.02946337802799        2.21294060581979
C            1.30030421174960       -4.03529527133043        2.61866017276431
C            1.86336879262432       -2.61884573991092        2.68098328788725
H            3.85126347620078       -0.74362718727245        1.66643672160793
H            1.67276870542979       -2.22697520194468        0.56428337884082
H            3.95085013084457       -2.90252466158070       -0.03459978313299
H            4.35923931186311       -3.17366742419317        1.67088200531114
H            3.78253975550556       -5.34091193386796        0.59694492261477
H            2.22107118828014       -4.67986182994337        0.09687493608253
H            3.16919329106438       -5.03751819179250        2.97534256159555
H            1.96491911415261       -6.03912076178977        2.15600045517884
H            0.88062731110480       -4.31785263563965        3.58992213069717
H            0.49400456590301       -4.06448963363961        1.88248585367986
H            2.64375176827332       -2.56300648887345        3.44559985773490
H            1.08107051290247       -1.90723939931837        2.94775003812562

          :  Hamiltonian                  GFN2-xTB          :
         :: total energy             -37.628453317640 Eh    ::
         :: gradient norm              0.000853818447 Eh/a0 ::
         :: HOMO-LUMO gap              8.443846380969 eV    ::
         :: SCC energy               -37.983930336944 Eh    ::
         :: -> dispersion             -0.022160088499 Eh    ::
         :: repulsion energy           0.355477019304 Eh    ::

    * Orbital Energies and Occupations

         #    Occupation            Energy/Eh            Energy/eV
      -------------------------------------------------------------
         1        2.0000           -0.5602891             -15.2462
       ...           ...                  ...                  ...
        21        2.0000           -0.3264408              -8.8829
        22        2.0000           -0.3220042              -8.7622
        23        2.0000           -0.3189139              -8.6781
        24        2.0000           -0.3125021              -8.5036
        25        2.0000           -0.3024289              -8.2295
        26        2.0000           -0.2973079              -8.0902
        27        2.0000           -0.2582314              -7.0268
        28        2.0000           -0.2524855              -6.8705
        29        2.0000           -0.2458742              -6.6906
        30        2.0000           -0.2353559              -6.4044
        31        2.0000           -0.2334780              -6.3533
        32        2.0000           -0.2226878              -6.0596
        33        2.0000           -0.2180347              -5.9330 (HOMO)
        34                          0.0922710               2.5108 (LUMO)
        35                          0.1392351               3.7888
        36                          0.1794716               4.8837
        37                          0.1938445               5.2748
        38                          0.1975416               5.3754
        39                          0.2065158               5.6196
        40                          0.2143028               5.8315
        41                          0.2185488               5.9470
        42                          0.2320865               6.3154
        43                          0.2371678               6.4537
        44                          0.2532385               6.8910
       ...                                ...                  ...
        61                          1.3891187              37.7998
      -------------------------------------------------------------
                  HL-Gap            0.3103056 Eh            8.4438 eV

     #   Z          covCN         q      C6AA      α(0)
     1   8 O        0.860    -0.683    28.261     7.128
     2  16 S        3.643     1.283    98.902    16.738
     3   8 O        0.860    -0.707    28.900     7.208
     4   8 O        0.860    -0.678    28.117     7.109
     5   7 N        2.684    -0.419    30.892     8.255
     6   6 C        3.934     0.056    19.570     6.287
     7   6 C        3.806    -0.075    21.923     6.665
     8   6 C        3.805    -0.053    21.527     6.605
     9   6 C        3.805    -0.052    21.498     6.601
    10   6 C        3.805    -0.053    21.524     6.605
    11   6 C        3.807    -0.062    21.693     6.630
    12   1 H        0.866     0.143     1.452     1.887
    13   1 H        0.924     0.047     2.358     2.401
    14   1 H        0.924     0.067     2.117     2.275
    15   1 H        0.924     0.012     2.857     2.643
    16   1 H        0.924     0.015     2.804     2.619
    17   1 H        0.924     0.030     2.593     2.518
    18   1 H        0.924     0.022     2.700     2.570
    19   1 H        0.924     0.011     2.874     2.651
    20   1 H        0.924     0.013     2.843     2.637
    21   1 H        0.924     0.029     2.599     2.521
    22   1 H        0.924     0.022     2.709     2.574
    23   1 H        0.924     0.032     2.554     2.499

Wiberg/Mayer (AO) data.
largest (>0.10) Wiberg bond orders for each atom

     #   Z sym  total        # sym  WBO       # sym  WBO       # sym  WBO
 ---------------------------------------------------------------------------
     1   8 O    1.764 --     2 S    1.448     3 O    0.111     4 O    0.110
     2  16 S    5.118 --     4 O    1.461     1 O    1.448     3 O    1.402
                             5 N    0.788
     3   8 O    1.736 --     2 S    1.402     1 O    0.111     4 O    0.110
     4   8 O    1.767 --     2 S    1.461     3 O    0.110     1 O    0.110
     5   7 N    3.056 --     6 C    1.017    12 H    0.955     2 S    0.788
     6   6 C    3.979 --     5 N    1.017     7 C    0.986    11 C    0.984
                            13 H    0.956
     7   6 C    3.993 --     8 C    1.008     6 C    0.986    15 H    0.976
                            14 H    0.962
     8   6 C    3.998 --     7 C    1.008     9 C    1.008    16 H    0.978
                            17 H    0.978
     9   6 C    3.999 --    10 C    1.008     8 C    1.008    19 H    0.979
                            18 H    0.978
    10   6 C    3.998 --     9 C    1.008    11 C    1.008    20 H    0.978
                            21 H    0.978
    11   6 C    3.997 --    10 C    1.008     6 C    0.984    23 H    0.977
                            22 H    0.977
    12   1 H    0.980 --     5 N    0.955
    13   1 H    0.998 --     6 C    0.956
    14   1 H    0.995 --     7 C    0.962
    15   1 H    1.000 --     7 C    0.976
    16   1 H    1.000 --     8 C    0.978
    17   1 H    0.999 --     8 C    0.978
    18   1 H    0.999 --     9 C    0.978
    19   1 H    0.999 --     9 C    0.979
    20   1 H    0.999 --    10 C    0.978
    21   1 H    0.999 --    10 C    0.978
    22   1 H    1.000 --    11 C    0.977
    23   1 H    0.999 --    11 C    0.977
 ---------------------------------------------------------------------------

molecular dipole:
                 x           y           z       tot (Debye)
 q only:       -5.414       0.291       1.069
   full:       -5.206       0.064       1.184      13.572

           -------------------------------------------------
          | TOTAL ENERGY              -37.628453317640 Eh   |
          | GRADIENT NORM               0.000853818447 Eh/α |
          | HOMO-LUMO GAP               8.443846380969 eV   |
           -------------------------------------------------

 * finished run on 2024/12/20 at 01:52:52.282
