   * xtb version 6.7.1 (edcfbbe) compiled by 'conda@3ef47c1a292c' on 2024-11-25

   ID    Z sym.   atoms
    1    7 N      1, 3
    2    6 C      2, 4-9
    3    1 H      10-14

          program call               : xtb A062.xyz --opt --namespace A062 --charge -1
          :  Hamiltonian                  GFN2-xTB          :
 * total energy  :   -23.5917665 Eh     change       -0.3115730E-11 Eh
 * total energy  :   -23.5990110 Eh     change       -0.7244481E-02 Eh
 * total energy  :   -23.5996305 Eh     change       -0.6195221E-03 Eh
 * total energy  :   -23.5996934 Eh     change       -0.6289737E-04 Eh
 * total energy  :   -23.5997002 Eh     change       -0.6771205E-05 Eh
 * total energy  :   -23.5997006 Eh     change       -0.4227268E-06 Eh
   *** GEOMETRY OPTIMIZATION CONVERGED AFTER 6 ITERATIONS ***

 final structure:
================
14
 xtb: 6.7.1 (edcfbbe)
N            1.59546588030720       -1.12548287344037        0.00062317743857
C            2.26371929181904        0.02735469319975        0.00073089386258
N            1.56751488475872        1.16353091713852        0.00047365386674
C            0.27811031935184        0.72202107826170        0.00030203910235
C            0.29566490819479       -0.71558980357158        0.00038701433487
C           -0.89529863395495       -1.43028833025085        0.00022643496432
C           -2.08187939866908       -0.72430501891244       -0.00001133757144
C           -2.09893769769964        0.67267920360085       -0.00009221905814
C           -0.92994940943848        1.40742576801831        0.00006099630186
H            3.34727280644552        0.04058578704274        0.00086984381955
H           -0.89202785485201       -2.51485340581012        0.00028958036152
H           -3.02664735387073       -1.26087252864344       -0.00014477115909
H           -3.05652594103695        1.18601721009420       -0.00029572816651
H           -0.95316180135527        2.49174730327273       -0.00001957809718

          :  Hamiltonian                  GFN2-xTB          :
         :: total energy             -23.599700618420 Eh    ::
         :: gradient norm              0.000248214631 Eh/a0 ::
         :: HOMO-LUMO gap              3.363078038471 eV    ::
         :: SCC energy               -23.979965116663 Eh    ::
         :: -> dispersion             -0.013671642152 Eh    ::
         :: repulsion energy           0.380264498243 Eh    ::

    * Orbital Energies and Occupations

         #    Occupation            Energy/Eh            Energy/eV
      -------------------------------------------------------------
         1        2.0000           -0.4659671             -12.6796
       ...           ...                  ...                  ...
        10        2.0000           -0.3310895              -9.0094
        11        2.0000           -0.3186006              -8.6696
        12        2.0000           -0.3150137              -8.5720
        13        2.0000           -0.3100080              -8.4357
        14        2.0000           -0.2749548              -7.4819
        15        2.0000           -0.2743706              -7.4660
        16        2.0000           -0.2610236              -7.1028
        17        2.0000           -0.2563687              -6.9761
        18        2.0000           -0.2411042              -6.5608
        19        2.0000           -0.1902032              -5.1757
        20        2.0000           -0.1886746              -5.1341
        21        2.0000           -0.1838945              -5.0040
        22        2.0000           -0.1740318              -4.7356 (HOMO)
        23                         -0.0504410              -1.3726 (LUMO)
        24                         -0.0188334              -0.5125
        25                          0.0323517               0.8803
        26                          0.1077732               2.9327
        27                          0.2749216               7.4810
        28                          0.2883599               7.8467
        29                          0.3087943               8.4027
        30                          0.3172931               8.6340
        31                          0.3762194              10.2375
        32                          0.3825634              10.4101
        33                          0.4031692              10.9708
       ...                                ...                  ...
        41                          0.8729282              23.7536
      -------------------------------------------------------------
                  HL-Gap            0.1235908 Eh            3.3631 eV

     #   Z          covCN         q      C6AA      α(0)
     1   7 N        1.870    -0.400    31.365     8.302
     2   6 C        3.317     0.133    23.220     7.678
     3   7 N        1.870    -0.400    31.365     8.302
     4   6 C        3.222     0.050    26.174     8.317
     5   6 C        3.222     0.050    26.174     8.317
     6   6 C        2.907    -0.067    29.667     8.931
     7   6 C        2.920    -0.064    29.590     8.920
     8   6 C        2.920    -0.064    29.590     8.920
     9   6 C        2.907    -0.067    29.667     8.931
    10   1 H        0.925    -0.060     4.344     3.259
    11   1 H        0.925    -0.021     3.449     2.904
    12   1 H        0.925    -0.034     3.715     3.014
    13   1 H        0.925    -0.034     3.715     3.014
    14   1 H        0.925    -0.021     3.449     2.904

Wiberg/Mayer (AO) data.
largest (>0.10) Wiberg bond orders for each atom

     #   Z sym  total        # sym  WBO       # sym  WBO       # sym  WBO
 ---------------------------------------------------------------------------
     1   7 N    2.952 --     2 C    1.425     5 C    1.269     3 N    0.124
     2   6 C    3.974 --     3 N    1.425     1 N    1.425    10 H    0.961
     3   7 N    2.952 --     2 C    1.425     4 C    1.269     1 N    0.124
     4   6 C    3.979 --     9 C    1.343     3 N    1.269     5 C    1.169
     5   6 C    3.979 --     6 C    1.343     1 N    1.269     4 C    1.169
     6   6 C    3.986 --     7 C    1.474     5 C    1.343    11 H    0.969
     7   6 C    3.981 --     6 C    1.474     8 C    1.374    12 H    0.971
     8   6 C    3.981 --     9 C    1.474     7 C    1.374    13 H    0.971
     9   6 C    3.986 --     8 C    1.474     4 C    1.343    14 H    0.969
    10   1 H    0.996 --     2 C    0.961
    11   1 H    1.000 --     6 C    0.969
    12   1 H    0.999 --     7 C    0.971
    13   1 H    0.999 --     8 C    0.971
    14   1 H    1.000 --     9 C    0.969
 ---------------------------------------------------------------------------

molecular dipole:
                 x           y           z       tot (Debye)
 q only:       -0.954      -0.011      -0.001
   full:       -1.270      -0.015      -0.001       3.229

           -------------------------------------------------
          | TOTAL ENERGY              -23.599700618420 Eh   |
          | GRADIENT NORM               0.000248214631 Eh/α |
          | HOMO-LUMO GAP               3.363078038471 eV   |
           -------------------------------------------------

 * finished run on 2024/12/20 at 01:52:52.353
