   * xtb version 6.7.1 (edcfbbe) compiled by 'conda@3ef47c1a292c' on 2024-11-25

   ID    Z sym.   atoms
    1    8 O      1, 3-5
    2   17 Cl     2

          program call               : xtb A063.xyz --opt --namespace A063 --charge -1
          :  Hamiltonian                  GFN2-xTB          :
 * total energy  :   -20.8120212 Eh     change       -0.3694822E-12 Eh
 * total energy  :   -20.8127080 Eh     change       -0.6868268E-03 Eh
 * total energy  :   -20.8132147 Eh     change       -0.5066787E-03 Eh
 * total energy  :   -20.8132165 Eh     change       -0.1815342E-05 Eh
   *** GEOMETRY OPTIMIZATION CONVERGED AFTER 4 ITERATIONS ***

 final structure:
================
5
 xtb: 6.7.1 (edcfbbe)
O            1.27071218525774       -0.04825943140823        0.06597796407314
Cl           2.70231553978278       -0.04826319810102        0.06598004461769
O            3.17952216835236       -0.41163240679480       -1.23391660972303
O            3.17952467646477        1.25916214574125        0.40124463028744
O            3.17951543014236       -0.99232710943720        1.03061397074475

          :  Hamiltonian                  GFN2-xTB          :
         :: total energy             -20.813216519890 Eh    ::
         :: gradient norm              0.000922363456 Eh/a0 ::
         :: HOMO-LUMO gap              9.404936739237 eV    ::
         :: SCC energy               -20.853023006037 Eh    ::
         :: -> dispersion             -0.003469394521 Eh    ::
         :: repulsion energy           0.039806486147 Eh    ::

    * Orbital Energies and Occupations

         #    Occupation            Energy/Eh            Energy/eV
      -------------------------------------------------------------
         1        2.0000           -0.8869336             -24.1347
       ...           ...                  ...                  ...
         4        2.0000           -0.5745135             -15.6333
         5        2.0000           -0.4770331             -12.9807
         6        2.0000           -0.4440398             -12.0829
         7        2.0000           -0.4440395             -12.0829
         8        2.0000           -0.4440394             -12.0829
         9        2.0000           -0.3171740              -8.6307
        10        2.0000           -0.3171739              -8.6307
        11        2.0000           -0.2915596              -7.9337
        12        2.0000           -0.2915594              -7.9337
        13        2.0000           -0.2915593              -7.9337
        14        2.0000           -0.2782158              -7.5706
        15        2.0000           -0.2782156              -7.5706
        16        2.0000           -0.2782152              -7.5706 (HOMO)
        17                          0.0674099               1.8343 (LUMO)
        18                          0.0674102               1.8343
        19                          0.0674112               1.8344
        20                          0.2450644               6.6685
        21                          0.2450645               6.6685
        22                          0.2892325               7.8704
        23                          0.7803925              21.2356
        24                          0.7803946              21.2356
        25                          0.7803986              21.2357
      -------------------------------------------------------------
                  HL-Gap            0.3456251 Eh            9.4049 eV

     #   Z          covCN         q      C6AA      α(0)
     1   8 O        0.940    -0.506    23.872     6.553
     2  17 Cl       3.760     1.024    73.493    13.116
     3   8 O        0.940    -0.506    23.872     6.553
     4   8 O        0.940    -0.506    23.872     6.553
     5   8 O        0.940    -0.506    23.872     6.553

Wiberg/Mayer (AO) data.
largest (>0.10) Wiberg bond orders for each atom

     #   Z sym  total        # sym  WBO       # sym  WBO       # sym  WBO
 ---------------------------------------------------------------------------
     1   8 O    1.548 --     2 Cl   1.155     4 O    0.131     3 O    0.131
                             5 O    0.131
     2  17 Cl   4.622 --     1 O    1.155     4 O    1.155     3 O    1.155
                             5 O    1.155
     3   8 O    1.548 --     2 Cl   1.155     1 O    0.131     4 O    0.131
                             5 O    0.131
     4   8 O    1.548 --     2 Cl   1.155     1 O    0.131     5 O    0.131
                             3 O    0.131
     5   8 O    1.548 --     2 Cl   1.155     1 O    0.131     4 O    0.131
                             3 O    0.131
 ---------------------------------------------------------------------------

molecular dipole:
                 x           y           z       tot (Debye)
 q only:       -5.107       0.091      -0.125
   full:       -5.107       0.091      -0.125      12.986

           -------------------------------------------------
          | TOTAL ENERGY              -20.813216519890 Eh   |
          | GRADIENT NORM               0.000922363456 Eh/α |
          | HOMO-LUMO GAP               9.404936739237 eV   |
           -------------------------------------------------

 * finished run on 2024/12/20 at 01:52:52.386
