   * xtb version 6.7.1 (edcfbbe) compiled by 'conda@3ef47c1a292c' on 2024-11-25

   ID    Z sym.   atoms
    1    8 O      1, 4, 5
    2    6 C      2, 3, 6
    3    1 H      7-11

          program call               : xtb A064.xyz --opt --namespace A064 --charge -1
          :  Hamiltonian                  GFN2-xTB          :
 * total energy  :   -21.4072031 Eh     change       -0.1149303E-09 Eh
 * total energy  :   -21.4103777 Eh     change       -0.3174635E-02 Eh
 * total energy  :   -21.4111182 Eh     change       -0.7404530E-03 Eh
 * total energy  :   -21.4113353 Eh     change       -0.2170962E-03 Eh
 * total energy  :   -21.4112854 Eh     change        0.4991745E-04 Eh
 * total energy  :   -21.4114810 Eh     change       -0.1956196E-03 Eh
 * total energy  :   -21.4115062 Eh     change       -0.2515146E-04 Eh
 * total energy  :   -21.4115442 Eh     change       -0.3801415E-04 Eh
 * total energy  :   -21.4115525 Eh     change       -0.8362489E-05 Eh
 * total energy  :   -21.4115551 Eh     change       -0.2550037E-05 Eh
   *** GEOMETRY OPTIMIZATION CONVERGED AFTER 10 ITERATIONS ***

 final structure:
================
11
 xtb: 6.7.1 (edcfbbe)
O            0.97940496217293        0.02501901422838       -0.04199339460671
C            0.63065932414779        1.04127750592815       -0.95086560287327
C            1.22129660591146        2.40145751234063       -0.37980719623936
O            0.98325658680982        3.43335042922839       -1.00920301283421
O            1.87528319175210        2.23599267381372        0.66983705658028
C            1.19076716053391        0.78576439494709       -2.34895698516718
H            1.52459197511473        0.55048727987024        0.60748690113602
H           -0.46748112582616        1.12883879248092       -1.00489247891802
H            0.73039777716674       -0.09078721619222       -2.80848396421091
H            1.00225683420033        1.66247449053304       -2.96492670778596
H            2.26543670801635        0.62232512282165       -2.28366461508067

          :  Hamiltonian                  GFN2-xTB          :
         :: total energy             -21.411555077224 Eh    ::
         :: gradient norm              0.000684981521 Eh/a0 ::
         :: HOMO-LUMO gap              5.183198883526 eV    ::
         :: SCC energy               -21.577055502255 Eh    ::
         :: -> dispersion             -0.006583944669 Eh    ::
         :: repulsion energy           0.165500425031 Eh    ::

    * Orbital Energies and Occupations

         #    Occupation            Energy/Eh            Energy/eV
      -------------------------------------------------------------
         1        2.0000           -0.5087757             -13.8445
       ...           ...                  ...                  ...
         6        2.0000           -0.3991585             -10.8617
         7        2.0000           -0.3673868              -9.9971
         8        2.0000           -0.3633388              -9.8870
         9        2.0000           -0.3459199              -9.4130
        10        2.0000           -0.3271868              -8.9032
        11        2.0000           -0.3196195              -8.6973
        12        2.0000           -0.3080583              -8.3827
        13        2.0000           -0.2989719              -8.1354
        14        2.0000           -0.2936164              -7.9897
        15        2.0000           -0.2370109              -6.4494
        16        2.0000           -0.2163898              -5.8883
        17        2.0000           -0.2053713              -5.5884
        18        2.0000           -0.1792660              -4.8781 (HOMO)
        19                          0.0112131               0.3051 (LUMO)
        20                          0.2497205               6.7952
        21                          0.2635042               7.1703
        22                          0.2915489               7.9334
        23                          0.3106204               8.4524
        24                          0.3305827               8.9956
        25                          0.3556569               9.6779
        26                          0.3999297              10.8826
        27                          0.4102575              11.1637
        28                          0.5924771              16.1221
        29                          0.8647503              23.5311
      -------------------------------------------------------------
                  HL-Gap            0.1904791 Eh            5.1832 eV

     #   Z          covCN         q      C6AA      α(0)
     1   8 O        1.651    -0.508    23.066     6.483
     2   6 C        3.716     0.076    19.423     6.296
     3   6 C        2.680     0.351    21.042     7.507
     4   8 O        0.856    -0.578    25.594     6.783
     5   8 O        0.857    -0.589    25.846     6.816
     6   6 C        3.751    -0.090    22.288     6.733
     7   1 H        0.800     0.306     0.704     1.318
     8   1 H        0.923    -0.021     3.447     2.903
     9   1 H        0.924     0.005     2.973     2.696
    10   1 H        0.925     0.027     2.625     2.534
    11   1 H        0.925     0.021     2.722     2.580

Wiberg/Mayer (AO) data.
largest (>0.10) Wiberg bond orders for each atom

     #   Z sym  total        # sym  WBO       # sym  WBO       # sym  WBO
 ---------------------------------------------------------------------------
     1   8 O    1.915 --     2 C    1.003     7 H    0.816
     2   6 C    3.934 --     1 O    1.003     6 C    0.995     8 H    0.959
                             3 C    0.861
     3   6 C    3.943 --     4 O    1.560     5 O    1.489     2 C    0.861
     4   8 O    1.866 --     3 C    1.560     5 O    0.224
     5   8 O    1.894 --     3 C    1.489     4 O    0.224
     6   6 C    3.998 --     2 C    0.995    11 H    0.989     9 H    0.987
                            10 H    0.986
     7   1 H    0.906 --     1 O    0.816
     8   1 H    1.000 --     2 C    0.959
     9   1 H    1.000 --     6 C    0.987
    10   1 H    0.999 --     6 C    0.986
    11   1 H    1.000 --     6 C    0.989
 ---------------------------------------------------------------------------

molecular dipole:
                 x           y           z       tot (Debye)
 q only:       -2.356      -4.273       0.532
   full:       -2.412      -4.313       0.408      12.603

           -------------------------------------------------
          | TOTAL ENERGY              -21.411555077224 Eh   |
          | GRADIENT NORM               0.000684981521 Eh/α |
          | HOMO-LUMO GAP               5.183198883526 eV   |
           -------------------------------------------------

 * finished run on 2024/12/20 at 01:52:52.526
