   * xtb version 6.7.1 (edcfbbe) compiled by 'conda@3ef47c1a292c' on 2024-11-25

   ID    Z sym.   atoms
    1    7 N      1, 5, 6, 8
    2    8 O      2, 3
    3    6 C      4, 7
    4    1 H      9, 10

          program call               : xtb A065.xyz --opt --namespace A065 --charge -1
          :  Hamiltonian                  GFN2-xTB          :
 * total energy  :   -25.1976574 Eh     change       -0.1421270E-08 Eh
 * total energy  :   -25.2044523 Eh     change       -0.6794886E-02 Eh
 * total energy  :   -25.2065943 Eh     change       -0.2142035E-02 Eh
 * total energy  :   -25.2073428 Eh     change       -0.7484502E-03 Eh
 * total energy  :   -25.2078980 Eh     change       -0.5551909E-03 Eh
 * total energy  :   -25.2085490 Eh     change       -0.6510691E-03 Eh
 * total energy  :   -25.2090853 Eh     change       -0.5363070E-03 Eh
 * total energy  :   -25.2093463 Eh     change       -0.2609200E-03 Eh
 * total energy  :   -25.2095884 Eh     change       -0.2421303E-03 Eh
 * total energy  :   -25.2096594 Eh     change       -0.7099753E-04 Eh
 * total energy  :   -25.2096837 Eh     change       -0.2432353E-04 Eh
 * total energy  :   -25.2096966 Eh     change       -0.1292158E-04 Eh
 * total energy  :   -25.2097069 Eh     change       -0.1030229E-04 Eh
 * total energy  :   -25.2097110 Eh     change       -0.4075246E-05 Eh
 * total energy  :   -25.2097134 Eh     change       -0.2380023E-05 Eh
   *** GEOMETRY OPTIMIZATION CONVERGED AFTER 15 ITERATIONS ***

 final structure:
================
10
 xtb: 6.7.1 (edcfbbe)
N            1.07098150770764       -0.09982928601547        0.00159376801800
O            0.49769234995504        0.53054145265890        0.89237044611626
O            0.55233980770038       -0.42212366797826       -1.06235789083130
C            2.57213364386634       -0.22939156238220        0.14233376867414
N            2.98615210449706        0.99782443399146       -0.50177120945394
N            3.56745138962812        0.65090760503896       -1.60917997226407
C            3.62311165655860       -0.70011246043177       -1.63901055670617
N            3.09239439552069       -1.31118583764217       -0.61194028164316
H            2.76068733408579       -0.26510280996542        1.22129672661629
H            4.09291581048026       -1.22419786727402       -2.45407479852600

          :  Hamiltonian                  GFN2-xTB          :
         :: total energy             -25.209713380885 Eh    ::
         :: gradient norm              0.000774716569 Eh/a0 ::
         :: HOMO-LUMO gap              0.794165428491 eV    ::
         :: SCC energy               -25.380677217671 Eh    ::
         :: -> dispersion             -0.008478784461 Eh    ::
         :: repulsion energy           0.170963836786 Eh    ::

    * Orbital Energies and Occupations

         #    Occupation            Energy/Eh            Energy/eV
      -------------------------------------------------------------
         1        2.0000           -0.5853933             -15.9294
       ...           ...                  ...                  ...
        10        2.0000           -0.4057741             -11.0417
        11        2.0000           -0.3991394             -10.8611
        12        2.0000           -0.3706332             -10.0854
        13        2.0000           -0.3429289              -9.3316
        14        2.0000           -0.3206352              -8.7249
        15        2.0000           -0.2963472              -8.0640
        16        2.0000           -0.2789707              -7.5912
        17        2.0000           -0.2693353              -7.3290
        18        2.0000           -0.2680333              -7.2936
        19        2.0000           -0.2627656              -7.1502
        20        2.0000           -0.2272266              -6.1832
        21        2.0000           -0.2183516              -5.9417
        22        1.0000           -0.1567304              -4.2649 (HOMO)
        23        0.0000           -0.1275453              -3.4707 (LUMO)
        24                         -0.0324346              -0.8826
        25                          0.1366114               3.7174
        26                          0.2524200               6.8687
        27                          0.2636480               7.1742
        28                          0.3093350               8.4174
        29                          0.3347792               9.1098
        30                          0.3726514              10.1404
        31                          0.4213717              11.4661
        32                          0.5319584              14.4753
        33                          0.5693300              15.4923
        34                          0.6115832              16.6420
      -------------------------------------------------------------
                  HL-Gap            0.0291850 Eh            0.7942 eV

     #   Z          covCN         q      C6AA      α(0)
     1   7 N        2.767     0.449    14.615     5.678
     2   8 O        0.925    -0.457    22.814     6.406
     3   8 O        0.925    -0.432    22.302     6.333
     4   6 C        3.978     0.177    17.719     5.981
     5   7 N        2.048    -0.265    27.623     7.796
     6   7 N        1.990    -0.225    26.726     7.667
     7   6 C        3.134     0.144    24.667     8.130
     8   7 N        1.851    -0.375    30.645     8.205
     9   1 H        0.924     0.008     2.928     2.676
    10   1 H        0.926    -0.023     3.493     2.923

Wiberg/Mayer (AO) data.
largest (>0.10) Wiberg bond orders for each atom

     #   Z sym  total        # sym  WBO       # sym  WBO       # sym  WBO
 ---------------------------------------------------------------------------
     1   7 N    3.824 --     3 O    1.404     2 O    1.378     4 C    0.812
                             5 N    0.108
     2   8 O    1.855 --     1 N    1.378     3 O    0.285
     3   8 O    1.886 --     1 N    1.404     2 O    0.285
     4   6 C    3.969 --     8 N    1.068     5 N    0.998     9 H    0.942
                             1 N    0.812
     5   7 N    2.913 --     6 N    1.481     4 C    0.998     8 N    0.111
                             1 N    0.108
     6   7 N    3.024 --     5 N    1.481     7 C    1.295
     7   6 C    3.971 --     8 N    1.569     6 N    1.295    10 H    0.964
     8   7 N    2.947 --     7 C    1.569     4 C    1.068     5 N    0.111
     9   1 H    0.999 --     4 C    0.942
    10   1 H    0.999 --     7 C    0.964
 ---------------------------------------------------------------------------

molecular dipole:
                 x           y           z       tot (Debye)
 q only:       -3.471      -0.263       1.195
   full:       -3.391      -0.508       1.217       9.249

           -------------------------------------------------
          | TOTAL ENERGY              -25.209713380885 Eh   |
          | GRADIENT NORM               0.000774716569 Eh/α |
          | HOMO-LUMO GAP               0.794165428491 eV   |
           -------------------------------------------------

 * finished run on 2024/12/20 at 01:52:52.659
