   * xtb version 6.7.1 (edcfbbe) compiled by 'conda@3ef47c1a292c' on 2024-11-25

   ID    Z sym.   atoms
    1    9 F      1, 3-7
    2   51 Sb     2

          program call               : xtb A066.xyz --opt --namespace A066 --charge -1
          :  Hamiltonian                  GFN2-xTB          :
 * total energy  :   -31.0522229 Eh     change       -0.1385558E-12 Eh
 * total energy  :   -31.0530306 Eh     change       -0.8076811E-03 Eh
 * total energy  :   -31.0537045 Eh     change       -0.6739043E-03 Eh
 * total energy  :   -31.0537108 Eh     change       -0.6266379E-05 Eh
 * total energy  :   -31.0537150 Eh     change       -0.4245407E-05 Eh
   *** GEOMETRY OPTIMIZATION CONVERGED AFTER 5 ITERATIONS ***

 final structure:
================
7
 xtb: 6.7.1 (edcfbbe)
F            1.07355117337751        0.00863001500024        0.09442000404700
Sb           2.99177968329175        0.00862997943579        0.09441998480415
F            2.99178021912789       -1.32640830637425        1.47183549480648
F            2.99178019930914       -1.36878552348147       -1.24061830770409
F            4.91000822422432        0.00863007357818        0.09442003118303
F            2.99178024041123        1.34366829235512       -1.28299549816216
F            2.99178026025815        1.38604546948639        1.42945829102559

          :  Hamiltonian                  GFN2-xTB          :
         :: total energy             -31.053715036450 Eh    ::
         :: gradient norm              0.000009458865 Eh/a0 ::
         :: HOMO-LUMO gap              8.192670395113 eV    ::
         :: SCC energy               -31.063939295197 Eh    ::
         :: -> dispersion             -0.004692545826 Eh    ::
         :: repulsion energy           0.010224258747 Eh    ::

    * Orbital Energies and Occupations

         #    Occupation            Energy/Eh            Energy/eV
      -------------------------------------------------------------
         1        2.0000           -0.7788058             -21.1924
       ...           ...                  ...                  ...
        12        2.0000           -0.3636501              -9.8954
        13        2.0000           -0.3636501              -9.8954
        14        2.0000           -0.3464959              -9.4286
        15        2.0000           -0.3464959              -9.4286
        16        2.0000           -0.3464959              -9.4286
        17        2.0000           -0.3444713              -9.3735
        18        2.0000           -0.3444713              -9.3735
        19        2.0000           -0.3444713              -9.3735
        20        2.0000           -0.3443426              -9.3700
        21        2.0000           -0.3443426              -9.3700
        22        2.0000           -0.3443426              -9.3700
        23        2.0000           -0.3420806              -9.3085
        24        2.0000           -0.3420806              -9.3085 (HOMO)
        25                         -0.0410055              -1.1158 (LUMO)
        26                          0.1613546               4.3907
        27                          0.1613546               4.3907
        28                          0.1613546               4.3907
        29                          0.2404124               6.5420
        30                          0.2404124               6.5420
        31                          0.2404125               6.5420
        32                          1.3126277              35.7184
        33                          1.3126277              35.7184
      -------------------------------------------------------------
                  HL-Gap            0.3010751 Eh            8.1927 eV

     #   Z          covCN         q      C6AA      α(0)
     1   9 F        0.720    -0.256    11.838     4.063
     2  51 Sb       4.320     0.536   347.752    35.501
     3   9 F        0.720    -0.256    11.838     4.063
     4   9 F        0.720    -0.256    11.838     4.063
     5   9 F        0.720    -0.256    11.838     4.063
     6   9 F        0.720    -0.256    11.838     4.063
     7   9 F        0.720    -0.256    11.838     4.063

Wiberg/Mayer (AO) data.
largest (>0.10) Wiberg bond orders for each atom

     #   Z sym  total        # sym  WBO       # sym  WBO       # sym  WBO
 ---------------------------------------------------------------------------
     1   9 F    1.173 --     2 Sb   0.845
     2  51 Sb   5.073 --     1 F    0.845     4 F    0.845     3 F    0.845
                             6 F    0.845     7 F    0.845     5 F    0.845
     3   9 F    1.173 --     2 Sb   0.845
     4   9 F    1.173 --     2 Sb   0.845
     5   9 F    1.173 --     2 Sb   0.845
     6   9 F    1.173 --     2 Sb   0.845
     7   9 F    1.173 --     2 Sb   0.845
 ---------------------------------------------------------------------------

molecular dipole:
                 x           y           z       tot (Debye)
 q only:       -5.654      -0.016      -0.178
   full:       -5.654      -0.016      -0.178      14.377

           -------------------------------------------------
          | TOTAL ENERGY              -31.053715036450 Eh   |
          | GRADIENT NORM               0.000009458865 Eh/α |
          | HOMO-LUMO GAP               8.192670395113 eV   |
           -------------------------------------------------

 * finished run on 2024/12/20 at 01:52:52.708
