   * xtb version 6.7.1 (edcfbbe) compiled by 'conda@3ef47c1a292c' on 2024-11-25

   ID    Z sym.   atoms
    1   35 Br     1, 3-5
    2   13 Al     2

          program call               : xtb A067.xyz --opt --namespace A067 --charge -1
          :  Hamiltonian                  GFN2-xTB          :
 * total energy  :   -17.9672940 Eh     change       -0.1779910E-11 Eh
 * total energy  :   -17.9713449 Eh     change       -0.4050815E-02 Eh
 * total energy  :   -17.9739470 Eh     change       -0.2602165E-02 Eh
 * total energy  :   -17.9740449 Eh     change       -0.9783758E-04 Eh
 * total energy  :   -17.9740457 Eh     change       -0.7979334E-06 Eh
   *** GEOMETRY OPTIMIZATION CONVERGED AFTER 5 ITERATIONS ***

 final structure:
================
5
 xtb: 6.7.1 (edcfbbe)
Br           1.05869304974945        0.04234088934454        0.08386529888456
Al           3.37448472150417        0.03937312024624        0.08387691227024
Br           4.14690298443410       -1.90302256959308       -0.91062879536757
Br           4.14595003769403        1.87388404798413       -1.10204610804978
Br           4.14636920661824        0.15382451201818        2.26427269226254

          :  Hamiltonian                  GFN2-xTB          :
         :: total energy             -17.974045658081 Eh    ::
         :: gradient norm              0.000597755242 Eh/a0 ::
         :: HOMO-LUMO gap              8.089274486508 eV    ::
         :: SCC energy               -18.005049927245 Eh    ::
         :: -> dispersion             -0.007418077009 Eh    ::
         :: repulsion energy           0.031004269164 Eh    ::

    * Orbital Energies and Occupations

         #    Occupation            Energy/Eh            Energy/eV
      -------------------------------------------------------------
         1        2.0000           -0.7087598             -19.2863
       ...           ...                  ...                  ...
         4        2.0000           -0.6931538             -18.8617
         5        2.0000           -0.3806558             -10.3582
         6        2.0000           -0.3053644              -8.3094
         7        2.0000           -0.3053630              -8.3093
         8        2.0000           -0.2995199              -8.1504
         9        2.0000           -0.2994852              -8.1494
        10        2.0000           -0.2994569              -8.1486
        11        2.0000           -0.2912804              -7.9261
        12        2.0000           -0.2912151              -7.9244
        13        2.0000           -0.2911549              -7.9227
        14        2.0000           -0.2817266              -7.6662
        15        2.0000           -0.2816599              -7.6644
        16        2.0000           -0.2815881              -7.6624 (HOMO)
        17                          0.0156873               0.4269 (LUMO)
        18                          0.0159144               0.4331
        19                          0.0161646               0.4399
        20                          0.0348650               0.9487
        21                          0.0895700               2.4373
        22                          0.0895750               2.4375
        23                          0.1488057               4.0492
        24                          0.1488994               4.0518
        25                          0.1489834               4.0540
        26                          0.1740220               4.7354
        27                          0.1740566               4.7363
       ...                                ...                  ...
        45                          1.7820486              48.4920
      -------------------------------------------------------------
                  HL-Gap            0.2972754 Eh            8.0893 eV

     #   Z          covCN         q      C6AA      α(0)
     1  35 Br       0.805    -0.359   194.854    22.506
     2  13 Al       3.161     0.437    91.867    19.531
     3  35 Br       0.804    -0.359   194.835    22.505
     4  35 Br       0.805    -0.360   194.872    22.507
     5  35 Br       0.805    -0.359   194.855    22.506

Wiberg/Mayer (AO) data.
largest (>0.10) Wiberg bond orders for each atom

     #   Z sym  total        # sym  WBO       # sym  WBO       # sym  WBO
 ---------------------------------------------------------------------------
     1  35 Br   1.109 --     2 Al   0.998
     2  13 Al   3.991 --     3 Br   0.999     1 Br   0.998     5 Br   0.998
                             4 Br   0.997
     3  35 Br   1.110 --     2 Al   0.999
     4  35 Br   1.108 --     2 Al   0.997
     5  35 Br   1.109 --     2 Al   0.998
 ---------------------------------------------------------------------------

molecular dipole:
                 x           y           z       tot (Debye)
 q only:       -6.377      -0.085      -0.158
   full:       -6.377      -0.086      -0.158      16.215

           -------------------------------------------------
          | TOTAL ENERGY              -17.974045658081 Eh   |
          | GRADIENT NORM               0.000597755242 Eh/α |
          | HOMO-LUMO GAP               8.089274486508 eV   |
           -------------------------------------------------

 * finished run on 2024/12/20 at 01:52:52.773
