   * xtb version 6.7.1 (edcfbbe) compiled by 'conda@3ef47c1a292c' on 2024-11-25

   ID    Z sym.   atoms
    1   15 P      1
    2    8 O      2-5
    3    1 H      6, 7

          program call               : xtb A068.xyz --opt --namespace A068 --charge -1
          :  Hamiltonian                  GFN2-xTB          :
 * total energy  :   -20.0046925 Eh     change       -0.6842882E-10 Eh
 * total energy  :   -20.0062342 Eh     change       -0.1541639E-02 Eh
 * total energy  :   -20.0397343 Eh     change       -0.3350017E-01 Eh
 * total energy  :   -20.0805265 Eh     change       -0.4079216E-01 Eh
 * total energy  :   -20.1273342 Eh     change       -0.4680770E-01 Eh
 * total energy  :   -20.1481370 Eh     change       -0.2080278E-01 Eh
 * total energy  :   -20.1666961 Eh     change       -0.1855908E-01 Eh
 * total energy  :   -20.1833153 Eh     change       -0.1661926E-01 Eh
 * total energy  :   -20.1851222 Eh     change       -0.1806930E-02 Eh
 * total energy  :   -20.1868533 Eh     change       -0.1731077E-02 Eh
 * total energy  :   -20.1904388 Eh     change        0.7101511E-04 Eh
 * total energy  :   -20.1905992 Eh     change       -0.1604135E-03 Eh
 * total energy  :   -20.1906306 Eh     change       -0.3145404E-04 Eh
 * total energy  :   -20.1906670 Eh     change       -0.3638138E-04 Eh
 * total energy  :   -20.1906974 Eh     change       -0.3034500E-04 Eh
 * total energy  :   -20.1907151 Eh     change       -0.1772614E-04 Eh
 * total energy  :   -20.1907341 Eh     change       -0.1901012E-04 Eh
 * total energy  :   -20.1907351 Eh     change       -0.1023139E-05 Eh
 * total energy  :   -20.1907359 Eh     change       -0.7756869E-06 Eh
   *** GEOMETRY OPTIMIZATION CONVERGED AFTER 65 ITERATIONS ***

 final structure:
================
7
 xtb: 6.7.1 (edcfbbe)
P            0.96393105189526       -0.36570288006826       -0.46304146202373
O            0.74347060115550       -0.32954556156576       -1.93108648058718
O            0.88862688927033       -1.95416889260191        0.05060855609850
O           -0.43726538943801        0.19805938848362        0.25207485406564
O            2.12842940773766        0.25334069673553        0.21944157402111
H            1.35165590345682       -1.87912008116955        0.88005345492579
H           -1.05923846407758        0.02678733018632       -0.44911049650012

          :  Hamiltonian                  GFN2-xTB          :
         :: total energy             -20.190735895886 Eh    ::
         :: gradient norm              0.000425437843 Eh/a0 ::
         :: HOMO-LUMO gap             10.207728337183 eV    ::
         :: SCC energy               -20.286873047807 Eh    ::
         :: -> dispersion             -0.004351245508 Eh    ::
         :: repulsion energy           0.096137151922 Eh    ::

    * Orbital Energies and Occupations

         #    Occupation            Energy/Eh            Energy/eV
      -------------------------------------------------------------
         1        2.0000           -0.5283670             -14.3776
       ...           ...                  ...                  ...
         4        2.0000           -0.4571949             -12.4409
         5        2.0000           -0.4184411             -11.3864
         6        2.0000           -0.4019548             -10.9377
         7        2.0000           -0.3715041             -10.1091
         8        2.0000           -0.3572826              -9.7222
         9        2.0000           -0.3425689              -9.3218
        10        2.0000           -0.3008140              -8.1856
        11        2.0000           -0.2870585              -7.8113
        12        2.0000           -0.2793801              -7.6023
        13        2.0000           -0.2341249              -6.3709
        14        2.0000           -0.2331426              -6.3441
        15        2.0000           -0.2309595              -6.2847
        16        2.0000           -0.2162458              -5.8843 (HOMO)
        17                          0.1588813               4.3234 (LUMO)
        18                          0.1777128               4.8358
        19                          0.2132292               5.8023
        20                          0.3227175               8.7816
        21                          0.3347771               9.1097
        22                          0.3487611               9.4903
        23                          0.4845285              13.1847
        24                          0.5868103              15.9679
        25                          0.9956599              27.0933
        26                          1.2959554              35.2647
        27                          1.3403972              36.4741
      -------------------------------------------------------------
                  HL-Gap            0.3751271 Eh           10.2077 eV

     #   Z          covCN         q      C6AA      α(0)
     1  15 P        3.571     0.327   146.502    21.743
     2   8 O        0.808    -0.515    24.148     6.587
     3   8 O        1.613    -0.456    21.982     6.328
     4   8 O        1.613    -0.456    21.986     6.329
     5   8 O        0.808    -0.515    24.148     6.587
     6   1 H        0.977     0.307     0.686     1.294
     7   1 H        0.976     0.307     0.686     1.294

Wiberg/Mayer (AO) data.
largest (>0.10) Wiberg bond orders for each atom

     #   Z sym  total        # sym  WBO       # sym  WBO       # sym  WBO
 ---------------------------------------------------------------------------
     1  15 P    5.862 --     2 O    1.822     5 O    1.822     3 O    1.089
                             4 O    1.089
     2   8 O    2.054 --     1 P    1.822
     3   8 O    2.148 --     1 P    1.089     6 H    0.877
     4   8 O    2.148 --     1 P    1.089     7 H    0.877
     5   8 O    2.054 --     1 P    1.822
     6   1 H    0.906 --     3 O    0.877
     7   1 H    0.906 --     4 O    0.877
 ---------------------------------------------------------------------------

molecular dipole:
                 x           y           z       tot (Debye)
 q only:       -2.418       0.285       1.369
   full:       -2.592       0.166       1.513       7.641

           -------------------------------------------------
          | TOTAL ENERGY              -20.190735895886 Eh   |
          | GRADIENT NORM               0.000425437843 Eh/α |
          | HOMO-LUMO GAP              10.207728337183 eV   |
           -------------------------------------------------

 * finished run on 2024/12/20 at 01:52:52.961
