   * xtb version 6.7.1 (edcfbbe) compiled by 'conda@3ef47c1a292c' on 2024-11-25

   ID    Z sym.   atoms
    1    6 C      1-3
    2    5 B      4
    3    9 F      5-7
    4    1 H      8-14

          program call               : xtb A069.xyz --opt --namespace A069 --charge -1
          :  Hamiltonian                  GFN2-xTB          :
 * total energy  :   -25.7968005 Eh     change       -0.7558171E-08 Eh
 * total energy  :   -25.8080031 Eh     change       -0.1120260E-01 Eh
 * total energy  :   -25.8108754 Eh     change       -0.2872268E-02 Eh
 * total energy  :   -25.8114865 Eh     change       -0.6111802E-03 Eh
 * total energy  :   -25.8118679 Eh     change       -0.3813443E-03 Eh
 * total energy  :   -25.8119950 Eh     change       -0.1271548E-03 Eh
 * total energy  :   -25.8120871 Eh     change       -0.9207573E-04 Eh
 * total energy  :   -25.8121277 Eh     change       -0.4062271E-04 Eh
 * total energy  :   -25.8121537 Eh     change       -0.2595489E-04 Eh
 * total energy  :   -25.8121641 Eh     change       -0.1039989E-04 Eh
 * total energy  :   -25.8121695 Eh     change       -0.5396587E-05 Eh
 * total energy  :   -25.8121727 Eh     change       -0.3263154E-05 Eh
   *** GEOMETRY OPTIMIZATION CONVERGED AFTER 12 ITERATIONS ***

 final structure:
================
14
 xtb: 6.7.1 (edcfbbe)
C            1.00686695338820       -0.12568287006967        0.03212644031489
C            0.47200936112260       -1.49732066880560       -0.38001677349710
C            1.00027633810386       -2.60814496202861        0.51926041232736
B            0.39611086055005        0.46266453604252        1.44763930087495
F            0.74764199299734        1.82453931858219        1.60265526995412
F           -1.01374846650701        0.38894730589013        1.48084268892406
F            0.87560217710242       -0.21663976186832        2.58840045151267
H            0.76163898514279        0.59457938935751       -0.75509661444641
H            2.09889608031103       -0.16737820200843        0.09093991610020
H           -0.61861444305458       -1.47627829987215       -0.31804039406881
H            0.74247211115271       -1.71942120030076       -1.42309226360082
H            0.75806694554388       -2.37895969323245        1.55195524865657
H            0.56285355401348       -3.57338594894912        0.25519209518821
H            2.08420755013323       -2.68423894273729        0.43292422176009

          :  Hamiltonian                  GFN2-xTB          :
         :: total energy             -25.812172747681 Eh    ::
         :: gradient norm              0.000546516663 Eh/a0 ::
         :: HOMO-LUMO gap             12.450991801804 eV    ::
         :: SCC energy               -25.982427704362 Eh    ::
         :: -> dispersion             -0.008056078128 Eh    ::
         :: repulsion energy           0.170254956681 Eh    ::

    * Orbital Energies and Occupations

         #    Occupation            Energy/Eh            Energy/eV
      -------------------------------------------------------------
         1        2.0000           -0.5680838             -15.4583
       ...           ...                  ...                  ...
        10        2.0000           -0.3199653              -8.7067
        11        2.0000           -0.3011835              -8.1956
        12        2.0000           -0.2988754              -8.1328
        13        2.0000           -0.2975297              -8.0962
        14        2.0000           -0.2887209              -7.8565
        15        2.0000           -0.2764098              -7.5215
        16        2.0000           -0.2706371              -7.3644
        17        2.0000           -0.2599972              -7.0749
        18        2.0000           -0.2597825              -7.0690
        19        2.0000           -0.2525791              -6.8730
        20        2.0000           -0.2500451              -6.8041
        21        2.0000           -0.2499009              -6.8002
        22        2.0000           -0.2018700              -5.4932 (HOMO)
        23                          0.2556955               6.9578 (LUMO)
        24                          0.2705626               7.3624
        25                          0.2901189               7.8945
        26                          0.2999052               8.1608
        27                          0.3166595               8.6167
        28                          0.3512439               9.5578
        29                          0.3722818              10.1303
        30                          0.3862033              10.5091
        31                          0.4048884              11.0176
        32                          0.4455987              12.1254
        33                          0.5074881              13.8095
       ...                                ...                  ...
        35                          0.5774136              15.7122
      -------------------------------------------------------------
                  HL-Gap            0.4575655 Eh           12.4510 eV

     #   Z          covCN         q      C6AA      α(0)
     1   6 C        3.711    -0.149    23.523     6.931
     2   6 C        3.798    -0.038    21.248     6.563
     3   6 C        3.751    -0.094    22.362     6.744
     4   5 B        3.044     0.571    13.776     6.191
     5   9 F        0.720    -0.444    14.102     4.435
     6   9 F        0.720    -0.441    14.063     4.428
     7   9 F        0.720    -0.440    14.051     4.427
     8   1 H        0.924    -0.014     3.317     2.848
     9   1 H        0.924    -0.014     3.316     2.848
    10   1 H        0.924     0.018     2.759     2.597
    11   1 H        0.923    -0.019     3.402     2.885
    12   1 H        0.925     0.055     2.258     2.350
    13   1 H        0.924    -0.004     3.124     2.764
    14   1 H        0.925     0.013     2.850     2.640

Wiberg/Mayer (AO) data.
largest (>0.10) Wiberg bond orders for each atom

     #   Z sym  total        # sym  WBO       # sym  WBO       # sym  WBO
 ---------------------------------------------------------------------------
     1   6 C    3.932 --     2 C    1.012     9 H    0.982     8 H    0.982
                             4 B    0.887
     2   6 C    3.995 --     3 C    1.019     1 C    1.012    10 H    0.980
                            11 H    0.978
     3   6 C    3.996 --     2 C    1.019    14 H    0.989    13 H    0.989
                            12 H    0.985
     4   5 B    3.303 --     1 C    0.887     6 F    0.801     7 F    0.801
                             5 F    0.797
     5   9 F    0.871 --     4 B    0.797
     6   9 F    0.875 --     4 B    0.801
     7   9 F    0.877 --     4 B    0.801
     8   1 H    1.000 --     1 C    0.982
     9   1 H    1.000 --     1 C    0.982
    10   1 H    1.000 --     2 C    0.980
    11   1 H    1.000 --     2 C    0.978
    12   1 H    0.997 --     3 C    0.985
    13   1 H    1.000 --     3 C    0.989
    14   1 H    1.000 --     3 C    0.989
 ---------------------------------------------------------------------------

molecular dipole:
                 x           y           z       tot (Debye)
 q only:       -0.578      -0.857      -3.019
   full:       -0.499      -0.975      -3.224       8.656

           -------------------------------------------------
          | TOTAL ENERGY              -25.812172747681 Eh   |
          | GRADIENT NORM               0.000546516663 Eh/α |
          | HOMO-LUMO GAP              12.450991801804 eV   |
           -------------------------------------------------

 * finished run on 2024/12/20 at 01:52:53.033
