   * xtb version 6.7.1 (edcfbbe) compiled by 'conda@3ef47c1a292c' on 2024-11-25

   ID    Z sym.   atoms
    1    9 F      1, 11-22
    2    6 C      2, 3, 6-10
    3    8 O      4, 5

          program call               : xtb A070.xyz --opt --namespace A070 --charge -1
          :  Hamiltonian                  GFN2-xTB          :
 * total energy  :   -84.8535753 Eh     change       -0.5729817E-10 Eh
 * total energy  :   -84.8690153 Eh     change       -0.1544005E-01 Eh
 * total energy  :   -84.8760330 Eh     change       -0.7017690E-02 Eh
 * total energy  :   -84.8781338 Eh     change       -0.2100753E-02 Eh
 * total energy  :   -84.8796609 Eh     change       -0.1527122E-02 Eh
 * total energy  :   -84.8803857 Eh     change       -0.7247775E-03 Eh
 * total energy  :   -84.8807892 Eh     change       -0.4035652E-03 Eh
 * total energy  :   -84.8809067 Eh     change       -0.1175095E-03 Eh
 * total energy  :   -84.8809737 Eh     change       -0.6693226E-04 Eh
 * total energy  :   -84.8810317 Eh     change       -0.5798181E-04 Eh
 * total energy  :   -84.8811072 Eh     change       -0.3318882E-04 Eh
 * total energy  :   -84.8811480 Eh     change       -0.4074863E-04 Eh
 * total energy  :   -84.8811994 Eh     change       -0.5147912E-04 Eh
 * total energy  :   -84.8812586 Eh     change       -0.5914515E-04 Eh
 * total energy  :   -84.8813117 Eh     change       -0.5312812E-04 Eh
 * total energy  :   -84.8813494 Eh     change       -0.3764489E-04 Eh
 * total energy  :   -84.8813468 Eh     change        0.2609012E-05 Eh
 * total energy  :   -84.8813719 Eh     change       -0.2518005E-04 Eh
 * total energy  :   -84.8813756 Eh     change       -0.3611172E-05 Eh
   *** GEOMETRY OPTIMIZATION CONVERGED AFTER 20 ITERATIONS ***

 final structure:
================
22
 xtb: 6.7.1 (edcfbbe)
F            1.28090030506074        0.26372702130991        0.63072514704368
C            2.49663185799111       -0.20011682175788        0.19660879298261
C            2.59233238970639       -2.01489576374771        0.19004244333753
O            3.71132044588161       -2.34389454432748       -0.07709580862079
O            1.51981155148654       -2.47554203888626        0.44633449164202
C            2.76729369574180        0.40431530582386       -1.18393441983812
C            2.34326814171224        1.89732989137480       -1.41846473153201
C            2.92973403081614        2.99015714582755       -0.48456574969798
C            4.46916069802961        3.23145749746736       -0.51225141380234
C            5.09220626107345        3.59714622270074       -1.89382218390877
F            4.35281979083733        4.47947931768486       -2.56262180929095
F            6.28297228244248        4.16728394258976       -1.68888241094220
F            5.28907907841452        2.54396010483419       -2.66757888808792
F            4.69894410956762        4.29751762450726        0.29462167254687
F            5.15845738558094        2.21250468511377        0.00547183505695
F            2.36372625067846        4.17029616003181       -0.85764580372250
F            2.55864865258944        2.80270417271113        0.78547794171096
F            2.69438993533192        2.25506128406308       -2.68599986770756
F            1.00559720123646        2.01346184127694       -1.37289942936559
F            4.08281865471726        0.33313774735204       -1.49177077899383
F            2.11947648191946       -0.29197990262844       -2.14685906898314
F            3.41515079918462        0.35085910667882        1.06080004017281

          :  Hamiltonian                  GFN2-xTB          :
         :: total energy             -84.881375550352 Eh    ::
         :: gradient norm              0.000893515958 Eh/a0 ::
         :: HOMO-LUMO gap              5.673139537926 eV    ::
         :: SCC energy               -85.151247577673 Eh    ::
         :: -> dispersion             -0.023171371310 Eh    ::
         :: repulsion energy           0.269872027321 Eh    ::

    * Orbital Energies and Occupations

         #    Occupation            Energy/Eh            Energy/eV
      -------------------------------------------------------------
         1        2.0000           -0.8558590             -23.2891
       ...           ...                  ...                  ...
        54        2.0000           -0.4359799             -11.8636
        55        2.0000           -0.4341213             -11.8130
        56        2.0000           -0.4311659             -11.7326
        57        2.0000           -0.4204593             -11.4413
        58        2.0000           -0.4068638             -11.0713
        59        2.0000           -0.3962173             -10.7816
        60        2.0000           -0.3938616             -10.7175
        61        2.0000           -0.3850955             -10.4790
        62        2.0000           -0.3843139             -10.4577
        63        2.0000           -0.3700853             -10.0705
        64        2.0000           -0.3003542              -8.1731
        65        2.0000           -0.2915345              -7.9331
        66        2.0000           -0.2581995              -7.0260 (HOMO)
        67                         -0.0497154              -1.3528 (LUMO)
        68                         -0.0333628              -0.9078
        69                         -0.0168269              -0.4579
        70                         -0.0092534              -0.2518
        71                          0.0013793               0.0375
        72                          0.0278969               0.7591
        73                          0.0403778               1.0987
        74                          0.0727315               1.9791
        75                          0.0803972               2.1877
        76                          0.0999871               2.7208
        77                          0.1086627               2.9569
       ...                                ...                  ...
        88                          1.0344427              28.1486
      -------------------------------------------------------------
                  HL-Gap            0.2084840 Eh            5.6731 eV

     #   Z          covCN         q      C6AA      α(0)
     1   9 F        0.786    -0.244    11.701     4.041
     2   6 C        3.360     0.188    21.411     7.263
     3   6 C        2.529     0.399    20.357     7.373
     4   8 O        0.856    -0.454    22.796     6.401
     5   8 O        0.856    -0.444    22.578     6.371
     6   6 C        3.517     0.321    16.901     6.066
     7   6 C        3.518     0.313    17.000     6.083
     8   6 C        3.519     0.320    16.896     6.062
     9   6 C        3.518     0.312    17.017     6.086
    10   6 C        3.328     0.485    17.407     6.624
    11   9 F        0.791    -0.170    10.934     3.906
    12   9 F        0.792    -0.169    10.916     3.903
    13   9 F        0.791    -0.157    10.796     3.881
    14   9 F        0.791    -0.177    10.996     3.917
    15   9 F        0.789    -0.155    10.780     3.878
    16   9 F        0.791    -0.189    11.126     3.940
    17   9 F        0.790    -0.153    10.760     3.875
    18   9 F        0.789    -0.208    11.318     3.974
    19   9 F        0.790    -0.168    10.911     3.902
    20   9 F        0.789    -0.205    11.286     3.968
    21   9 F        0.790    -0.193    11.167     3.947
    22   9 F        0.787    -0.252    11.788     4.056

Wiberg/Mayer (AO) data.
largest (>0.10) Wiberg bond orders for each atom

     #   Z sym  total        # sym  WBO       # sym  WBO       # sym  WBO
 ---------------------------------------------------------------------------
     1   9 F    1.032 --     2 C    0.935
     2   6 C    3.566 --     1 F    0.935     6 C    0.931    22 F    0.927
                             3 C    0.530
     3   6 C    3.944 --     5 O    1.690     4 O    1.681     2 C    0.530
     4   8 O    2.056 --     3 C    1.681     5 O    0.267
     5   8 O    2.067 --     3 C    1.690     4 O    0.267
     6   6 C    3.841 --    21 F    0.960    20 F    0.956     2 C    0.931
                             7 C    0.889
     7   6 C    3.865 --    19 F    0.982    18 F    0.944     8 C    0.917
                             6 C    0.889
     8   6 C    3.888 --    17 F    0.992    16 F    0.953     7 C    0.917
                             9 C    0.911
     9   6 C    3.892 --    15 F    0.992    14 F    0.962     8 C    0.911
                            10 C    0.894
    10   6 C    3.876 --    13 F    0.987    11 F    0.971    12 F    0.966
                             9 C    0.894
    11   9 F    1.103 --    10 C    0.971
    12   9 F    1.101 --    10 C    0.966
    13   9 F    1.121 --    10 C    0.987
    14   9 F    1.078 --     9 C    0.962
    15   9 F    1.111 --     9 C    0.992
    16   9 F    1.068 --     8 C    0.953
    17   9 F    1.113 --     8 C    0.992
    18   9 F    1.055 --     7 C    0.944
    19   9 F    1.097 --     7 C    0.982
    20   9 F    1.063 --     6 C    0.956
    21   9 F    1.073 --     6 C    0.960
    22   9 F    1.023 --     2 C    0.927
 ---------------------------------------------------------------------------

molecular dipole:
                 x           y           z       tot (Debye)
 q only:       -5.065       1.134       0.207
   full:       -5.053       1.445       0.141      13.362

           -------------------------------------------------
          | TOTAL ENERGY              -84.881375550352 Eh   |
          | GRADIENT NORM               0.000893515958 Eh/α |
          | HOMO-LUMO GAP               5.673139537926 eV   |
           -------------------------------------------------

 * finished run on 2024/12/20 at 01:52:53.707
