   * xtb version 6.7.1 (edcfbbe) compiled by 'conda@3ef47c1a292c' on 2024-11-25

   ID    Z sym.   atoms
    1    9 F      1, 10-24, 29
    2    6 C      2-9
    3   16 S      25
    4    8 O      26-28

          program call               : xtb A071.xyz --opt --namespace A071 --charge -1
          :  Hamiltonian                  GFN2-xTB          :
 * total energy  :  -113.2121630 Eh     change       -0.1135163E-09 Eh
 * total energy  :  -113.2281030 Eh     change       -0.1593995E-01 Eh
 * total energy  :  -113.2357165 Eh     change       -0.7613562E-02 Eh
 * total energy  :  -113.2371691 Eh     change       -0.1452589E-02 Eh
 * total energy  :  -113.2381484 Eh     change       -0.9792699E-03 Eh
 * total energy  :  -113.2385128 Eh     change       -0.3644567E-03 Eh
 * total energy  :  -113.2387848 Eh     change       -0.2719632E-03 Eh
 * total energy  :  -113.2389508 Eh     change       -0.1660496E-03 Eh
 * total energy  :  -113.2390648 Eh     change       -0.1139447E-03 Eh
 * total energy  :  -113.2391509 Eh     change       -0.8614358E-04 Eh
 * total energy  :  -113.2475677 Eh     change       -0.4385285E-04 Eh
 * total energy  :  -113.2475958 Eh     change       -0.2810628E-04 Eh
 * total energy  :  -113.2476190 Eh     change       -0.2323606E-04 Eh
 * total energy  :  -113.2476427 Eh     change       -0.2363675E-04 Eh
 * total energy  :  -113.2476642 Eh     change       -0.2155582E-04 Eh
 * total energy  :  -113.2476798 Eh     change       -0.1558193E-04 Eh
 * total energy  :  -113.2476891 Eh     change       -0.9288326E-05 Eh
 * total energy  :  -113.2476966 Eh     change       -0.7487110E-05 Eh
 * total energy  :  -113.2477009 Eh     change       -0.4351042E-05 Eh
   *** GEOMETRY OPTIMIZATION CONVERGED AFTER 59 ITERATIONS ***

 final structure:
================
29
 xtb: 6.7.1 (edcfbbe)
F            0.86520034243405        1.07703794701221        0.00306446875782
C            1.86283604556418        0.25829747916872        0.41500012892163
C            2.55240705863592       -0.38057992964002       -0.78424275746204
C            2.57737657060068        0.47058561872326       -2.08938118251240
C            3.05099033830974        1.95307098257125       -2.22003604306001
C            4.59725242272678        2.19063558787430       -2.26771196883218
C            5.15332093527268        2.49471871752700       -3.71647428143141
C            4.78831491234974        3.82326547240520       -4.46181194846566
C            4.60254545945711        5.10852690990441       -3.60518783981785
F            5.68356731961138        5.37755777805411       -2.88520843345042
F            4.41140450510750        6.14422795263457       -4.42762555508597
F            3.54782767916688        5.03506448343743       -2.81197953971628
F            5.80523043607278        4.08044077582649       -5.31870574994585
F            3.70020032584031        3.67173341652618       -5.23056460457078
F            6.49821888091851        2.51418500905172       -3.58359597783951
F            4.87383565216582        1.47703273468290       -4.54772564556129
F            4.95693615698298        3.24007120450589       -1.51877347199139
F            5.29693583658836        1.12130986351226       -1.88131290317101
F            2.59749778891919        2.29879800237982       -3.47879579347484
F            2.41463310046925        2.80694347179801       -1.43332212131359
F            3.29990122622282       -0.22549221877587       -3.00229642500604
F            1.31062529671082        0.46276734916803       -2.56397786077472
F            3.78030013741506       -0.81070008252496       -0.47533502046301
F            1.89331249302202       -1.52027332299852       -1.17220424844930
S            3.21776050486551        1.25239408886235        1.29775085135138
O            2.51996245689264        2.29171873669136        1.99720145942097
O            3.88896175136894        0.27560459575460        2.10588482397343
O            3.90729181540745        1.65825340704960        0.08293331999220
F            1.27602255090059       -0.69590603117785        1.17263431997776

          :  Hamiltonian                  GFN2-xTB          :
         :: total energy            -113.247700932283 Eh    ::
         :: gradient norm              0.000902746898 Eh/a0 ::
         :: HOMO-LUMO gap              6.374580092075 eV    ::
         :: SCC energy              -113.569012940212 Eh    ::
         :: -> dispersion             -0.037571696273 Eh    ::
         :: repulsion energy           0.321312007929 Eh    ::

    * Orbital Energies and Occupations

         #    Occupation            Energy/Eh            Energy/eV
      -------------------------------------------------------------
         1        2.0000           -0.8658905             -23.5621
       ...           ...                  ...                  ...
        76        2.0000           -0.4327005             -11.7744
        77        2.0000           -0.4273643             -11.6292
        78        2.0000           -0.4211130             -11.4591
        79        2.0000           -0.4106169             -11.1735
        80        2.0000           -0.4061977             -11.0532
        81        2.0000           -0.4022211             -10.9450
        82        2.0000           -0.3922866             -10.6747
        83        2.0000           -0.3408405              -9.2747
        84        2.0000           -0.3378200              -9.1926
        85        2.0000           -0.3226501              -8.7798
        86        2.0000           -0.3211935              -8.7401
        87        2.0000           -0.3067572              -8.3473
        88        2.0000           -0.3056020              -8.3159 (HOMO)
        89                         -0.0713405              -1.9413 (LUMO)
        90                         -0.0471922              -1.2842
        91                         -0.0336276              -0.9151
        92                         -0.0304252              -0.8279
        93                         -0.0200253              -0.5449
        94                         -0.0019462              -0.0530
        95                          0.0149196               0.4060
        96                          0.0257849               0.7016
        97                          0.0324808               0.8838
        98                          0.0444182               1.2087
        99                          0.0505859               1.3765
       ...                                ...                  ...
       121                          1.4009630              38.1221
      -------------------------------------------------------------
                  HL-Gap            0.2342615 Eh            6.3746 eV

     #   Z          covCN         q      C6AA      α(0)
     1   9 F        0.796    -0.215    11.394     3.987
     2   6 C        3.503     0.188    18.965     6.456
     3   6 C        3.569     0.326    16.404     5.895
     4   6 C        3.520     0.325    16.809     6.044
     5   6 C        3.516     0.326    16.846     6.060
     6   6 C        3.512     0.331    16.818     6.061
     7   6 C        3.516     0.311    17.046     6.095
     8   6 C        3.517     0.310    17.053     6.093
     9   6 C        3.329     0.485    17.401     6.622
    10   9 F        0.791    -0.162    10.846     3.890
    11   9 F        0.792    -0.164    10.867     3.894
    12   9 F        0.791    -0.161    10.841     3.889
    13   9 F        0.791    -0.170    10.927     3.905
    14   9 F        0.789    -0.160    10.828     3.887
    15   9 F        0.791    -0.170    10.925     3.904
    16   9 F        0.789    -0.163    10.857     3.892
    17   9 F        0.789    -0.159    10.818     3.885
    18   9 F        0.791    -0.146    10.689     3.862
    19   9 F        0.794    -0.219    11.436     3.995
    20   9 F        0.791    -0.137    10.607     3.847
    21   9 F        0.791    -0.185    11.082     3.932
    22   9 F        0.792    -0.172    10.948     3.908
    23   9 F        0.793    -0.174    10.972     3.913
    24   9 F        0.792    -0.196    11.193     3.952
    25  16 S        3.600     1.270    99.250    16.767
    26   8 O        0.860    -0.601    26.133     6.854
    27   8 O        0.860    -0.607    26.294     6.875
    28   8 O        0.860    -0.717    29.185     7.243
    29   9 F        0.791    -0.197    11.200     3.953

Wiberg/Mayer (AO) data.
largest (>0.10) Wiberg bond orders for each atom

     #   Z sym  total        # sym  WBO       # sym  WBO       # sym  WBO
 ---------------------------------------------------------------------------
     1   9 F    1.057 --     2 C    0.952
     2   6 C    3.750 --    29 F    0.962     1 F    0.952     3 C    0.943
                            25 S    0.623
     3   6 C    3.880 --    23 F    0.981     2 C    0.943    24 F    0.938
                             4 C    0.914
     4   6 C    3.882 --    22 F    0.972    21 F    0.963     3 C    0.914
                             5 C    0.914
     5   6 C    3.886 --    20 F    1.013    19 F    0.920     4 C    0.914
                             6 C    0.907
     6   6 C    3.897 --    18 F    0.993    17 F    0.984     5 C    0.907
                             7 C    0.892
     7   6 C    3.886 --    16 F    0.983    15 F    0.972     8 C    0.908
                             6 C    0.892
     8   6 C    3.894 --    14 F    0.986    13 F    0.968     7 C    0.908
                             9 C    0.896
     9   6 C    3.879 --    12 F    0.983    10 F    0.978    11 F    0.967
                             8 C    0.896
    10   9 F    1.113 --     9 C    0.978
    11   9 F    1.103 --     9 C    0.967
    12   9 F    1.118 --     9 C    0.983
    13   9 F    1.085 --     8 C    0.968
    14   9 F    1.102 --     8 C    0.986
    15   9 F    1.089 --     7 C    0.972
    16   9 F    1.102 --     7 C    0.983
    17   9 F    1.107 --     6 C    0.984
    18   9 F    1.120 --     6 C    0.993
    19   9 F    1.037 --     5 C    0.920
    20   9 F    1.137 --     5 C    1.013
    21   9 F    1.075 --     4 C    0.963
    22   9 F    1.086 --     4 C    0.972
    23   9 F    1.096 --     3 C    0.981
    24   9 F    1.060 --     3 C    0.938
    25  16 S    5.159 --    26 O    1.538    27 O    1.533    28 O    1.415
                             2 C    0.623
    26   8 O    1.860 --    25 S    1.538    27 O    0.122    28 O    0.110
    27   8 O    1.854 --    25 S    1.533    26 O    0.122    28 O    0.107
    28   8 O    1.751 --    25 S    1.415    26 O    0.110    27 O    0.107
    29   9 F    1.074 --     2 C    0.962
 ---------------------------------------------------------------------------

molecular dipole:
                 x           y           z       tot (Debye)
 q only:       -6.006      -2.188      -0.430
   full:       -6.095      -2.253      -0.436      16.554

           -------------------------------------------------
          | TOTAL ENERGY             -113.247700932283 Eh   |
          | GRADIENT NORM               0.000902746898 Eh/α |
          | HOMO-LUMO GAP               6.374580092075 eV   |
           -------------------------------------------------

 * finished run on 2024/12/20 at 01:52:55.684
