   * xtb version 6.7.1 (edcfbbe) compiled by 'conda@3ef47c1a292c' on 2024-11-25

   ID    Z sym.   atoms
    1    6 C      1-5, 7, 8, 10, 13, 16
    2    8 O      6, 9
    3    9 F      11, 12, 14, 15, 17-19
    4    1 H      20-29

          program call               : xtb A072.xyz --opt --namespace A072 --charge -1
          :  Hamiltonian                  GFN2-xTB          :
 * total energy  :   -67.9786133 Eh     change       -0.1141842E-09 Eh
 * total energy  :   -67.9979482 Eh     change       -0.1933496E-01 Eh
 * total energy  :   -68.0027305 Eh     change       -0.4782238E-02 Eh
 * total energy  :   -68.0037786 Eh     change       -0.1048126E-02 Eh
 * total energy  :   -68.0045311 Eh     change       -0.7524695E-03 Eh
 * total energy  :   -68.0048367 Eh     change       -0.3055988E-03 Eh
 * total energy  :   -68.0051574 Eh     change       -0.3207469E-03 Eh
 * total energy  :   -68.0054806 Eh     change       -0.3232303E-03 Eh
 * total energy  :   -68.0058039 Eh     change       -0.3232212E-03 Eh
 * total energy  :   -68.0061427 Eh     change       -0.3388666E-03 Eh
 * total energy  :   -68.0094921 Eh     change       -0.4216361E-04 Eh
 * total energy  :   -68.0095414 Eh     change       -0.4923798E-04 Eh
 * total energy  :   -68.0095635 Eh     change       -0.2213636E-04 Eh
 * total energy  :   -68.0095767 Eh     change       -0.1317219E-04 Eh
 * total energy  :   -68.0095878 Eh     change       -0.1113058E-04 Eh
 * total energy  :   -68.0095955 Eh     change       -0.7659377E-05 Eh
 * total energy  :   -68.0096027 Eh     change       -0.7250672E-05 Eh
 * total energy  :   -68.0096088 Eh     change       -0.6131067E-05 Eh
 * total energy  :   -68.0096127 Eh     change       -0.3859762E-05 Eh
   *** GEOMETRY OPTIMIZATION CONVERGED AFTER 39 ITERATIONS ***

 final structure:
================
29
 xtb: 6.7.1 (edcfbbe)
C            1.67490047298245        0.84392854509754        0.08057791208760
C            0.90145048860415        0.10581832690758       -1.01542344742961
C            1.74990492180664       -0.00255539857583       -2.28521308960854
C            0.56448706212067       -1.30211501284405       -0.52086258415995
C           -0.42780291915928        0.85454589014456       -1.33643977461839
O           -1.49082048331811        0.26214324132186       -1.17198070395954
C           -0.26564792327505        2.18430679343616       -1.79753091080147
C           -1.23098910452986        3.08886943257862       -2.20166587231955
O           -1.04306491976563        4.25793271658995       -2.56937693249224
C           -2.72851532810222        2.61513934385912       -2.22160242154856
F           -2.94062611540511        1.52064425262845       -3.00163788387236
F           -3.21345178100851        2.32072313184554       -0.98551394815034
C           -3.66490517406298        3.72181774139603       -2.78944098953792
F           -3.66163067071924        4.82474372817031       -2.01124123149538
F           -3.30157195741735        4.10184579606427       -4.03287352004939
C           -5.14730107818021        3.27505823616938       -2.90230986555503
F           -5.32812350037904        2.30056900428699       -3.79184572893862
F           -5.67121165395555        2.87230323264201       -1.74727703636762
F           -5.90534624227297        4.30583530510493       -3.31891197514249
H            2.57352991476375        0.28600752868091        0.34941934703442
H            1.05460713006976        0.95007030489625        0.96848815634417
H            1.97297826132408        1.83659699922636       -0.24526107401322
H            2.66442063865935       -0.56228699469077       -2.08376854603744
H            1.19177840152852       -0.51951427577634       -3.06289313229028
H            2.02303462429842        0.97953815430127       -2.66102101557170
H           -0.04460167390821       -1.24560878781993        0.37808647294976
H           -0.00901994846009       -1.83405677738137       -1.27589745055808
H            1.47402827961264       -1.86211526443154       -0.30167348118543
H            0.73321027814724        2.59150480618402       -1.84827927271278

          :  Hamiltonian                  GFN2-xTB          :
         :: total energy             -68.009612699959 Eh    ::
         :: gradient norm              0.000740423875 Eh/a0 ::
         :: HOMO-LUMO gap              3.100718852279 eV    ::
         :: SCC energy               -68.460381027328 Eh    ::
         :: -> dispersion             -0.027279403345 Eh    ::
         :: repulsion energy           0.450768327369 Eh    ::

    * Orbital Energies and Occupations

         #    Occupation            Energy/Eh            Energy/eV
      -------------------------------------------------------------
         1        2.0000           -0.8067347             -21.9524
       ...           ...                  ...                  ...
        44        2.0000           -0.3632037              -9.8833
        45        2.0000           -0.3620435              -9.8517
        46        2.0000           -0.3592679              -9.7762
        47        2.0000           -0.3507936              -9.5456
        48        2.0000           -0.3477837              -9.4637
        49        2.0000           -0.3422742              -9.3138
        50        2.0000           -0.3399629              -9.2509
        51        2.0000           -0.3273754              -8.9083
        52        2.0000           -0.3225631              -8.7774
        53        2.0000           -0.3077610              -8.3746
        54        2.0000           -0.2549355              -6.9371
        55        2.0000           -0.2298355              -6.2541
        56        2.0000           -0.2242146              -6.1012 (HOMO)
        57                         -0.1102653              -3.0005 (LUMO)
        58                         -0.0082016              -0.2232
        59                          0.0523406               1.4243
        60                          0.0632241               1.7204
        61                          0.0979292               2.6648
        62                          0.1255560               3.4166
        63                          0.1547322               4.2105
        64                          0.1763351               4.7983
        65                          0.1806574               4.9159
        66                          0.1952346               5.3126
        67                          0.2080612               5.6616
       ...                                ...                  ...
        86                          0.8013657              21.8063
      -------------------------------------------------------------
                  HL-Gap            0.1139493 Eh            3.1007 eV

     #   Z          covCN         q      C6AA      α(0)
     1   6 C        3.759    -0.098    22.423     6.751
     2   6 C        3.899     0.001    20.502     6.436
     3   6 C        3.759    -0.098    22.430     6.752
     4   6 C        3.761    -0.092    22.311     6.733
     5   6 C        2.817     0.208    23.598     7.959
     6   8 O        0.857    -0.461    22.936     6.421
     7   6 C        2.894    -0.154    31.976     9.271
     8   6 C        2.809     0.185    24.032     8.032
     9   8 O        0.858    -0.500    23.786     6.539
    10   6 C        3.513     0.300    17.223     6.132
    11   9 F        0.788    -0.217    11.414     3.991
    12   9 F        0.788    -0.214    11.383     3.985
    13   6 C        3.520     0.320    16.885     6.059
    14   9 F        0.789    -0.187    11.104     3.936
    15   9 F        0.789    -0.188    11.108     3.937
    16   6 C        3.331     0.483    17.394     6.616
    17   9 F        0.791    -0.180    11.033     3.924
    18   9 F        0.791    -0.179    11.023     3.922
    19   9 F        0.792    -0.196    11.189     3.951
    20   1 H        0.924     0.018     2.763     2.599
    21   1 H        0.925     0.028     2.611     2.527
    22   1 H        0.925     0.032     2.552     2.498
    23   1 H        0.924     0.018     2.763     2.599
    24   1 H        0.925     0.029     2.605     2.524
    25   1 H        0.925     0.033     2.545     2.495
    26   1 H        0.925     0.037     2.483     2.464
    27   1 H        0.925     0.039     2.460     2.453
    28   1 H        0.924     0.008     2.918     2.671
    29   1 H        0.926     0.023     2.683     2.562

Wiberg/Mayer (AO) data.
largest (>0.10) Wiberg bond orders for each atom

     #   Z sym  total        # sym  WBO       # sym  WBO       # sym  WBO
 ---------------------------------------------------------------------------
     1   6 C    3.998 --     2 C    0.993    21 H    0.987    20 H    0.985
                            22 H    0.983
     2   6 C    3.986 --     4 C    1.002     1 C    0.993     3 C    0.993
                             5 C    0.920
     3   6 C    3.997 --     2 C    0.993    24 H    0.987    23 H    0.985
                            25 H    0.983
     4   6 C    3.997 --     2 C    1.002    28 H    0.987    26 H    0.986
                            27 H    0.986
     5   6 C    3.952 --     6 O    1.669     7 C    1.244     2 C    0.920
     6   8 O    1.986 --     5 C    1.669     7 C    0.104
     7   6 C    3.941 --     8 C    1.402     5 C    1.244    29 H    0.958
                             9 O    0.175     6 O    0.104
     8   6 C    3.947 --     9 O    1.556     7 C    1.402    10 C    0.851
     9   8 O    1.933 --     8 C    1.556     7 C    0.175
    10   6 C    3.793 --    12 F    0.947    11 F    0.945    13 C    0.908
                             8 C    0.851
    11   9 F    1.054 --    10 C    0.945
    12   9 F    1.057 --    10 C    0.947
    13   6 C    3.864 --    14 F    0.966    15 F    0.965    10 C    0.908
                            16 C    0.900
    14   9 F    1.076 --    13 C    0.966
    15   9 F    1.076 --    13 C    0.965
    16   6 C    3.850 --    18 F    0.971    17 F    0.970    19 F    0.949
                            13 C    0.900
    17   9 F    1.096 --    16 C    0.970
    18   9 F    1.098 --    16 C    0.971
    19   9 F    1.076 --    16 C    0.949
    20   1 H    0.999 --     1 C    0.985
    21   1 H    0.999 --     1 C    0.987
    22   1 H    0.999 --     1 C    0.983
    23   1 H    0.999 --     3 C    0.985
    24   1 H    0.999 --     3 C    0.987
    25   1 H    0.999 --     3 C    0.983
    26   1 H    0.999 --     4 C    0.986
    27   1 H    0.998 --     4 C    0.986
    28   1 H    1.000 --     4 C    0.987
    29   1 H    0.999 --     7 C    0.958
 ---------------------------------------------------------------------------

molecular dipole:
                 x           y           z       tot (Debye)
 q only:        4.051      -4.695       3.948
   full:        4.161      -4.787       3.973      19.023

           -------------------------------------------------
          | TOTAL ENERGY              -68.009612699959 Eh   |
          | GRADIENT NORM               0.000740423875 Eh/α |
          | HOMO-LUMO GAP               3.100718852279 eV   |
           -------------------------------------------------

 * finished run on 2024/12/20 at 01:52:56.681
