   * xtb version 6.7.1 (edcfbbe) compiled by 'conda@3ef47c1a292c' on 2024-11-25

   ID    Z sym.   atoms
    1    6 C      1, 5, 12, 19
    2   16 S      2, 9, 16
    3    8 O      3, 4, 10, 11, 17, 18
    4    9 F      6-8, 13-15, 20-22

          program call               : xtb A073.xyz --opt --namespace A073 --charge -1
          :  Hamiltonian                  GFN2-xTB          :
 * total energy  :   -85.4692553 Eh     change       -0.1593037E-10 Eh
 * total energy  :   -85.4885289 Eh     change       -0.1927361E-01 Eh
 * total energy  :   -85.4972068 Eh     change       -0.8677895E-02 Eh
 * total energy  :   -85.4983324 Eh     change       -0.1125641E-02 Eh
 * total energy  :   -85.4988157 Eh     change       -0.4832289E-03 Eh
 * total energy  :   -85.4989017 Eh     change       -0.8599073E-04 Eh
 * total energy  :   -85.4989625 Eh     change       -0.6087793E-04 Eh
 * total energy  :   -85.4989885 Eh     change       -0.2594689E-04 Eh
 * total energy  :   -85.4990076 Eh     change       -0.1912999E-04 Eh
 * total energy  :   -85.4990335 Eh     change       -0.2585187E-04 Eh
 * total energy  :   -85.5009958 Eh     change       -0.4190307E-04 Eh
 * total energy  :   -85.5010193 Eh     change       -0.2347009E-04 Eh
 * total energy  :   -85.5010326 Eh     change       -0.1333042E-04 Eh
 * total energy  :   -85.5010296 Eh     change        0.3019381E-05 Eh
 * total energy  :   -85.5010500 Eh     change       -0.2034557E-04 Eh
 * total energy  :   -85.5010573 Eh     change       -0.7306512E-05 Eh
 * total energy  :   -85.5010629 Eh     change       -0.5634544E-05 Eh
 * total energy  :   -85.5010675 Eh     change       -0.4562322E-05 Eh
 * total energy  :   -85.5010707 Eh     change       -0.3228484E-05 Eh
   *** GEOMETRY OPTIMIZATION CONVERGED AFTER 39 ITERATIONS ***

 final structure:
================
22
 xtb: 6.7.1 (edcfbbe)
C            0.84501165750033       -0.20101372560344        0.13671996459083
S            0.09062560256067        1.18206179584201       -0.53872205898106
O           -1.19510159494794        0.74112674699009       -0.99658341382355
O            0.11147563212951        2.31259617105460        0.33247686267731
C            0.99585448214343        1.77018336547384       -2.12621113355244
F            1.45009567414884        3.01355909385064       -1.98564315737521
F            2.02545556573671        0.99245113129572       -2.45925646620413
F            0.14827297387006        1.78166044573613       -3.15510256458105
S            0.46684682056797       -1.54029769611325       -0.86634579321164
O            0.36826534810056       -1.23912838734666       -2.26016400270311
O            1.26889407901436       -2.66293088118696       -0.48066527823961
C           -1.30104503233602       -2.02189664668048       -0.32239794355910
F           -1.65903948014621       -1.40063416553152        0.79914417917729
F           -2.22031061760423       -1.80017861119768       -1.24915923217006
F           -1.33353088837490       -3.33673082082804       -0.05842572443899
S            2.51616339761761        0.05643205423224        0.47276140440124
O            2.85244916924185        1.38094591857661        0.04313891235163
O            2.87215336907844       -0.31394922067508        1.80693459222404
C            3.66359581866088       -1.07633038699179       -0.56940214930417
F            3.91515643845764       -2.23191956603537        0.03371783745513
F            3.25747446702412       -1.32103026240883       -1.81109820487261
F            4.83327711755612       -0.42875635245280       -0.66124662986076

          :  Hamiltonian                  GFN2-xTB          :
         :: total energy             -85.501070704940 Eh    ::
         :: gradient norm              0.000946518919 Eh/a0 ::
         :: HOMO-LUMO gap              5.743346960289 eV    ::
         :: SCC energy               -85.800331401795 Eh    ::
         :: -> dispersion             -0.038051395205 Eh    ::
         :: repulsion energy           0.299260696855 Eh    ::

    * Orbital Energies and Occupations

         #    Occupation            Energy/Eh            Energy/eV
      -------------------------------------------------------------
         1        2.0000           -0.8070877             -21.9620
       ...           ...                  ...                  ...
        55        2.0000           -0.4068034             -11.0697
        56        2.0000           -0.3964175             -10.7871
        57        2.0000           -0.3913822             -10.6501
        58        2.0000           -0.3873929             -10.5415
        59        2.0000           -0.3775423             -10.2734
        60        2.0000           -0.3745185             -10.1912
        61        2.0000           -0.3733414             -10.1591
        62        2.0000           -0.3695197             -10.0551
        63        2.0000           -0.3636172              -9.8945
        64        2.0000           -0.3626751              -9.8689
        65        2.0000           -0.3475695              -9.4578
        66        2.0000           -0.3430520              -9.3349
        67        2.0000           -0.3212628              -8.7420 (HOMO)
        68                         -0.1101987              -2.9987 (LUMO)
        69                         -0.1012561              -2.7553
        70                         -0.0927749              -2.5245
        71                         -0.0562556              -1.5308
        72                         -0.0324013              -0.8817
        73                         -0.0251734              -0.6850
        74                         -0.0149617              -0.4071
        75                         -0.0109614              -0.2983
        76                          0.0202866               0.5520
        77                          0.0314721               0.8564
        78                          0.0479781               1.3056
       ...                                ...                  ...
       103                          1.3492616              36.7153
      -------------------------------------------------------------
                  HL-Gap            0.2110641 Eh            5.7433 eV

     #   Z          covCN         q      C6AA      α(0)
     1   6 C        2.924    -0.484    43.000    10.754
     2  16 S        4.377     1.079   104.424    17.199
     3   8 O        0.861    -0.570    25.390     6.756
     4   8 O        0.860    -0.524    24.322     6.612
     5   6 C        3.305     0.373    19.302     7.024
     6   9 F        0.798    -0.170    10.925     3.904
     7   9 F        0.795    -0.193    11.166     3.947
     8   9 F        0.800    -0.173    10.960     3.911
     9  16 S        4.303     1.080   104.383    17.196
    10   8 O        0.860    -0.554    25.013     6.706
    11   8 O        0.860    -0.555    25.036     6.709
    12   6 C        3.307     0.379    19.193     7.000
    13   9 F        0.797    -0.182    11.054     3.927
    14   9 F        0.796    -0.161    10.836     3.889
    15   9 F        0.802    -0.184    11.067     3.930
    16  16 S        4.174     1.089   104.124    17.174
    17   8 O        0.861    -0.568    25.353     6.751
    18   8 O        0.860    -0.526    24.369     6.619
    19   6 C        3.305     0.371    19.347     7.032
    20   9 F        0.796    -0.166    10.885     3.897
    21   9 F        0.793    -0.181    11.042     3.925
    22   9 F        0.810    -0.180    11.030     3.923

Wiberg/Mayer (AO) data.
largest (>0.10) Wiberg bond orders for each atom

     #   Z sym  total        # sym  WBO       # sym  WBO       # sym  WBO
 ---------------------------------------------------------------------------
     1   6 C    3.422 --     2 S    0.909     9 S    0.884    16 S    0.865
     2  16 S    4.971 --     4 O    1.680     3 O    1.640     1 C    0.909
                             5 C    0.630
     3   8 O    1.933 --     2 S    1.640     4 O    0.109
     4   8 O    1.977 --     2 S    1.680     3 O    0.109
     5   6 C    3.784 --     6 F    0.978     8 F    0.974     7 F    0.964
                             2 S    0.630
     6   9 F    1.115 --     5 C    0.978
     7   9 F    1.098 --     5 C    0.964
     8   9 F    1.110 --     5 C    0.974
     9  16 S    4.966 --    11 O    1.657    10 O    1.639     1 C    0.884
                            12 C    0.657
    10   8 O    1.951 --     9 S    1.639    11 O    0.110
    11   8 O    1.947 --     9 S    1.657    10 O    0.110
    12   6 C    3.794 --    14 F    0.989    13 F    0.971    15 F    0.960
                             9 S    0.657
    13   9 F    1.105 --    12 C    0.971
    14   9 F    1.125 --    12 C    0.989
    15   9 F    1.094 --    12 C    0.960
    16  16 S    4.943 --    18 O    1.671    17 O    1.639     1 C    0.865
                            19 C    0.640
    17   8 O    1.932 --    16 S    1.639    18 O    0.111
    18   8 O    1.973 --    16 S    1.671    17 O    0.111
    19   6 C    3.789 --    20 F    0.982    21 F    0.971    22 F    0.963
                            16 S    0.640
    20   9 F    1.120 --    19 C    0.982
    21   9 F    1.113 --    19 C    0.971
    22   9 F    1.099 --    19 C    0.963
 ---------------------------------------------------------------------------

molecular dipole:
                 x           y           z       tot (Debye)
 q only:       -2.107       0.017       1.149
   full:       -2.034      -0.021       0.790       5.545

           -------------------------------------------------
          | TOTAL ENERGY              -85.501070704940 Eh   |
          | GRADIENT NORM               0.000946518919 Eh/α |
          | HOMO-LUMO GAP               5.743346960289 eV   |
           -------------------------------------------------

 * finished run on 2024/12/20 at 01:52:57.747
