   * xtb version 6.7.1 (edcfbbe) compiled by 'conda@3ef47c1a292c' on 2024-11-25

   ID    Z sym.   atoms
    1    6 C      1, 2
    2    8 O      3, 4
    3    1 H      5-7

          program call               : xtb A074.xyz --opt --namespace A074 --charge -1
          :  Hamiltonian                  GFN2-xTB          :
 * total energy  :   -14.1633322 Eh     change       -0.9495018E-09 Eh
 * total energy  :   -14.1656313 Eh     change       -0.2299088E-02 Eh
 * total energy  :   -14.1660939 Eh     change       -0.4626395E-03 Eh
 * total energy  :   -14.1661399 Eh     change       -0.4598430E-04 Eh
 * total energy  :   -14.1661543 Eh     change       -0.1444205E-04 Eh
 * total energy  :   -14.1661465 Eh     change        0.7822631E-05 Eh
 * total energy  :   -14.1661546 Eh     change       -0.8099987E-05 Eh
 * total energy  :   -14.1661554 Eh     change       -0.7454911E-06 Eh
   *** GEOMETRY OPTIMIZATION CONVERGED AFTER 8 ITERATIONS ***

 final structure:
================
7
 xtb: 6.7.1 (edcfbbe)
C            1.14367742084253       -0.06197031018726       -0.06403635180164
C            0.34360151374165        1.30475636638639        0.00486011552362
O            0.44329628858886       -1.08334658986829       -0.11684577180636
O            2.37921698365735        0.03437615755929       -0.06005619817134
H           -0.29190342294341        1.39466279585532       -0.87595107143993
H           -0.29210804757241        1.30535097612938        0.89008272337195
H            1.03228926368542        2.14739060412517        0.04754655432370

          :  Hamiltonian                  GFN2-xTB          :
         :: total energy             -14.166155363840 Eh    ::
         :: gradient norm              0.000367025652 Eh/a0 ::
         :: HOMO-LUMO gap              5.335094934944 eV    ::
         :: SCC energy               -14.283997407856 Eh    ::
         :: -> dispersion             -0.003141437605 Eh    ::
         :: repulsion energy           0.117842044016 Eh    ::

    * Orbital Energies and Occupations

         #    Occupation            Energy/Eh            Energy/eV
      -------------------------------------------------------------
         1        2.0000           -0.4589462             -12.4886
         2        2.0000           -0.4457633             -12.1298
         3        2.0000           -0.4137797             -11.2595
         4        2.0000           -0.3489087              -9.4943
         5        2.0000           -0.3180858              -8.6556
         6        2.0000           -0.3064086              -8.3378
         7        2.0000           -0.3053732              -8.3096
         8        2.0000           -0.2749756              -7.4825
         9        2.0000           -0.2671314              -7.2690
        10        2.0000           -0.1846583              -5.0248
        11        2.0000           -0.1693892              -4.6093
        12        2.0000           -0.1544372              -4.2025 (HOMO)
        13                          0.0416239               1.1326 (LUMO)
        14                          0.2947607               8.0208
        15                          0.3417100               9.2984
        16                          0.3828365              10.4175
        17                          0.3920629              10.6686
        18                          0.6334083              17.2359
        19                          0.8799638              23.9450
      -------------------------------------------------------------
                  HL-Gap            0.1960611 Eh            5.3351 eV

     #   Z          covCN         q      C6AA      α(0)
     1   6 C        2.678     0.368    20.768     7.457
     2   6 C        3.742    -0.126    23.003     6.843
     3   8 O        0.856    -0.607    26.300     6.876
     4   8 O        0.856    -0.605    26.251     6.869
     5   1 H        0.925    -0.010     3.236     2.813
     6   1 H        0.925    -0.010     3.237     2.813
     7   1 H        0.925    -0.009     3.212     2.803

Wiberg/Mayer (AO) data.
largest (>0.10) Wiberg bond orders for each atom

     #   Z sym  total        # sym  WBO       # sym  WBO       # sym  WBO
 ---------------------------------------------------------------------------
     1   6 C    3.945 --     4 O    1.530     3 O    1.527     2 C    0.884
     2   6 C    3.969 --     7 H    0.993     6 H    0.986     5 H    0.986
                             1 C    0.884
     3   8 O    1.831 --     1 C    1.527     4 O    0.230
     4   8 O    1.834 --     1 C    1.530     3 O    0.230
     5   1 H    1.000 --     2 C    0.986
     6   1 H    1.000 --     2 C    0.986
     7   1 H    1.000 --     2 C    0.993
 ---------------------------------------------------------------------------

molecular dipole:
                 x           y           z       tot (Debye)
 q only:       -2.524       0.764       0.156
   full:       -2.710       1.055       0.171       7.405

           -------------------------------------------------
          | TOTAL ENERGY              -14.166155363840 Eh   |
          | GRADIENT NORM               0.000367025652 Eh/α |
          | HOMO-LUMO GAP               5.335094934944 eV   |
           -------------------------------------------------

 * finished run on 2024/12/20 at 01:52:57.786
