   * xtb version 6.7.1 (edcfbbe) compiled by 'conda@3ef47c1a292c' on 2024-11-25

   ID    Z sym.   atoms
    1    8 O      1, 3
    2    6 C      2, 4-7
    3    1 H      8-16

          program call               : xtb A075.xyz --opt --namespace A075 --charge -1
          :  Hamiltonian                  GFN2-xTB          :
 * total energy  :   -23.6606313 Eh     change       -0.7043610E-10 Eh
 * total energy  :   -23.6636199 Eh     change       -0.2988657E-02 Eh
 * total energy  :   -23.6641681 Eh     change       -0.5481644E-03 Eh
 * total energy  :   -23.6643731 Eh     change       -0.2049729E-03 Eh
 * total energy  :   -23.6644431 Eh     change       -0.7007298E-04 Eh
 * total energy  :   -23.6644527 Eh     change       -0.9509625E-05 Eh
 * total energy  :   -23.6644921 Eh     change       -0.3940396E-04 Eh
 * total energy  :   -23.6645014 Eh     change       -0.9359162E-05 Eh
 * total energy  :   -23.6645110 Eh     change       -0.9601968E-05 Eh
 * total energy  :   -23.6645130 Eh     change       -0.2015139E-05 Eh
   *** GEOMETRY OPTIMIZATION CONVERGED AFTER 10 ITERATIONS ***

 final structure:
================
16
 xtb: 6.7.1 (edcfbbe)
O            1.07794530299396        0.02455372055366       -0.17836067196532
C            2.30439966491192        0.08736471852269       -0.02098288806666
O            2.94815906354942        0.48314643451252        0.95665848167091
C            3.16349679997657       -0.42479085175837       -1.28301877311923
C            2.77615877034532       -1.87818426573520       -1.54741435481172
C            2.77591224106232        0.43283840018889       -2.48574724512395
C            4.65934293725212       -0.31536504924758       -1.01332925748526
H            1.69298098065111       -1.94778833222950       -1.63137269664919
H            3.22985039415697       -2.25442771588029       -2.47070564739483
H            3.09580712325639       -2.51203311108765       -0.72041724425438
H            3.09576757680095        1.46374579663730       -2.33488060902832
H            3.22931704908914        0.05882412067797       -3.41005822145626
H            1.69271410750898        0.42441883775237       -2.59419782021003
H            4.92503028002876        0.71833744958101       -0.80158140789892
H            4.92498936329609       -0.90842762177891       -0.14058015837087
H            5.24185834511998       -0.66419253070890       -1.87186148583596

          :  Hamiltonian                  GFN2-xTB          :
         :: total energy             -23.664513033550 Eh    ::
         :: gradient norm              0.000273675047 Eh/a0 ::
         :: HOMO-LUMO gap              5.206436032161 eV    ::
         :: SCC energy               -23.923795582250 Eh    ::
         :: -> dispersion             -0.011598381349 Eh    ::
         :: repulsion energy           0.259282548700 Eh    ::

    * Orbital Energies and Occupations

         #    Occupation            Energy/Eh            Energy/eV
      -------------------------------------------------------------
         1        2.0000           -0.4696608             -12.7801
       ...           ...                  ...                  ...
         9        2.0000           -0.3441079              -9.3637
        10        2.0000           -0.3415103              -9.2930
        11        2.0000           -0.3213281              -8.7438
        12        2.0000           -0.3199236              -8.7056
        13        2.0000           -0.3039521              -8.2710
        14        2.0000           -0.2971526              -8.0859
        15        2.0000           -0.2923640              -7.9556
        16        2.0000           -0.2882021              -7.8424
        17        2.0000           -0.2727966              -7.4232
        18        2.0000           -0.2682655              -7.2999
        19        2.0000           -0.1929203              -5.2496
        20        2.0000           -0.1782212              -4.8496
        21        2.0000           -0.1583793              -4.3097 (HOMO)
        22                          0.0329537               0.8967 (LUMO)
        23                          0.2326767               6.3315
        24                          0.2634578               7.1691
        25                          0.2710108               7.3746
        26                          0.2719084               7.3990
        27                          0.3010659               8.1924
        28                          0.3339426               9.0870
        29                          0.3358198               9.1381
        30                          0.3686978              10.0328
        31                          0.3693218              10.0498
        32                          0.3940846              10.7236
       ...                                ...                  ...
        37                          0.8834875              24.0409
      -------------------------------------------------------------
                  HL-Gap            0.1913330 Eh            5.2064 eV

     #   Z          covCN         q      C6AA      α(0)
     1   8 O        0.856    -0.597    26.056     6.844
     2   6 C        2.678     0.365    20.814     7.466
     3   8 O        0.856    -0.591    25.903     6.824
     4   6 C        3.888    -0.027    21.011     6.517
     5   6 C        3.758    -0.082    22.113     6.704
     6   6 C        3.758    -0.082    22.113     6.704
     7   6 C        3.757    -0.081    22.100     6.703
     8   1 H        0.925     0.032     2.551     2.498
     9   1 H        0.924    -0.010     3.231     2.811
    10   1 H        0.925     0.008     2.916     2.670
    11   1 H        0.925     0.008     2.916     2.670
    12   1 H        0.924    -0.010     3.231     2.811
    13   1 H        0.925     0.033     2.551     2.498
    14   1 H        0.925     0.022     2.697     2.568
    15   1 H        0.925     0.022     2.696     2.568
    16   1 H        0.924    -0.011     3.265     2.826

Wiberg/Mayer (AO) data.
largest (>0.10) Wiberg bond orders for each atom

     #   Z sym  total        # sym  WBO       # sym  WBO       # sym  WBO
 ---------------------------------------------------------------------------
     1   8 O    1.849 --     2 C    1.532     3 O    0.231
     2   6 C    3.944 --     3 O    1.543     1 O    1.532     4 C    0.831
     3   8 O    1.856 --     2 C    1.543     1 O    0.231
     4   6 C    3.955 --     7 C    1.004     6 C    0.999     5 C    0.999
                             2 C    0.831
     5   6 C    3.997 --     4 C    0.999    10 H    0.988     8 H    0.985
                             9 H    0.984
     6   6 C    3.997 --     4 C    0.999    11 H    0.988    13 H    0.985
                            12 H    0.984
     7   6 C    3.997 --     4 C    1.004    14 H    0.987    15 H    0.987
                            16 H    0.985
     8   1 H    0.999 --     5 C    0.985
     9   1 H    1.000 --     5 C    0.984
    10   1 H    1.000 --     5 C    0.988
    11   1 H    1.000 --     6 C    0.988
    12   1 H    1.000 --     6 C    0.984
    13   1 H    0.999 --     6 C    0.985
    14   1 H    0.999 --     7 C    0.987
    15   1 H    0.999 --     7 C    0.987
    16   1 H    1.000 --     7 C    0.985
 ---------------------------------------------------------------------------

molecular dipole:
                 x           y           z       tot (Debye)
 q only:       -4.165      -0.277      -0.237
   full:       -3.975      -0.389      -0.512      10.235

           -------------------------------------------------
          | TOTAL ENERGY              -23.664513033550 Eh   |
          | GRADIENT NORM               0.000273675047 Eh/α |
          | HOMO-LUMO GAP               5.206436032161 eV   |
           -------------------------------------------------

 * finished run on 2024/12/20 at 01:52:57.938
