   * xtb version 6.7.1 (edcfbbe) compiled by 'conda@3ef47c1a292c' on 2024-11-25

   ID    Z sym.   atoms
    1    9 F      1

          program call               : xtb A076.xyz --opt --namespace A076 --charge -1
          :  Hamiltonian                  GFN2-xTB          :

 final structure:
================
1
 xtb: 6.7.1 (edcfbbe)
F            0.91608000000000       -0.03045000000000       -0.04505000000000

          :  Hamiltonian                  GFN2-xTB          :
         :: total energy              -4.909635517990 Eh    ::
         :: gradient norm              0.000000000000 Eh/a0 ::
         :: HOMO-LUMO gap              0.000000000000 eV    ::
         :: SCC energy                -4.909635517990 Eh    ::
         :: -> dispersion              0.000000000000 Eh    ::
         :: repulsion energy           0.000000000000 Eh    ::

    * Orbital Energies and Occupations

         #    Occupation            Energy/Eh            Energy/eV
      -------------------------------------------------------------
         1        2.0000           -0.2859775              -7.7818
         2        2.0000           -0.0293110              -0.7976
         3        2.0000           -0.0293110              -0.7976
         4        2.0000           -0.0293110              -0.7976 (HOMO)
      -------------------------------------------------------------
                  HL-Gap            0.0293110 Eh            0.7976 eV

     #   Z          covCN         q      C6AA      α(0)
     1   9 F        0.000    -1.000    24.536     5.769

Wiberg/Mayer (AO) data.
largest (>0.10) Wiberg bond orders for each atom

     #   Z sym  total        # sym  WBO       # sym  WBO       # sym  WBO
 ---------------------------------------------------------------------------
     1   9 F    0.000
 ---------------------------------------------------------------------------

molecular dipole:
                 x           y           z       tot (Debye)
 q only:       -1.731       0.058       0.085
   full:       -1.731       0.058       0.085       4.408

           -------------------------------------------------
          | TOTAL ENERGY               -4.909635517990 Eh   |
          | GRADIENT NORM               0.000000000000 Eh/α |
          | HOMO-LUMO GAP               0.797592087732 eV   |
           -------------------------------------------------

 * finished run on 2024/12/20 at 01:52:57.960
