   * xtb version 6.7.1 (edcfbbe) compiled by 'conda@3ef47c1a292c' on 2024-11-25

   ID    Z sym.   atoms
    1    6 C      1-5
    2    5 B      6
    3    9 F      7-9
    4    1 H      10-20

          program call               : xtb A077.xyz --opt --namespace A077 --charge -1
          :  Hamiltonian                  GFN2-xTB          :
 * total energy  :   -30.7959534 Eh     change       -0.3500844E-10 Eh
 * total energy  :   -31.8991889 Eh     change       -0.1103235E+01 Eh
 * total energy  :   -31.9889690 Eh     change       -0.8978012E-01 Eh
 * total energy  :   -32.0246773 Eh     change       -0.3570835E-01 Eh
 * total energy  :   -32.0523283 Eh     change       -0.2765102E-01 Eh
 * total energy  :   -32.0731694 Eh     change       -0.2084107E-01 Eh
 * total energy  :   -32.0927002 Eh     change       -0.1953082E-01 Eh
 * total energy  :   -32.1099530 Eh     change       -0.1725278E-01 Eh
 * total energy  :   -32.1231840 Eh     change       -0.1323100E-01 Eh
 * total energy  :   -32.1291097 Eh     change       -0.5925677E-02 Eh
 * total energy  :   -32.1389568 Eh     change       -0.8547305E-04 Eh
 * total energy  :   -32.1390303 Eh     change       -0.7348522E-04 Eh
 * total energy  :   -32.1390697 Eh     change       -0.3943057E-04 Eh
 * total energy  :   -32.1391271 Eh     change       -0.5732858E-04 Eh
 * total energy  :   -32.1391804 Eh     change       -0.5328480E-04 Eh
 * total energy  :   -32.1392103 Eh     change       -0.2997200E-04 Eh
 * total energy  :   -32.1392261 Eh     change       -0.1576139E-04 Eh
 * total energy  :   -32.1392353 Eh     change       -0.9243270E-05 Eh
 * total energy  :   -32.1392390 Eh     change       -0.3625581E-05 Eh
   *** GEOMETRY OPTIMIZATION CONVERGED AFTER 30 ITERATIONS ***

 final structure:
================
20
 xtb: 6.7.1 (edcfbbe)
C            1.14895555706004       -0.10126070489080       -0.11788593598786
C            0.43092454648426        1.18858797310481        0.29710537261162
C            0.79886588497242        2.42006255334597       -0.53316572019818
C            0.32445163684164        2.38464678984935       -1.98459424488570
C           -1.19302764171122        2.43277410586973       -2.11233261936185
B            0.46058401923565       -1.00787658627670       -1.31693339245197
F            0.69732416721525       -2.38135283240164       -1.07783449673395
F           -0.93728005081700       -0.83851907153229       -1.39595529492843
F            0.99373004091807       -0.72784915245652       -2.59596748563876
H            1.19725478776682       -0.75069320795095        0.76229128997250
H            2.18461276305720        0.13168713808427       -0.38380419655443
H           -0.64648961894964        1.02418118533642        0.25191322514180
H            0.67997739707451        1.42187035268248        1.34266073596807
H            0.37877017785618        3.31086621965188       -0.04617131070115
H            1.88872350125500        2.52877665121332       -0.52638297464448
H            0.76154838520294        3.24003820094370       -2.51428755722472
H            0.68651163380047        1.47307279052184       -2.45290751136733
H           -1.60902584402148        3.26458646760831       -1.54103857827893
H           -1.48140198224248        2.55122854447815       -3.15586378586660
H           -1.61903936099667        1.50338258281942       -1.74960551886989

          :  Hamiltonian                  GFN2-xTB          :
         :: total energy             -32.139238959810 Eh    ::
         :: gradient norm              0.000420944413 Eh/a0 ::
         :: HOMO-LUMO gap             11.764500086525 eV    ::
         :: SCC energy               -32.401696395924 Eh    ::
         :: -> dispersion             -0.013921917668 Eh    ::
         :: repulsion energy           0.262457436114 Eh    ::

    * Orbital Energies and Occupations

         #    Occupation            Energy/Eh            Energy/eV
      -------------------------------------------------------------
         1        2.0000           -0.5717330             -15.5576
       ...           ...                  ...                  ...
        16        2.0000           -0.3051920              -8.3047
        17        2.0000           -0.3038190              -8.2673
        18        2.0000           -0.3001525              -8.1676
        19        2.0000           -0.2949804              -8.0268
        20        2.0000           -0.2841748              -7.7328
        21        2.0000           -0.2757346              -7.5031
        22        2.0000           -0.2724421              -7.4135
        23        2.0000           -0.2637579              -7.1772
        24        2.0000           -0.2610865              -7.1045
        25        2.0000           -0.2563160              -6.9747
        26        2.0000           -0.2534828              -6.8976
        27        2.0000           -0.2526664              -6.8754
        28        2.0000           -0.2050866              -5.5807 (HOMO)
        29                          0.2272508               6.1838 (LUMO)
        30                          0.2303491               6.2681
        31                          0.2518123               6.8522
        32                          0.2609489               7.1008
        33                          0.2715491               7.3892
        34                          0.2853367               7.7644
        35                          0.3033986               8.2559
        36                          0.3155085               8.5854
        37                          0.3318466               9.0300
        38                          0.3531182               9.6088
        39                          0.3558036               9.6819
       ...                                ...                  ...
        47                          0.5782041              15.7337
      -------------------------------------------------------------
                  HL-Gap            0.4323374 Eh           11.7645 eV

     #   Z          covCN         q      C6AA      α(0)
     1   6 C        3.708    -0.151    23.583     6.941
     2   6 C        3.798    -0.045    21.384     6.584
     3   6 C        3.800    -0.045    21.375     6.583
     4   6 C        3.800    -0.056    21.574     6.613
     5   6 C        3.751    -0.097    22.417     6.752
     6   5 B        3.043     0.572    13.770     6.190
     7   9 F        0.720    -0.444    14.098     4.434
     8   9 F        0.720    -0.439    14.030     4.423
     9   9 F        0.720    -0.442    14.066     4.429
    10   1 H        0.924    -0.011     3.251     2.820
    11   1 H        0.924    -0.012     3.284     2.834
    12   1 H        0.924     0.028     2.616     2.529
    13   1 H        0.923    -0.015     3.339     2.858
    14   1 H        0.923    -0.005     3.141     2.771
    15   1 H        0.924     0.009     2.905     2.666
    16   1 H        0.924    -0.003     3.119     2.762
    17   1 H        0.925     0.073     2.048     2.238
    18   1 H        0.924     0.006     2.952     2.687
    19   1 H        0.925     0.013     2.834     2.633
    20   1 H        0.925     0.063     2.168     2.303

Wiberg/Mayer (AO) data.
largest (>0.10) Wiberg bond orders for each atom

     #   Z sym  total        # sym  WBO       # sym  WBO       # sym  WBO
 ---------------------------------------------------------------------------
     1   6 C    3.931 --     2 C    1.010    10 H    0.982    11 H    0.982
                             6 B    0.887
     2   6 C    3.994 --     1 C    1.010     3 C    1.007    13 H    0.978
                            12 H    0.976
     3   6 C    3.998 --     4 C    1.008     2 C    1.007    14 H    0.978
                            15 H    0.978
     4   6 C    3.994 --     5 C    1.020     3 C    1.008    16 H    0.980
                            17 H    0.970
     5   6 C    3.996 --     4 C    1.020    19 H    0.989    18 H    0.988
                            20 H    0.982
     6   5 B    3.301 --     1 C    0.887     8 F    0.803     7 F    0.798
                             9 F    0.796
     7   9 F    0.871 --     6 B    0.798
     8   9 F    0.880 --     6 B    0.803
     9   9 F    0.877 --     6 B    0.796
    10   1 H    1.000 --     1 C    0.982
    11   1 H    1.000 --     1 C    0.982
    12   1 H    0.999 --     2 C    0.976
    13   1 H    1.000 --     2 C    0.978
    14   1 H    1.000 --     3 C    0.978
    15   1 H    1.000 --     3 C    0.978
    16   1 H    1.000 --     4 C    0.980
    17   1 H    0.995 --     4 C    0.970
    18   1 H    1.000 --     5 C    0.988
    19   1 H    1.000 --     5 C    0.989
    20   1 H    0.996 --     5 C    0.982
 ---------------------------------------------------------------------------

molecular dipole:
                 x           y           z       tot (Debye)
 q only:       -0.646       1.741       2.784
   full:       -0.558       1.925       2.960       9.087

           -------------------------------------------------
          | TOTAL ENERGY              -32.139238959810 Eh   |
          | GRADIENT NORM               0.000420944413 Eh/α |
          | HOMO-LUMO GAP              11.764500086525 eV   |
           -------------------------------------------------

 * finished run on 2024/12/20 at 01:52:58.188
