   * xtb version 6.7.1 (edcfbbe) compiled by 'conda@3ef47c1a292c' on 2024-11-25

   ID    Z sym.   atoms
    1    6 C      1-18
    2    8 O      19, 20
    3    1 H      21-55

          program call               : xtb A078.xyz --opt --namespace A078 --charge -1
          :  Hamiltonian                  GFN2-xTB          :
 * total energy  :   -64.7816407 Eh     change       -0.7769074E-10 Eh
 * total energy  :   -64.7855243 Eh     change       -0.3883613E-02 Eh
 * total energy  :   -64.7861669 Eh     change       -0.6425529E-03 Eh
 * total energy  :   -64.7862101 Eh     change       -0.4320132E-04 Eh
 * total energy  :   -64.7864336 Eh     change       -0.2234881E-03 Eh
 * total energy  :   -64.7864998 Eh     change       -0.6622564E-04 Eh
 * total energy  :   -64.7865813 Eh     change       -0.8154527E-04 Eh
 * total energy  :   -64.7866230 Eh     change       -0.4165356E-04 Eh
 * total energy  :   -64.7867179 Eh     change       -0.9487430E-04 Eh
 * total energy  :   -64.7867692 Eh     change       -0.5130120E-04 Eh
 * total energy  :   -64.7872848 Eh     change       -0.2170977E-04 Eh
 * total energy  :   -64.7872995 Eh     change       -0.1470584E-04 Eh
 * total energy  :   -64.7873208 Eh     change       -0.2129095E-04 Eh
 * total energy  :   -64.7873356 Eh     change       -0.1475521E-04 Eh
 * total energy  :   -64.7873457 Eh     change       -0.1016019E-04 Eh
 * total energy  :   -64.7873564 Eh     change       -0.1065877E-04 Eh
 * total energy  :   -64.7873642 Eh     change       -0.7834522E-05 Eh
 * total energy  :   -64.7873703 Eh     change       -0.6032465E-05 Eh
 * total energy  :   -64.7873749 Eh     change       -0.4645053E-05 Eh
   *** GEOMETRY OPTIMIZATION CONVERGED AFTER 33 ITERATIONS ***

 final structure:
================
55
 xtb: 6.7.1 (edcfbbe)
C            1.29026824239778       -0.35084532241796       -0.45120925643459
C            0.69689867028572       -1.50496686593070        0.46839029465095
C           -0.19309078232103       -0.93267456376886        1.56821215161302
C           -1.23591096910531        0.05866503860959        1.04655161534730
C           -2.10435851006816       -0.47274165563395       -0.09343409960753
C           -2.89865310069302       -1.73784792170621        0.23195408674737
C           -3.87055164312686       -1.60543345401038        1.40758331358939
C           -4.93183173370741       -0.51526148291128        1.24744269656429
C           -5.84098143507105       -0.67447205248356        0.02766779719063
C           -6.64155086624962       -1.97750816633400       -0.01669721218500
C           -7.56587712654749       -2.20992617679768        1.18026996568936
C           -8.62559803363361       -1.12814381030399        1.39841209614743
C           -9.58487992545945       -0.91645341581286        0.22550335862347
C          -10.38739179084850       -2.15259920783239       -0.18491193015517
C          -11.26922914526917       -2.74674432120875        0.91518502342417
C          -12.31659941607983       -1.79251131206082        1.49313367893395
C          -13.31641809965222       -1.23799898192074        0.47727766894842
C          -14.17310957063059       -2.31754436461224       -0.17396118019840
O            0.80232896246664       -0.27927709703801       -1.58990243902236
O            2.17075524650399        0.34838680435389        0.06592920234449
H            0.13878573531136       -2.20020411326942       -0.16364383702935
H            1.53161676406982       -2.04503044753882        0.92645162896783
H           -0.68915441726133       -1.74543340982684        2.11818411620663
H            0.44437266222307       -0.39894101788599        2.27949278842697
H           -1.86270953606462        0.39602989117066        1.88119412227526
H           -0.69851946945391        0.92803498852713        0.66314000729302
H           -2.79180150742660        0.31876193784312       -0.40660855943974
H           -1.44026530070241       -0.67473765506725       -0.93599269984622
H           -3.45000991593334       -2.04379313560649       -0.66160997873745
H           -2.19926210567689       -2.54276029815603        0.46497269395021
H           -4.36263546062607       -2.56992095358759        1.56593024132245
H           -3.29860082603936       -1.38729835325182        2.31194378569796
H           -5.54259259826505       -0.48804052468268        2.15455603440835
H           -4.43096798737244        0.45139471338306        1.17078194876271
H           -6.52962448781440        0.17413584408657       -0.00340428085707
H           -5.22937082803081       -0.62181073684925       -0.87460359937682
H           -7.23223614200005       -1.98780938619630       -0.93623757701640
H           -5.94664220474495       -2.81740110033554       -0.07617974171370
H           -8.05867456934252       -3.17713696491482        1.05261940024584
H           -6.96114852724432       -2.27905674032943        2.08675905785161
H           -9.20002266047268       -1.38476451159772        2.29215284837760
H           -8.12640889160262       -0.17894135631636        1.60312197586738
H          -10.27439817116626       -0.11018428565513        0.48745992690434
H           -9.01549594395286       -0.57820149332642       -0.64249880741725
H          -11.01054366142814       -1.88770620749350       -1.04240071627348
H           -9.69771487025612       -2.92889332532737       -0.52237953040646
H          -11.77203840187395       -3.62917718147862        0.51263511768229
H          -10.63448632400667       -3.08925817652390        1.73493746236977
H          -12.87066197591872       -2.32647839104150        2.27072372299728
H          -11.80996028479895       -0.95430001544099        1.97530096539707
H          -13.97203520682643       -0.53245220886683        0.99521457885122
H          -12.78602327458822       -0.68004167212818       -0.29580244397324
H          -14.67266484048918       -2.91673112613109        0.58504675559499
H          -14.93279892084433       -1.86598253468306       -0.80894424140307
H          -13.56735482256690       -2.97733172167811       -0.78947999816723

          :  Hamiltonian                  GFN2-xTB          :
         :: total energy             -64.787374905658 Eh    ::
         :: gradient norm              0.000611350767 Eh/a0 ::
         :: HOMO-LUMO gap              5.213916211968 eV    ::
         :: SCC energy               -65.648413209619 Eh    ::
         :: -> dispersion             -0.048003964244 Eh    ::
         :: repulsion energy           0.861038303961 Eh    ::

    * Orbital Energies and Occupations

         #    Occupation            Energy/Eh            Energy/eV
      -------------------------------------------------------------
         1        2.0000           -0.5791841             -15.7604
       ...           ...                  ...                  ...
        48        2.0000           -0.3326365              -9.0515
        49        2.0000           -0.3300158              -8.9802
        50        2.0000           -0.3172497              -8.6328
        51        2.0000           -0.3131388              -8.5209
        52        2.0000           -0.3096628              -8.4264
        53        2.0000           -0.2997541              -8.1567
        54        2.0000           -0.2912017              -7.9240
        55        2.0000           -0.2868391              -7.8053
        56        2.0000           -0.2757616              -7.5039
        57        2.0000           -0.2675236              -7.2797
        58        2.0000           -0.1935613              -5.2671
        59        2.0000           -0.1786196              -4.8605
        60        2.0000           -0.1608129              -4.3759 (HOMO)
        61                          0.0307950               0.8380 (LUMO)
        62                          0.1329395               3.6175
        63                          0.1351145               3.6767
        64                          0.1472721               4.0075
        65                          0.1484359               4.0391
        66                          0.1532138               4.1692
        67                          0.1606044               4.3703
        68                          0.1665749               4.5327
        69                          0.1736573               4.7255
        70                          0.1757589               4.7826
        71                          0.1784930               4.8570
       ...                                ...                  ...
       115                          0.8744847              23.7959
      -------------------------------------------------------------
                  HL-Gap            0.1916079 Eh            5.2139 eV

     #   Z          covCN         q      C6AA      α(0)
     1   6 C        2.678     0.368    20.759     7.456
     2   6 C        3.792    -0.093    22.274     6.721
     3   6 C        3.799    -0.034    21.190     6.554
     4   6 C        3.800    -0.045    21.372     6.582
     5   6 C        3.800    -0.058    21.624     6.621
     6   6 C        3.800    -0.051    21.486     6.600
     7   6 C        3.800    -0.051    21.494     6.601
     8   6 C        3.800    -0.053    21.521     6.605
     9   6 C        3.800    -0.054    21.553     6.610
    10   6 C        3.800    -0.054    21.547     6.609
    11   6 C        3.800    -0.054    21.545     6.609
    12   6 C        3.800    -0.054    21.553     6.610
    13   6 C        3.800    -0.055    21.563     6.612
    14   6 C        3.800    -0.055    21.563     6.612
    15   6 C        3.800    -0.055    21.571     6.613
    16   6 C        3.800    -0.056    21.576     6.613
    17   6 C        3.799    -0.051    21.491     6.601
    18   6 C        3.751    -0.099    22.458     6.758
    19   8 O        0.856    -0.605    26.242     6.868
    20   8 O        0.856    -0.599    26.095     6.849
    21   1 H        0.924    -0.004     3.136     2.769
    22   1 H        0.924    -0.010     3.243     2.816
    23   1 H        0.923    -0.013     3.288     2.836
    24   1 H        0.924     0.015     2.805     2.619
    25   1 H        0.924    -0.005     3.147     2.774
    26   1 H        0.924     0.038     2.481     2.463
    27   1 H        0.924     0.009     2.908     2.667
    28   1 H        0.924     0.072     2.063     2.246
    29   1 H        0.924     0.014     2.827     2.629
    30   1 H        0.924     0.030     2.582     2.513
    31   1 H        0.924     0.012     2.857     2.643
    32   1 H        0.924     0.028     2.618     2.530
    33   1 H        0.924     0.015     2.814     2.623
    34   1 H        0.924     0.033     2.540     2.492
    35   1 H        0.924     0.019     2.751     2.594
    36   1 H        0.924     0.036     2.504     2.475
    37   1 H        0.924     0.021     2.718     2.578
    38   1 H        0.924     0.031     2.565     2.505
    39   1 H        0.924     0.021     2.717     2.578
    40   1 H        0.924     0.030     2.586     2.515
    41   1 H        0.924     0.022     2.708     2.573
    42   1 H        0.924     0.031     2.575     2.509
    43   1 H        0.924     0.023     2.684     2.562
    44   1 H        0.924     0.031     2.567     2.506
    45   1 H        0.924     0.025     2.665     2.553
    46   1 H        0.924     0.031     2.577     2.511
    47   1 H        0.924     0.025     2.657     2.549
    48   1 H        0.924     0.030     2.580     2.512
    49   1 H        0.924     0.023     2.695     2.567
    50   1 H        0.924     0.031     2.576     2.510
    51   1 H        0.924     0.022     2.709     2.574
    52   1 H        0.924     0.033     2.546     2.495
    53   1 H        0.925     0.029     2.596     2.519
    54   1 H        0.925     0.026     2.643     2.543
    55   1 H        0.925     0.035     2.514     2.479

Wiberg/Mayer (AO) data.
largest (>0.10) Wiberg bond orders for each atom

     #   Z sym  total        # sym  WBO       # sym  WBO       # sym  WBO
 ---------------------------------------------------------------------------
     1   6 C    3.945 --    20 O    1.536    19 O    1.521     2 C    0.870
     2   6 C    3.967 --     3 C    1.006    21 H    0.981    22 H    0.978
                             1 C    0.870
     3   6 C    3.997 --     4 C    1.006     2 C    1.006    24 H    0.979
                            23 H    0.975
     4   6 C    3.997 --     5 C    1.008     3 C    1.006    25 H    0.977
                            26 H    0.976
     5   6 C    3.993 --     4 C    1.008     6 C    1.008    27 H    0.976
                            28 H    0.965
     6   6 C    3.997 --     5 C    1.008     7 C    1.006    29 H    0.976
                            30 H    0.974
     7   6 C    3.997 --     8 C    1.007     6 C    1.006    31 H    0.976
                            32 H    0.975
     8   6 C    3.998 --     9 C    1.008     7 C    1.007    33 H    0.976
                            34 H    0.974
     9   6 C    3.997 --     8 C    1.008    10 C    1.007    35 H    0.976
                            36 H    0.974
    10   6 C    3.998 --     9 C    1.007    11 C    1.007    37 H    0.976
                            38 H    0.975
    11   6 C    3.998 --    12 C    1.008    10 C    1.007    39 H    0.976
                            40 H    0.975
    12   6 C    3.998 --    13 C    1.008    11 C    1.008    41 H    0.976
                            42 H    0.975
    13   6 C    3.998 --    14 C    1.008    12 C    1.008    43 H    0.976
                            44 H    0.975
    14   6 C    3.998 --    15 C    1.008    13 C    1.008    45 H    0.975
                            46 H    0.975
    15   6 C    3.998 --    14 C    1.008    16 C    1.007    47 H    0.976
                            48 H    0.975
    16   6 C    3.998 --    17 C    1.008    15 C    1.007    49 H    0.978
                            50 H    0.975
    17   6 C    3.998 --    18 C    1.020    16 C    1.008    51 H    0.979
                            52 H    0.976
    18   6 C    3.998 --    17 C    1.020    54 H    0.988    53 H    0.988
                            55 H    0.986
    19   8 O    1.837 --     1 C    1.521    20 O    0.231
    20   8 O    1.843 --     1 C    1.536    19 O    0.231
    21   1 H    1.000 --     2 C    0.981
    22   1 H    1.000 --     2 C    0.978
    23   1 H    1.000 --     3 C    0.975
    24   1 H    1.000 --     3 C    0.979
    25   1 H    1.000 --     4 C    0.977
    26   1 H    0.999 --     4 C    0.976
    27   1 H    1.000 --     5 C    0.976
    28   1 H    0.995 --     5 C    0.965
    29   1 H    1.000 --     6 C    0.976
    30   1 H    0.999 --     6 C    0.974
    31   1 H    1.000 --     7 C    0.976
    32   1 H    0.999 --     7 C    0.975
    33   1 H    1.000 --     8 C    0.976
    34   1 H    0.999 --     8 C    0.974
    35   1 H    1.000 --     9 C    0.976
    36   1 H    0.999 --     9 C    0.974
    37   1 H    1.000 --    10 C    0.976
    38   1 H    0.999 --    10 C    0.975
    39   1 H    1.000 --    11 C    0.976
    40   1 H    0.999 --    11 C    0.975
    41   1 H    1.000 --    12 C    0.976
    42   1 H    0.999 --    12 C    0.975
    43   1 H    0.999 --    13 C    0.976
    44   1 H    0.999 --    13 C    0.975
    45   1 H    0.999 --    14 C    0.975
    46   1 H    0.999 --    14 C    0.975
    47   1 H    0.999 --    15 C    0.976
    48   1 H    0.999 --    15 C    0.975
    49   1 H    0.999 --    16 C    0.978
    50   1 H    0.999 --    16 C    0.975
    51   1 H    1.000 --    17 C    0.979
    52   1 H    0.999 --    17 C    0.976
    53   1 H    0.999 --    18 C    0.988
    54   1 H    0.999 --    18 C    0.988
    55   1 H    0.999 --    18 C    0.986
 ---------------------------------------------------------------------------

molecular dipole:
                 x           y           z       tot (Debye)
 q only:       -1.951       0.213       0.992
   full:       -2.153      -0.010       1.242       6.317

           -------------------------------------------------
          | TOTAL ENERGY              -64.787374905658 Eh   |
          | GRADIENT NORM               0.000611350767 Eh/α |
          | HOMO-LUMO GAP               5.213916211968 eV   |
           -------------------------------------------------

 * finished run on 2024/12/20 at 01:53:00.243
