   * xtb version 6.7.1 (edcfbbe) compiled by 'conda@3ef47c1a292c' on 2024-11-25

   ID    Z sym.   atoms
    1    9 F      1, 12-15
    2    6 C      2-5, 11
    3    8 O      6, 8-10
    4   16 S      7
    5    1 H      16-21

          program call               : xtb A079.xyz --opt --namespace A079 --charge -1
          :  Hamiltonian                  GFN2-xTB          :
 * total energy  :   -57.2394139 Eh     change       -0.7013057E-10 Eh
 * total energy  :   -57.2464826 Eh     change       -0.7068687E-02 Eh
 * total energy  :   -57.2504394 Eh     change       -0.3956732E-02 Eh
 * total energy  :   -57.2521549 Eh     change       -0.1715538E-02 Eh
 * total energy  :   -57.2532419 Eh     change       -0.1086986E-02 Eh
 * total energy  :   -57.2539448 Eh     change       -0.7029279E-03 Eh
 * total energy  :   -57.2544298 Eh     change       -0.4850325E-03 Eh
 * total energy  :   -57.2546999 Eh     change       -0.2700415E-03 Eh
 * total energy  :   -57.2548001 Eh     change       -0.1002569E-03 Eh
 * total energy  :   -57.2548590 Eh     change       -0.5883289E-04 Eh
 * total energy  :   -57.2549688 Eh     change       -0.1714782E-04 Eh
 * total energy  :   -57.2549855 Eh     change       -0.1668901E-04 Eh
 * total energy  :   -57.2549965 Eh     change       -0.1097631E-04 Eh
 * total energy  :   -57.2550043 Eh     change       -0.7850332E-05 Eh
 * total energy  :   -57.2550094 Eh     change       -0.5034962E-05 Eh
 * total energy  :   -57.2550163 Eh     change       -0.6924748E-05 Eh
 * total energy  :   -57.2550221 Eh     change       -0.5770115E-05 Eh
 * total energy  :   -57.2550256 Eh     change       -0.3511632E-05 Eh
 * total energy  :   -57.2550270 Eh     change       -0.1440636E-05 Eh
   *** GEOMETRY OPTIMIZATION CONVERGED AFTER 22 ITERATIONS ***

 final structure:
================
21
 xtb: 6.7.1 (edcfbbe)
F            0.24465865750800       -0.09683042727872       -0.28876775014062
C            1.56618540993290        0.17582558999752       -0.02382068735601
C            2.46760856409214       -0.97331125558704       -0.40531757261881
C            2.25524427765971       -1.46979756559987       -1.84429100314772
C            3.50780966046268       -1.25350107954106       -2.70442236650849
O            4.57920605132894       -2.00030805428574       -2.22803722837298
S            5.79773296933519       -0.96320964552025       -1.73921503908895
O            5.20852542752615       -0.21064126865430       -0.63618863317272
O            6.85368931277525       -1.86079973947424       -1.34461807572595
O            6.07520869053649       -0.14643617357732       -2.90121255777695
C            1.86392044591349        1.54067731582563       -0.69011956545262
F            0.91860630654203        2.44185211759498       -0.34906148612172
F            3.02333201515910        2.05219162194706       -0.31226246279775
F            1.84058075633760        1.47996389570090       -2.02337562055996
F            1.59315625898247        0.39702586669689        1.32018972930892
H            3.52546199526649       -0.65980430165752       -0.29349033505956
H            2.26850815057883       -1.76742281483692        0.31596231577580
H            2.04572693054150       -2.54019805451142       -1.82793055142112
H            1.40767092785546       -0.96861304124174       -2.31588244049641
H            3.29126277018165       -1.56133414678793       -3.73816417903735
H            3.80053442148412       -0.19910883920860       -2.71203449022936

          :  Hamiltonian                  GFN2-xTB          :
         :: total energy             -57.255027007912 Eh    ::
         :: gradient norm              0.000544384938 Eh/a0 ::
         :: HOMO-LUMO gap              8.031451416940 eV    ::
         :: SCC energy               -57.527207220793 Eh    ::
         :: -> dispersion             -0.021065725023 Eh    ::
         :: repulsion energy           0.272180212881 Eh    ::

    * Orbital Energies and Occupations

         #    Occupation            Energy/Eh            Energy/eV
      -------------------------------------------------------------
         1        2.0000           -0.8058312             -21.9278
       ...           ...                  ...                  ...
        34        2.0000           -0.3837410             -10.4421
        35        2.0000           -0.3742977             -10.1852
        36        2.0000           -0.3627454              -9.8708
        37        2.0000           -0.3464741              -9.4280
        38        2.0000           -0.3415906              -9.2952
        39        2.0000           -0.3271705              -8.9028
        40        2.0000           -0.3049899              -8.2992
        41        2.0000           -0.2839000              -7.7253
        42        2.0000           -0.2798566              -7.6153
        43        2.0000           -0.2768802              -7.5343
        44        2.0000           -0.2655400              -7.2257
        45        2.0000           -0.2625914              -7.1455
        46        2.0000           -0.2546767              -6.9301 (HOMO)
        47                          0.0404738               1.1013 (LUMO)
        48                          0.0595267               1.6198
        49                          0.0713328               1.9411
        50                          0.0911782               2.4811
        51                          0.1171807               3.1886
        52                          0.1322347               3.5983
        53                          0.1762124               4.7950
        54                          0.1798418               4.8937
        55                          0.2042823               5.5588
        56                          0.2084880               5.6732
        57                          0.2172821               5.9125
       ...                                ...                  ...
        71                          1.4137591              38.4703
      -------------------------------------------------------------
                  HL-Gap            0.2951504 Eh            8.0315 eV

     #   Z          covCN         q      C6AA      α(0)
     1   9 F        0.788    -0.227    11.513     4.008
     2   6 C        3.519     0.314    16.976     6.075
     3   6 C        3.801    -0.104    22.483     6.751
     4   6 C        3.799    -0.068    21.797     6.648
     5   6 C        3.931     0.090    19.035     6.200
     6   8 O        1.707    -0.484    22.530     6.409
     7  16 S        3.690     1.473    94.110    16.328
     8   8 O        0.860    -0.718    29.208     7.246
     9   8 O        0.860    -0.669    27.876     7.079
    10   8 O        0.860    -0.701    28.735     7.187
    11   6 C        3.330     0.484    17.398     6.618
    12   9 F        0.792    -0.197    11.204     3.954
    13   9 F        0.791    -0.168    10.914     3.902
    14   9 F        0.791    -0.190    11.135     3.942
    15   9 F        0.790    -0.214    11.376     3.984
    16   1 H        0.922     0.144     1.435     1.874
    17   1 H        0.924     0.071     2.077     2.254
    18   1 H        0.924     0.057     2.239     2.340
    19   1 H        0.924     0.040     2.445     2.445
    20   1 H        0.923     0.027     2.630     2.536
    21   1 H        0.924     0.041     2.438     2.442

Wiberg/Mayer (AO) data.
largest (>0.10) Wiberg bond orders for each atom

     #   Z sym  total        # sym  WBO       # sym  WBO       # sym  WBO
 ---------------------------------------------------------------------------
     1   9 F    1.037 --     2 C    0.927
     2   6 C    3.847 --     3 C    0.978    15 F    0.945     1 F    0.927
                            11 C    0.904
     3   6 C    3.949 --     4 C    0.997     2 C    0.978    17 H    0.968
                            16 H    0.900
     4   6 C    3.995 --     3 C    0.997     5 C    0.993    18 H    0.978
                            19 H    0.977
     5   6 C    3.955 --     6 O    1.002     4 C    0.993    20 H    0.967
                            21 H    0.964
     6   8 O    2.033 --     5 C    1.002     7 S    0.779
     7  16 S    5.029 --     9 O    1.459    10 O    1.414     8 O    1.351
                             6 O    0.779
     8   8 O    1.736 --     7 S    1.351    10 O    0.117     9 O    0.116
     9   8 O    1.771 --     7 S    1.459    10 O    0.122     8 O    0.116
    10   8 O    1.737 --     7 S    1.414     9 O    0.122     8 O    0.117
    11   6 C    3.850 --    13 F    0.984    14 F    0.960    12 F    0.945
                             2 C    0.904
    12   9 F    1.072 --    11 C    0.945
    13   9 F    1.113 --    11 C    0.984
    14   9 F    1.087 --    11 C    0.960
    15   9 F    1.051 --     2 C    0.945
    16   1 H    0.979 --     3 C    0.900
    17   1 H    0.995 --     3 C    0.968
    18   1 H    0.997 --     4 C    0.978
    19   1 H    0.998 --     4 C    0.977
    20   1 H    0.999 --     5 C    0.967
    21   1 H    0.998 --     5 C    0.964
 ---------------------------------------------------------------------------

molecular dipole:
                 x           y           z       tot (Debye)
 q only:      -10.041       0.590       2.553
   full:      -10.212       0.540       2.440      26.722

           -------------------------------------------------
          | TOTAL ENERGY              -57.255027007912 Eh   |
          | GRADIENT NORM               0.000544384938 Eh/α |
          | HOMO-LUMO GAP               8.031451416940 eV   |
           -------------------------------------------------

 * finished run on 2024/12/20 at 01:53:00.829
