   * xtb version 6.7.1 (edcfbbe) compiled by 'conda@3ef47c1a292c' on 2024-11-25

   ID    Z sym.   atoms
    1    6 C      1-4
    2    8 O      5, 8-10
    3    7 N      6
    4   16 S      7
    5    1 H      11-14

          program call               : xtb A080.xyz --opt --namespace A080 --charge -1
          :  Hamiltonian                  GFN2-xTB          :
 * total energy  :   -33.3061621 Eh     change       -0.1086207E-09 Eh
 * total energy  :   -33.3101955 Eh     change       -0.4033432E-02 Eh
 * total energy  :   -33.3123336 Eh     change       -0.2138066E-02 Eh
 * total energy  :   -33.3127599 Eh     change       -0.4262825E-03 Eh
 * total energy  :   -33.3131614 Eh     change       -0.4015287E-03 Eh
 * total energy  :   -33.3132935 Eh     change       -0.1320856E-03 Eh
 * total energy  :   -33.3133856 Eh     change       -0.9216783E-04 Eh
 * total energy  :   -33.3134296 Eh     change       -0.4393457E-04 Eh
 * total energy  :   -33.3134668 Eh     change       -0.3727023E-04 Eh
 * total energy  :   -33.3134947 Eh     change       -0.2781630E-04 Eh
 * total energy  :   -33.3135095 Eh     change       -0.1485858E-04 Eh
 * total energy  :   -33.3135165 Eh     change       -0.7022847E-05 Eh
 * total energy  :   -33.3135192 Eh     change       -0.2649261E-05 Eh
   *** GEOMETRY OPTIMIZATION CONVERGED AFTER 13 ITERATIONS ***

 final structure:
================
14
 xtb: 6.7.1 (edcfbbe)
C            0.87866042969281       -0.07279714140257       -0.08273867350804
C            0.42551635418152       -1.49917728848901       -0.25250098630430
C            1.22972860011652       -2.55769150692283       -0.15279953120880
C            0.74691075747978       -3.96498747539489       -0.20913511680868
O            1.46481961414378       -4.86126189714270        0.23457877211014
N           -0.48610403912049       -4.16939511559535       -0.67772787140268
S           -1.20339189511110       -2.99222942951172       -1.43280245838668
O           -0.63837082166255       -2.69022461954597       -2.72550108167702
O           -2.63018925698634       -3.12894984058846       -1.40049602246608
O           -0.90122898788071       -1.60585773480763       -0.51653092016742
H            0.26874865528155        0.41741803804331        0.67476014472135
H            0.74200225682894        0.46119577381714       -1.02209006823131
H            1.92462797792927       -0.03712241823676        0.20869157861707
H            2.27506035510702       -2.42533934422253        0.08397223471246

          :  Hamiltonian                  GFN2-xTB          :
         :: total energy             -33.313519196905 Eh    ::
         :: gradient norm              0.001000289184 Eh/a0 ::
         :: HOMO-LUMO gap              3.187281663424 eV    ::
         :: SCC energy               -33.598178483079 Eh    ::
         :: -> dispersion             -0.014859983468 Eh    ::
         :: repulsion energy           0.284659286174 Eh    ::

    * Orbital Energies and Occupations

         #    Occupation            Energy/Eh            Energy/eV
      -------------------------------------------------------------
         1        2.0000           -0.6166878             -16.7809
       ...           ...                  ...                  ...
        16        2.0000           -0.3649577              -9.9310
        17        2.0000           -0.3554000              -9.6709
        18        2.0000           -0.3518411              -9.5741
        19        2.0000           -0.3452544              -9.3948
        20        2.0000           -0.3325283              -9.0486
        21        2.0000           -0.3061840              -8.3317
        22        2.0000           -0.3003529              -8.1730
        23        2.0000           -0.2991840              -8.1412
        24        2.0000           -0.2840422              -7.7292
        25        2.0000           -0.2613611              -7.1120
        26        2.0000           -0.2485548              -6.7635
        27        2.0000           -0.2352472              -6.4014
        28        2.0000           -0.2204549              -5.9989 (HOMO)
        29                         -0.1033245              -2.8116 (LUMO)
        30                         -0.0090129              -0.2453
        31                          0.0371220               1.0101
        32                          0.0778948               2.1196
        33                          0.1434595               3.9037
        34                          0.1749304               4.7601
        35                          0.2184174               5.9434
        36                          0.2298246               6.2538
        37                          0.2679922               7.2924
        38                          0.2965786               8.0703
        39                          0.3156869               8.5903
       ...                                ...                  ...
        49                          1.4090372              38.3419
      -------------------------------------------------------------
                  HL-Gap            0.1171304 Eh            3.1873 eV

     #   Z          covCN         q      C6AA      α(0)
     1   6 C        3.755    -0.110    22.661     6.788
     2   6 C        3.066     0.143    24.828     8.171
     3   6 C        2.923    -0.137    31.512     9.206
     4   6 C        3.007     0.289    22.105     7.712
     5   8 O        0.859    -0.493    23.635     6.518
     6   7 N        1.832    -0.526    35.203     8.792
     7  16 S        4.025     1.372    96.623    16.544
     8   8 O        0.860    -0.661    27.674     7.053
     9   8 O        0.860    -0.618    26.565     6.910
    10   8 O        1.709    -0.443    21.682     6.287
    11   1 H        0.925     0.051     2.311     2.377
    12   1 H        0.925     0.054     2.277     2.360
    13   1 H        0.925     0.042     2.427     2.436
    14   1 H        0.926     0.039     2.467     2.456

Wiberg/Mayer (AO) data.
largest (>0.10) Wiberg bond orders for each atom

     #   Z sym  total        # sym  WBO       # sym  WBO       # sym  WBO
 ---------------------------------------------------------------------------
     1   6 C    3.998 --     2 C    1.005    13 H    0.987    11 H    0.975
                            12 H    0.972
     2   6 C    3.921 --     3 C    1.764    10 O    1.054     1 C    1.005
     3   6 C    3.974 --     2 C    1.764     4 C    1.007    14 H    0.968
     4   6 C    3.958 --     5 O    1.588     6 N    1.305     3 C    1.007
     5   8 O    1.926 --     4 C    1.588     6 N    0.178
     6   7 N    2.916 --     4 C    1.305     7 S    1.087     5 O    0.178
                             8 O    0.110
     7  16 S    4.994 --     9 O    1.558     8 O    1.492     6 N    1.087
                            10 O    0.778
     8   8 O    1.807 --     7 S    1.492     9 O    0.114     6 N    0.110
     9   8 O    1.851 --     7 S    1.558     8 O    0.114
    10   8 O    2.171 --     2 C    1.054     7 S    0.778
    11   1 H    0.996 --     1 C    0.975
    12   1 H    0.996 --     1 C    0.972
    13   1 H    0.998 --     1 C    0.987
    14   1 H    0.999 --     3 C    0.968
 ---------------------------------------------------------------------------

molecular dipole:
                 x           y           z       tot (Debye)
 q only:        1.061       7.289       2.072
   full:        1.148       7.810       2.111      20.769

           -------------------------------------------------
          | TOTAL ENERGY              -33.313519196905 Eh   |
          | GRADIENT NORM               0.001000289184 Eh/α |
          | HOMO-LUMO GAP               3.187281663424 eV   |
           -------------------------------------------------

 * finished run on 2024/12/20 at 01:53:00.970
