   * xtb version 6.7.1 (edcfbbe) compiled by 'conda@3ef47c1a292c' on 2024-11-25

   ID    Z sym.   atoms
    1   17 Cl     1, 11
    2    6 C      2-5, 8-10, 13
    3    8 O      6, 7, 12
    4    1 H      14-18

          program call               : xtb A081.xyz --opt --namespace A081 --charge -1
          :  Hamiltonian                  GFN2-xTB          :
 * total energy  :   -41.2168098 Eh     change       -0.1292932E-08 Eh
 * total energy  :   -41.2234656 Eh     change       -0.6655826E-02 Eh
 * total energy  :   -41.2256113 Eh     change       -0.2145673E-02 Eh
 * total energy  :   -41.2270604 Eh     change       -0.1449119E-02 Eh
 * total energy  :   -41.2280065 Eh     change       -0.9461296E-03 Eh
 * total energy  :   -41.2289706 Eh     change       -0.9641073E-03 Eh
 * total energy  :   -41.2296149 Eh     change       -0.6442996E-03 Eh
 * total energy  :   -41.2308710 Eh     change       -0.1256056E-02 Eh
 * total energy  :   -41.2319314 Eh     change       -0.1060432E-02 Eh
 * total energy  :   -41.2325329 Eh     change       -0.6015141E-03 Eh
 * total energy  :   -41.2343400 Eh     change       -0.8033327E-04 Eh
 * total energy  :   -41.2343971 Eh     change       -0.5706181E-04 Eh
 * total energy  :   -41.2344533 Eh     change       -0.5621127E-04 Eh
 * total energy  :   -41.2344880 Eh     change       -0.3466872E-04 Eh
 * total energy  :   -41.2345027 Eh     change       -0.1474388E-04 Eh
 * total energy  :   -41.2344957 Eh     change        0.7073661E-05 Eh
 * total energy  :   -41.2345184 Eh     change       -0.2275028E-04 Eh
 * total energy  :   -41.2345276 Eh     change       -0.9236202E-05 Eh
 * total energy  :   -41.2345319 Eh     change       -0.4277157E-05 Eh
   *** GEOMETRY OPTIMIZATION CONVERGED AFTER 26 ITERATIONS ***

 final structure:
================
18
 xtb: 6.7.1 (edcfbbe)
Cl           3.09086641905097       -1.09056128847936       -0.62617814991967
C            1.45219599264208       -0.62991296260075       -0.29244236839536
C            1.16150817689448        0.72844555412663       -0.11757153291305
C           -0.16048208481513        1.09830466324758        0.14880953482070
C           -0.69092041352108        2.59420981999946        0.34340857994980
O           -0.68984620116998        2.98290687150591        1.50922249794051
O           -1.02889573983743        3.13555508990469       -0.70759535125740
C           -1.10966373978626        0.08979591949003        0.22951008562237
C           -0.81893653227914       -1.25370594581539        0.05866623489952
C            0.48823728226355       -1.61425791780346       -0.20908637629002
Cl          -2.74861051708952        0.52592017438047        0.56191568813354
O            2.23493612559390        1.55452628333915       -0.22817243615239
C            2.06831379409593        2.94514434973149       -0.05704224095794
H           -1.59822118933061       -1.99539693045765        0.13359571927551
H            0.76363763622817       -2.64787187748823       -0.35176416078184
H            1.67295388306513        3.18044990681890        0.93324556878009
H            3.06683935868105        3.36926047326048       -0.17078121681564
H            1.39716774931400        3.36192781684030       -0.81096007593846

          :  Hamiltonian                  GFN2-xTB          :
         :: total energy             -41.234531917466 Eh    ::
         :: gradient norm              0.000672608538 Eh/a0 ::
         :: HOMO-LUMO gap              2.476343300778 eV    ::
         :: SCC energy               -41.624939167081 Eh    ::
         :: -> dispersion             -0.021842158544 Eh    ::
         :: repulsion energy           0.390407249615 Eh    ::

    * Orbital Energies and Occupations

         #    Occupation            Energy/Eh            Energy/eV
      -------------------------------------------------------------
         1        2.0000           -0.9522385             -25.9117
       ...           ...                  ...                  ...
        23        2.0000           -0.3550299              -9.6609
        24        2.0000           -0.3462973              -9.4232
        25        2.0000           -0.3423184              -9.3150
        26        2.0000           -0.3346834              -9.1072
        27        2.0000           -0.3269176              -8.8959
        28        2.0000           -0.3135199              -8.5313
        29        2.0000           -0.3133839              -8.5276
        30        2.0000           -0.2941910              -8.0053
        31        2.0000           -0.2773427              -7.5469
        32        2.0000           -0.2683280              -7.3016
        33        2.0000           -0.2427223              -6.6048
        34        2.0000           -0.2301408              -6.2625
        35        2.0000           -0.2115064              -5.7554 (HOMO)
        36                         -0.1205024              -3.2790 (LUMO)
        37                         -0.1133859              -3.0854
        38                         -0.0403405              -1.0977
        39                         -0.0218221              -0.5938
        40                         -0.0092097              -0.2506
        41                          0.0063567               0.1730
        42                          0.1224317               3.3315
        43                          0.1257049               3.4206
        44                          0.1272672               3.4631
        45                          0.1374594               3.7405
        46                          0.1406992               3.8286
       ...                                ...                  ...
        67                          0.8775007              23.8780
      -------------------------------------------------------------
                  HL-Gap            0.0910039 Eh            2.4763 eV

     #   Z          covCN         q      C6AA      α(0)
     1  17 Cl       0.970    -0.206   105.667    15.726
     2   6 C        2.890     0.057    26.722     8.475
     3   6 C        2.898     0.139    24.961     8.192
     4   6 C        2.995    -0.073    29.819     8.958
     5   6 C        2.680     0.394    20.346     7.381
     6   8 O        0.856    -0.562    25.200     6.730
     7   8 O        0.856    -0.562    25.207     6.731
     8   6 C        2.896     0.094    25.915     8.347
     9   6 C        2.964    -0.062    29.537     8.914
    10   6 C        2.960    -0.053    29.309     8.880
    11  17 Cl       0.984    -0.185   104.985    15.676
    12   8 O        1.706    -0.263    18.353     5.784
    13   6 C        3.640     0.041    20.240     6.469
    14   1 H        0.926     0.043     2.407     2.426
    15   1 H        0.926     0.041     2.430     2.438
    16   1 H        0.924     0.059     2.207     2.323
    17   1 H        0.924     0.038     2.473     2.459
    18   1 H        0.924     0.060     2.202     2.320

Wiberg/Mayer (AO) data.
largest (>0.10) Wiberg bond orders for each atom

     #   Z sym  total        # sym  WBO       # sym  WBO       # sym  WBO
 ---------------------------------------------------------------------------
     1  17 Cl   1.063 --     2 C    0.943
     2   6 C    3.900 --    10 C    1.418     3 C    1.325     1 Cl   0.943
     3   6 C    3.940 --     4 C    1.333     2 C    1.325    12 O    1.077
     4   6 C    3.927 --     8 C    1.398     3 C    1.333     5 C    0.810
     5   6 C    3.943 --     6 O    1.550     7 O    1.546     4 C    0.810
     6   8 O    1.897 --     5 C    1.550     7 O    0.238
     7   8 O    1.898 --     5 C    1.546     6 O    0.238
     8   6 C    3.916 --     4 C    1.398     9 C    1.395    11 Cl   0.962
     9   6 C    3.986 --    10 C    1.425     8 C    1.395    14 H    0.968
    10   6 C    3.987 --     9 C    1.425     2 C    1.418    15 H    0.968
    11  17 Cl   1.097 --     8 C    0.962
    12   8 O    2.245 --     3 C    1.077    13 C    0.974
    13   6 C    3.937 --    17 H    0.982    12 O    0.974    16 H    0.974
                            18 H    0.973
    14   1 H    0.998 --     9 C    0.968
    15   1 H    0.997 --    10 C    0.968
    16   1 H    0.996 --    13 C    0.974
    17   1 H    0.998 --    13 C    0.982
    18   1 H    0.996 --    13 C    0.973
 ---------------------------------------------------------------------------

molecular dipole:
                 x           y           z       tot (Debye)
 q only:        0.949      -3.966      -0.483
   full:        1.014      -3.719      -0.477       9.871

           -------------------------------------------------
          | TOTAL ENERGY              -41.234531917466 Eh   |
          | GRADIENT NORM               0.000672608538 Eh/α |
          | HOMO-LUMO GAP               2.476343300778 eV   |
           -------------------------------------------------

 * finished run on 2024/12/20 at 01:53:01.522
