   * xtb version 6.7.1 (edcfbbe) compiled by 'conda@3ef47c1a292c' on 2024-11-25

   ID    Z sym.   atoms
    1    6 C      1-9, 11-16, 25
    2    8 O      10
    3    9 F      17, 18, 20-24
    4    5 B      19
    5    1 H      26-42

          program call               : xtb A082.xyz --opt --namespace A082 --charge -1
          :  Hamiltonian                  GFN2-xTB          :
 * total energy  :   -81.4885964 Eh     change       -0.6857874E-09 Eh
 * total energy  :   -81.6124712 Eh     change       -0.1238748E+00 Eh
 * total energy  :   -81.6749136 Eh     change       -0.6244234E-01 Eh
 * total energy  :   -81.7142227 Eh     change       -0.3930908E-01 Eh
 * total energy  :   -81.7391185 Eh     change       -0.2489582E-01 Eh
 * total energy  :   -81.7547675 Eh     change       -0.1564900E-01 Eh
 * total energy  :   -81.7642153 Eh     change       -0.9447859E-02 Eh
 * total energy  :   -81.7704292 Eh     change       -0.6213822E-02 Eh
 * total energy  :   -81.7748547 Eh     change       -0.4425547E-02 Eh
 * total energy  :   -81.7780040 Eh     change       -0.3149259E-02 Eh
 * total energy  :   -81.8013085 Eh     change       -0.1217354E-04 Eh
 * total energy  :   -81.8013185 Eh     change       -0.1005226E-04 Eh
 * total energy  :   -81.8013274 Eh     change       -0.8816777E-05 Eh
 * total energy  :   -81.8013353 Eh     change       -0.7938155E-05 Eh
 * total energy  :   -81.8013451 Eh     change       -0.9745497E-05 Eh
 * total energy  :   -81.8013575 Eh     change       -0.1242125E-04 Eh
 * total energy  :   -81.8013681 Eh     change       -0.1059738E-04 Eh
 * total energy  :   -81.8013739 Eh     change       -0.5784022E-05 Eh
 * total energy  :   -81.8013785 Eh     change       -0.4611448E-05 Eh
   *** GEOMETRY OPTIMIZATION CONVERGED AFTER 110 ITERATIONS ***

 final structure:
================
42
 xtb: 6.7.1 (edcfbbe)
C            0.35106673651439       -1.04692811202013        0.44408767441159
C           -1.11292946373698       -0.61121376477445        0.71080688243238
C           -1.00256717125714        0.92032899947041        0.87176160092353
C            0.47317310828784        1.19174840742112        0.57278311541595
C            0.67748706021787        0.92052920265843       -0.92462152923363
C            0.62197726754890       -0.61704348403856       -1.00969015419155
C            1.17663182966043       -0.00503769589967        1.24245477522062
C            2.68458044574219       -0.04434138207319        0.98580345520526
C            0.99045688866525       -0.06772484739584        2.75877401206265
O           -1.60891807538681       -1.26770781564297        1.86411311751872
C           -2.86476520268420       -1.00218647360712        2.31543856506887
C           -3.13665029729820       -1.40759429021094        3.62582521014484
C           -4.37669091320412       -1.22216103738264        4.21900032608122
C           -5.43348416599026       -0.60875628682102        3.55905634169030
C           -5.15601911379691       -0.21174723164142        2.26056095140527
C           -3.92269948096212       -0.40109011622805        1.64061611014415
F           -3.78644290886777        0.02283073175564        0.35285296303081
F           -6.09648015137704        0.39022252380060        1.51488710606386
B           -6.94723270628256       -0.30426020867643        4.22324591103592
F           -7.15081775098948        1.07595481784408        4.24250478585608
F           -7.92314132672909       -0.91178594105925        3.43631032479040
F           -7.05175545012855       -0.78768373226792        5.51599252960415
F           -4.50521437453817       -1.65995652134040        5.48166072984042
F           -2.13093844008686       -1.99725094571438        4.32103745797101
C            0.60943767128393       -2.51337625074509        0.72379466003165
H           -1.73757108923519       -0.88568979912153       -0.14647267687432
H           -1.66540085107305        1.45156190564572        0.19024641861764
H           -1.26346470051245        1.21055456773785        1.88946914418265
H            0.80809352475355        2.17897693597022        0.89032616367992
H           -0.10899775516789        1.38868044401647       -1.51606938255676
H            1.63137958130817        1.31448064735554       -1.27645744848396
H           -0.16503973680351       -0.96371955567569       -1.67920613942751
H            1.56186126671631       -1.04060212214224       -1.36402869879096
H            3.15896472702298        0.77347677528780        1.52607078382578
H            3.10060135811054       -0.97831805542341        1.35795467062924
H            2.94680540901633        0.04971082026995       -0.06182920748738
H           -0.02318609143001       -0.31695614968403        3.04448054819406
H            1.64333268088770       -0.82941172169730        3.18016030385673
H            1.25582479548050        0.89044600739899        3.20380742969059
H            1.65235247197278       -2.76009837721852        0.53554998252537
H            0.36760508682050       -2.74196038076693        1.75743186240258
H           -0.01469469266353       -3.13087048739057        0.08077932339200

          :  Hamiltonian                  GFN2-xTB          :
         :: total energy             -81.801378464810 Eh    ::
         :: gradient norm              0.000855408698 Eh/a0 ::
         :: HOMO-LUMO gap              3.421654854090 eV    ::
         :: SCC energy               -82.520291762650 Eh    ::
         :: -> dispersion             -0.046529149125 Eh    ::
         :: repulsion energy           0.718913297839 Eh    ::

    * Orbital Energies and Occupations

         #    Occupation            Energy/Eh            Energy/eV
      -------------------------------------------------------------
         1        2.0000           -0.7318085             -19.9135
       ...           ...                  ...                  ...
        58        2.0000           -0.3456173              -9.4047
        59        2.0000           -0.3427810              -9.3275
        60        2.0000           -0.3401244              -9.2553
        61        2.0000           -0.3367015              -9.1621
        62        2.0000           -0.3339611              -9.0875
        63        2.0000           -0.3033245              -8.2539
        64        2.0000           -0.3021403              -8.2217
        65        2.0000           -0.2997697              -8.1571
        66        2.0000           -0.2920615              -7.9474
        67        2.0000           -0.2910541              -7.9200
        68        2.0000           -0.2897771              -7.8852
        69        2.0000           -0.2891500              -7.8682
        70        2.0000           -0.2652250              -7.2171 (HOMO)
        71                         -0.1394815              -3.7955 (LUMO)
        72                         -0.1349652              -3.6726
        73                         -0.0107289              -0.2919
        74                          0.0623235               1.6959
        75                          0.0847041               2.3049
        76                          0.0904732               2.4619
        77                          0.1017378               2.7684
        78                          0.1180081               3.2112
        79                          0.1388169               3.7774
        80                          0.1443189               3.9271
        81                          0.1485844               4.0432
       ...                                ...                  ...
       117                          0.7344214              19.9846
      -------------------------------------------------------------
                  HL-Gap            0.1257435 Eh            3.4217 eV

     #   Z          covCN         q      C6AA      α(0)
     1   6 C        4.015     0.009    20.347     6.408
     2   6 C        3.771     0.112    18.776     6.175
     3   6 C        3.834    -0.068    21.769     6.638
     4   6 C        3.974    -0.025    20.940     6.502
     5   6 C        3.832    -0.062    21.671     6.623
     6   6 C        3.839    -0.066    21.729     6.631
     7   6 C        3.956     0.015    20.249     6.394
     8   6 C        3.759    -0.105    22.564     6.772
     9   6 C        3.759    -0.112    22.692     6.791
    10   8 O        1.705    -0.255    18.222     5.763
    11   6 C        2.852     0.103    25.719     8.312
    12   6 C        2.787     0.106    25.634     8.293
    13   6 C        2.791     0.147    24.798     8.157
    14   6 C        2.858    -0.123    31.126     9.145
    15   6 C        2.794     0.149    24.760     8.151
    16   6 C        2.783     0.097    25.838     8.326
    17   9 F        0.785    -0.224    11.488     4.004
    18   9 F        0.788    -0.187    11.099     3.935
    19   5 B        3.037     0.596    13.537     6.137
    20   9 F        0.721    -0.408    13.634     4.360
    21   9 F        0.721    -0.407    13.614     4.357
    22   9 F        0.721    -0.401    13.539     4.345
    23   9 F        0.788    -0.187    11.104     3.936
    24   9 F        0.786    -0.211    11.352     3.980
    25   6 C        3.753    -0.105    22.565     6.774
    26   1 H        0.924     0.034     2.536     2.491
    27   1 H        0.925     0.042     2.417     2.431
    28   1 H        0.925     0.043     2.413     2.429
    29   1 H        0.925     0.023     2.689     2.564
    30   1 H        0.925     0.032     2.563     2.504
    31   1 H        0.924     0.026     2.648     2.545
    32   1 H        0.925     0.028     2.616     2.529
    33   1 H        0.925     0.031     2.576     2.510
    34   1 H        0.925     0.032     2.562     2.503
    35   1 H        0.925     0.033     2.542     2.493
    36   1 H        0.925     0.034     2.534     2.489
    37   1 H        0.925     0.065     2.143     2.289
    38   1 H        0.925     0.035     2.516     2.481
    39   1 H        0.925     0.027     2.625     2.534
    40   1 H        0.925     0.032     2.561     2.503
    41   1 H        0.925     0.062     2.179     2.309
    42   1 H        0.925     0.035     2.518     2.481

Wiberg/Mayer (AO) data.
largest (>0.10) Wiberg bond orders for each atom

     #   Z sym  total        # sym  WBO       # sym  WBO       # sym  WBO
 ---------------------------------------------------------------------------
     1   6 C    3.986 --    25 C    1.009     6 C    0.983     2 C    0.962
                             7 C    0.955
     2   6 C    3.936 --     3 C    0.981     1 C    0.962    26 H    0.961
                            10 O    0.951
     3   6 C    3.994 --     4 C    0.997     2 C    0.981    27 H    0.977
                            28 H    0.974
     4   6 C    3.994 --     3 C    0.997     5 C    0.996    29 H    0.971
                             7 C    0.969
     5   6 C    3.997 --     6 C    1.001     4 C    0.996    30 H    0.979
                            31 H    0.979
     6   6 C    3.997 --     5 C    1.001     1 C    0.983    32 H    0.979
                            33 H    0.978
     7   6 C    3.988 --     9 C    1.001     8 C    1.001     4 C    0.969
                             1 C    0.955
     8   6 C    3.997 --     7 C    1.001    34 H    0.985    35 H    0.984
                            36 H    0.981
     9   6 C    3.993 --     7 C    1.001    39 H    0.985    38 H    0.984
                            37 H    0.975
    10   8 O    2.244 --    11 C    1.069     2 C    0.951
    11   6 C    3.946 --    16 C    1.338    12 C    1.312    10 O    1.069
    12   6 C    3.878 --    13 C    1.363    11 C    1.312    24 F    0.959
    13   6 C    3.895 --    14 C    1.366    12 C    1.363    23 F    0.985
    14   6 C    3.848 --    15 C    1.386    13 C    1.366    19 B    0.781
    15   6 C    3.895 --    14 C    1.386    16 C    1.340    18 F    0.986
    16   6 C    3.872 --    15 C    1.340    11 C    1.338    17 F    0.946
    17   9 F    1.072 --    16 C    0.946
    18   9 F    1.127 --    15 C    0.986
    19   5 B    3.322 --    22 F    0.847    21 F    0.833    20 F    0.830
                            14 C    0.781
    20   9 F    0.918 --    19 B    0.830
    21   9 F    0.920 --    19 B    0.833
    22   9 F    0.929 --    19 B    0.847
    23   9 F    1.125 --    13 C    0.985
    24   9 F    1.085 --    12 C    0.959
    25   6 C    3.996 --     1 C    1.009    42 H    0.984    40 H    0.983
                            41 H    0.981
    26   1 H    0.999 --     2 C    0.961
    27   1 H    0.998 --     3 C    0.977
    28   1 H    0.998 --     3 C    0.974
    29   1 H    0.999 --     4 C    0.971
    30   1 H    0.999 --     5 C    0.979
    31   1 H    0.999 --     5 C    0.979
    32   1 H    0.999 --     6 C    0.979
    33   1 H    0.999 --     6 C    0.978
    34   1 H    0.999 --     8 C    0.985
    35   1 H    0.999 --     8 C    0.984
    36   1 H    0.999 --     8 C    0.981
    37   1 H    0.996 --     9 C    0.975
    38   1 H    0.999 --     9 C    0.984
    39   1 H    0.999 --     9 C    0.985
    40   1 H    0.999 --    25 C    0.983
    41   1 H    0.996 --    25 C    0.981
    42   1 H    0.999 --    25 C    0.984
 ---------------------------------------------------------------------------

molecular dipole:
                 x           y           z       tot (Debye)
 q only:       12.407       0.870      -7.718
   full:       12.609       0.919      -8.003      38.032

           -------------------------------------------------
          | TOTAL ENERGY              -81.801378464810 Eh   |
          | GRADIENT NORM               0.000855408698 Eh/α |
          | HOMO-LUMO GAP               3.421654854090 eV   |
           -------------------------------------------------

 * finished run on 2024/12/20 at 01:53:04.386
