   * xtb version 6.7.1 (edcfbbe) compiled by 'conda@3ef47c1a292c' on 2024-11-25

   ID    Z sym.   atoms
    1    9 F      1, 6, 7
    2    6 C      2, 3
    3    8 O      4, 5

          program call               : xtb A083.xyz --opt --namespace A083 --charge -1
          :  Hamiltonian                  GFN2-xTB          :
 * total energy  :   -26.8706210 Eh     change       -0.6110668E-11 Eh
 * total energy  :   -26.8776771 Eh     change       -0.7056128E-02 Eh
 * total energy  :   -26.8793297 Eh     change       -0.1652577E-02 Eh
 * total energy  :   -26.8797890 Eh     change       -0.4593408E-03 Eh
 * total energy  :   -26.8800022 Eh     change       -0.2131728E-03 Eh
 * total energy  :   -26.8800244 Eh     change       -0.2218313E-04 Eh
 * total energy  :   -26.8800269 Eh     change       -0.2493698E-05 Eh
   *** GEOMETRY OPTIMIZATION CONVERGED AFTER 7 ITERATIONS ***

 final structure:
================
7
 xtb: 6.7.1 (edcfbbe)
F            0.91164306917282        0.07049572566032        0.04749807209490
C            2.26848833427809        0.05392797701005       -0.04226707665697
C            2.81098467864174       -0.29579477311776       -1.56411640444395
O            3.50063909670354        0.58738516369874       -2.04276788713109
O            2.42523099327727       -1.38621550913807       -1.94948636351577
F            2.66757962080845        1.25727308723038        0.43935774093818
F            2.67532420711809       -0.85081167134365        0.88794191871468

          :  Hamiltonian                  GFN2-xTB          :
         :: total energy             -26.880026897349 Eh    ::
         :: gradient norm              0.000378539001 Eh/a0 ::
         :: HOMO-LUMO gap              5.303353939209 eV    ::
         :: SCC energy               -26.981016421719 Eh    ::
         :: -> dispersion             -0.004089407048 Eh    ::
         :: repulsion energy           0.100989524371 Eh    ::

    * Orbital Energies and Occupations

         #    Occupation            Energy/Eh            Energy/eV
      -------------------------------------------------------------
         1        2.0000           -0.7044452             -19.1689
       ...           ...                  ...                  ...
         9        2.0000           -0.4434073             -12.0657
        10        2.0000           -0.3996608             -10.8753
        11        2.0000           -0.3785166             -10.3000
        12        2.0000           -0.3761121             -10.2345
        13        2.0000           -0.3693530             -10.0506
        14        2.0000           -0.3640373              -9.9060
        15        2.0000           -0.3622749              -9.8580
        16        2.0000           -0.3619131              -9.8482
        17        2.0000           -0.3577906              -9.7360
        18        2.0000           -0.3439985              -9.3607
        19        2.0000           -0.2542281              -6.9179
        20        2.0000           -0.2428697              -6.6088
        21        2.0000           -0.2216925              -6.0326 (HOMO)
        22                         -0.0267978              -0.7292 (LUMO)
        23                          0.1523009               4.1443
        24                          0.2074817               5.6459
        25                          0.2260330               6.1507
        26                          0.2928999               7.9702
        27                          0.5719070              15.5624
        28                          0.9281537              25.2563
      -------------------------------------------------------------
                  HL-Gap            0.1948947 Eh            5.3034 eV

     #   Z          covCN         q      C6AA      α(0)
     1   9 F        0.788    -0.244    11.700     4.040
     2   6 C        3.300     0.400    18.979     6.976
     3   6 C        2.660     0.369    20.755     7.454
     4   8 O        0.856    -0.520    24.231     6.600
     5   8 O        0.856    -0.521    24.254     6.603
     6   9 F        0.789    -0.240    11.651     4.032
     7   9 F        0.788    -0.244    11.700     4.040

Wiberg/Mayer (AO) data.
largest (>0.10) Wiberg bond orders for each atom

     #   Z sym  total        # sym  WBO       # sym  WBO       # sym  WBO
 ---------------------------------------------------------------------------
     1   9 F    1.039 --     2 C    0.930
     2   6 C    3.666 --     6 F    0.935     7 F    0.930     1 F    0.930
                             3 C    0.723
     3   6 C    3.951 --     4 O    1.590     5 O    1.587     2 C    0.723
     4   8 O    1.941 --     3 C    1.590     5 O    0.260
     5   8 O    1.939 --     3 C    1.587     4 O    0.260
     6   9 F    1.046 --     2 C    0.935
     7   9 F    1.039 --     2 C    0.930
 ---------------------------------------------------------------------------

molecular dipole:
                 x           y           z       tot (Debye)
 q only:       -5.016       0.413       2.175
   full:       -5.087       0.455       2.369      14.310

           -------------------------------------------------
          | TOTAL ENERGY              -26.880026897349 Eh   |
          | GRADIENT NORM               0.000378539001 Eh/α |
          | HOMO-LUMO GAP               5.303353939209 eV   |
           -------------------------------------------------

 * finished run on 2024/12/20 at 01:53:04.430
