   * xtb version 6.7.1 (edcfbbe) compiled by 'conda@3ef47c1a292c' on 2024-11-25

   ID    Z sym.   atoms
    1    6 C      1-4, 6-9, 12-19, 25-28
    2    8 O      5, 10, 11, 21-24
    3   16 S      20
    4    1 H      29-65

          program call               : xtb A084.xyz --opt --namespace A084 --charge -1
          :  Hamiltonian                  GFN2-xTB          :
 * total energy  :   -93.6903818 Eh     change       -0.7078143E-09 Eh
 * total energy  :   -93.7000982 Eh     change       -0.9716477E-02 Eh
 * total energy  :   -93.7028223 Eh     change       -0.2724043E-02 Eh
 * total energy  :   -93.7038965 Eh     change       -0.1074198E-02 Eh
 * total energy  :   -93.7046866 Eh     change       -0.7900840E-03 Eh
 * total energy  :   -93.7052636 Eh     change       -0.5770610E-03 Eh
 * total energy  :   -93.7058727 Eh     change       -0.6090447E-03 Eh
 * total energy  :   -93.7065594 Eh     change       -0.6867086E-03 Eh
 * total energy  :   -93.7071436 Eh     change       -0.5841884E-03 Eh
 * total energy  :   -93.7075398 Eh     change       -0.3962559E-03 Eh
 * total energy  :   -93.7446453 Eh     change       -0.3225314E-04 Eh
 * total energy  :   -93.7446987 Eh     change       -0.5338734E-04 Eh
 * total energy  :   -93.7447345 Eh     change       -0.3579620E-04 Eh
 * total energy  :   -93.7447505 Eh     change       -0.1602504E-04 Eh
 * total energy  :   -93.7447751 Eh     change       -0.2456711E-04 Eh
 * total energy  :   -93.7447925 Eh     change       -0.1744108E-04 Eh
 * total energy  :   -93.7448087 Eh     change       -0.1613079E-04 Eh
 * total energy  :   -93.7448165 Eh     change       -0.7812565E-05 Eh
 * total energy  :   -93.7448214 Eh     change       -0.4904785E-05 Eh
   *** GEOMETRY OPTIMIZATION CONVERGED AFTER 137 ITERATIONS ***

 final structure:
================
65
 xtb: 6.7.1 (edcfbbe)
C            1.16065177332496        0.65885215100075       -1.18888750682646
C            1.96174181703451        0.65747981154042       -2.48906002291877
C            0.26400536238350       -0.57960067251522       -1.01615989365058
C            0.23772817983955       -1.07906549565280        0.44890077879628
O           -0.86065352659209       -0.57155022301553        1.19773379798417
C           -0.83047210179432        0.45871048540617        2.05151466395662
C            0.42417541366544        1.23964298404746        2.24698554155643
C            0.25309565833095        2.38650541115992        3.22115134681765
C            0.28496973111573        1.93005681371680        4.67106834463808
O            0.53542994768778        2.67525314519556        5.58999927167267
O           -0.17590446470163        0.69763905092510        4.80192582417808
C           -0.28790583329919        0.12959817997015        6.10168692469639
C            0.85987140167676       -0.84383159017965        6.39413193826437
C            2.15090740248842       -0.14031477671113        6.85028213111690
C            2.07413737996818        0.92470830138113        7.94802356233080
C            1.60081154630278        0.47037081665608        9.33002612180960
C            2.57554659109786       -0.48417859788295       10.01135472071053
C            0.38293711720421       -1.96671143099709        7.32832946987359
C           -0.35232673182286       -3.06448617593461        6.56613434318527
S            1.88570581124265        0.22781569838172        2.87215137333578
O            2.75272390627873        0.19076096291013        1.69352431809379
O            2.43559850070934        1.02376311144773        3.95618077687533
O            1.41172065909261       -1.08844686564826        3.25588788265022
O           -1.87931885395940        0.74333197515217        2.58824254498050
C           -1.18155019332216       -0.36819467746120       -1.48842545313143
C           -1.38167835953044       -0.15160399034317       -2.98894772674389
C           -0.95186852237196       -1.32147177665332       -3.87575069694051
C           -1.75337696531164       -2.59176418403906       -3.61682786490514
H            0.55433887041429        1.56701905849592       -1.13847309830926
H            1.88303773312501        0.67886246646313       -0.36996199466809
H            2.60391878715716       -0.21939886868130       -2.52946538035273
H            1.32140800489841        0.65624793366404       -3.36812464713654
H            2.59655645682678        1.54056099573681       -2.53206508119108
H            0.71485268695256       -1.39415293968464       -1.59132742023462
H            0.06465720979059       -2.16003006355107        0.45364062431857
H            1.18900334762948       -0.88556091158779        0.94232055057740
H            0.80309030540516        1.59017114400868        1.29035628689692
H            1.05170977063654        3.11753231282017        3.09823364917613
H           -0.71546349701203        2.87757277865371        3.06916761869378
H           -0.34299203399839        0.93456485695790        6.84126763648900
H           -1.23957083097907       -0.41035288545789        6.08249084640809
H            1.10453227817560       -1.29647866389757        5.42546799929337
H            2.87036650775357       -0.91230155086288        7.13546353102169
H            2.54776601562769        0.36156516653290        5.96463190234425
H            3.07954926904614        1.34206306320594        8.05613129647173
H            1.43985735354235        1.74014048270660        7.60029653844481
H            1.48605209483165        1.35749958613932        9.96133617320664
H            0.62177275944564       -0.00236675930778        9.25381499989305
H            3.55467888665775       -0.01845876116048       10.10924673074358
H            2.22102489979132       -0.75221348237855       11.00612638859682
H            2.68905911340733       -1.39671864994411        9.43325010756362
H            1.24742181566031       -2.41049076671028        7.82604290892997
H           -0.27633756931250       -1.56667656212332        8.10328621718856
H            0.30320707286068       -3.49821499908176        5.81543749149813
H           -0.68220869820010       -3.85243441474441        7.24352800643800
H           -1.22284349196759       -2.66335675454120        6.05377529751763
H           -1.77118298911758       -1.22886109646520       -1.16962330492818
H           -1.58967229816601        0.49927997711839       -0.96503139752156
H           -2.44592035576188        0.03666710182664       -3.16067896023138
H           -0.84383026513703        0.74550048747457       -3.30057326295164
H           -1.08414536197559       -1.02632867282449       -4.92140299692262
H            0.10870317164670       -1.52803994037533       -3.72705852981207
H           -2.81967113650770       -2.39641524678981       -3.71536795835429
H           -1.47865797182871       -3.36645898985601       -4.33074956627686
H           -1.56416055793354       -2.96984487444762       -2.61629571531622

          :  Hamiltonian                  GFN2-xTB          :
         :: total energy             -93.744821377047 Eh    ::
         :: gradient norm              0.000755338795 Eh/a0 ::
         :: HOMO-LUMO gap              4.066804758619 eV    ::
         :: SCC energy               -94.770978793088 Eh    ::
         :: -> dispersion             -0.071386899329 Eh    ::
         :: repulsion energy           1.026157416041 Eh    ::

    * Orbital Energies and Occupations

         #    Occupation            Energy/Eh            Energy/eV
      -------------------------------------------------------------
         1        2.0000           -0.6189058             -16.8413
       ...           ...                  ...                  ...
        71        2.0000           -0.3191366              -8.6841
        72        2.0000           -0.3160707              -8.6007
        73        2.0000           -0.3085005              -8.3947
        74        2.0000           -0.3021740              -8.2226
        75        2.0000           -0.3011040              -8.1935
        76        2.0000           -0.2987765              -8.1301
        77        2.0000           -0.2952124              -8.0331
        78        2.0000           -0.2930743              -7.9750
        79        2.0000           -0.2868414              -7.8054
        80        2.0000           -0.2779729              -7.5640
        81        2.0000           -0.2740975              -7.4586
        82        2.0000           -0.2653753              -7.2212
        83        2.0000           -0.2603629              -7.0848 (HOMO)
        84                         -0.1109106              -3.0180 (LUMO)
        85                         -0.0910905              -2.4787
        86                          0.0409223               1.1136
        87                          0.1038578               2.8261
        88                          0.1078787               2.9355
        89                          0.1253755               3.4116
        90                          0.1324183               3.6033
        91                          0.1364134               3.7120
        92                          0.1461102               3.9759
        93                          0.1618276               4.4036
        94                          0.1705519               4.6410
       ...                                ...                  ...
       154                          1.3678719              37.2217
      -------------------------------------------------------------
                  HL-Gap            0.1494523 Eh            4.0668 eV

     #   Z          covCN         q      C6AA      α(0)
     1   6 C        3.800    -0.068    21.804     6.648
     2   6 C        3.751    -0.099    22.452     6.758
     3   6 C        3.847    -0.028    21.047     6.526
     4   6 C        3.682     0.049    19.951     6.396
     5   8 O        1.704    -0.262    18.342     5.782
     6   6 C        2.712     0.354    20.987     7.499
     7   6 C        3.842    -0.156    23.484     6.894
     8   6 C        3.853    -0.080    21.981     6.668
     9   6 C        2.717     0.376    20.622     7.434
    10   8 O        0.856    -0.442    22.537     6.365
    11   8 O        1.705    -0.255    18.217     5.763
    12   6 C        3.700     0.082    19.373     6.295
    13   6 C        3.848    -0.038    21.217     6.552
    14   6 C        3.799    -0.070    21.838     6.654
    15   6 C        3.800    -0.064    21.723     6.636
    16   6 C        3.799    -0.052    21.501     6.602
    17   6 C        3.751    -0.097    22.413     6.752
    18   6 C        3.801    -0.055    21.565     6.612
    19   6 C        3.752    -0.104    22.551     6.772
    20  16 S        3.606     1.264    99.394    16.780
    21   8 O        0.860    -0.689    28.400     7.145
    22   8 O        0.860    -0.657    27.550     7.037
    23   8 O        0.860    -0.667    27.823     7.072
    24   8 O        0.857    -0.421    22.102     6.303
    25   6 C        3.803    -0.059    21.635     6.622
    26   6 C        3.800    -0.056    21.576     6.613
    27   6 C        3.799    -0.052    21.505     6.603
    28   6 C        3.751    -0.101    22.491     6.763
    29   1 H        0.924     0.025     2.665     2.553
    30   1 H        0.924     0.067     2.114     2.273
    31   1 H        0.925     0.031     2.576     2.510
    32   1 H        0.925     0.028     2.620     2.531
    33   1 H        0.925     0.029     2.604     2.523
    34   1 H        0.924     0.039     2.465     2.455
    35   1 H        0.924     0.051     2.305     2.374
    36   1 H        0.925     0.080     1.975     2.198
    37   1 H        0.925     0.056     2.242     2.342
    38   1 H        0.925     0.066     2.134     2.284
    39   1 H        0.924     0.068     2.106     2.269
    40   1 H        0.924     0.050     2.315     2.379
    41   1 H        0.924     0.047     2.364     2.404
    42   1 H        0.924     0.084     1.939     2.177
    43   1 H        0.924     0.021     2.714     2.576
    44   1 H        0.924     0.076     2.023     2.224
    45   1 H        0.924     0.025     2.653     2.547
    46   1 H        0.925     0.054     2.269     2.356
    47   1 H        0.924     0.016     2.798     2.616
    48   1 H        0.925     0.027     2.626     2.534
    49   1 H        0.925     0.026     2.645     2.544
    50   1 H        0.925     0.016     2.793     2.613
    51   1 H        0.925     0.034     2.528     2.486
    52   1 H        0.924     0.031     2.572     2.508
    53   1 H        0.924     0.019     2.750     2.593
    54   1 H        0.925     0.043     2.411     2.428
    55   1 H        0.925     0.020     2.733     2.585
    56   1 H        0.925     0.036     2.509     2.477
    57   1 H        0.924     0.044     2.398     2.422
    58   1 H        0.924     0.037     2.490     2.468
    59   1 H        0.924     0.024     2.672     2.556
    60   1 H        0.924     0.029     2.601     2.522
    61   1 H        0.924     0.017     2.774     2.605
    62   1 H        0.924     0.034     2.528     2.486
    63   1 H        0.925     0.029     2.598     2.521
    64   1 H        0.925     0.023     2.684     2.562
    65   1 H        0.925     0.041     2.439     2.442

Wiberg/Mayer (AO) data.
largest (>0.10) Wiberg bond orders for each atom

     #   Z sym  total        # sym  WBO       # sym  WBO       # sym  WBO
 ---------------------------------------------------------------------------
     1   6 C    3.993 --     2 C    1.018     3 C    0.996    29 H    0.977
                            30 H    0.963
     2   6 C    3.998 --     1 C    1.018    31 H    0.988    33 H    0.988
                            32 H    0.983
     3   6 C    3.993 --    25 C    0.998     1 C    0.996     4 C    0.977
                            34 H    0.963
     4   6 C    3.919 --     3 C    0.977    35 H    0.969    36 H    0.948
                             5 O    0.945
     5   8 O    2.314 --     6 C    1.126     4 C    0.945    24 O    0.153
     6   6 C    3.923 --    24 O    1.702     5 O    1.126     7 C    1.016
     7   6 C    3.977 --     6 C    1.016     8 C    1.012    37 H    0.948
                            20 S    0.656
     8   6 C    3.997 --     7 C    1.012    38 H    0.971     9 C    0.959
                            39 H    0.947
     9   6 C    3.917 --    10 O    1.703    11 O    1.162     8 C    0.959
    10   8 O    1.997 --     9 C    1.703    11 O    0.166
    11   8 O    2.333 --     9 C    1.162    12 C    0.935    10 O    0.166
    12   6 C    3.921 --    13 C    0.985    41 H    0.966    40 H    0.963
                            11 O    0.935
    13   6 C    3.984 --    14 C    0.994    18 C    0.993    12 C    0.985
                            42 H    0.949
    14   6 C    3.990 --    15 C    1.008    13 C    0.994    43 H    0.974
                            44 H    0.959
    15   6 C    3.994 --    14 C    1.008    16 C    1.006    45 H    0.976
                            46 H    0.967
    16   6 C    3.997 --    17 C    1.019    15 C    1.006    47 H    0.979
                            48 H    0.973
    17   6 C    3.998 --    16 C    1.019    50 H    0.989    49 H    0.988
                            51 H    0.984
    18   6 C    3.998 --    19 C    1.019    13 C    0.993    52 H    0.975
                            53 H    0.974
    19   6 C    3.996 --    18 C    1.019    55 H    0.988    54 H    0.987
                            56 H    0.985
    20  16 S    5.057 --    23 O    1.466    22 O    1.444    21 O    1.425
                             7 C    0.656
    21   8 O    1.774 --    20 S    1.425    23 O    0.107    22 O    0.101
    22   8 O    1.826 --    20 S    1.444    23 O    0.107    21 O    0.101
    23   8 O    1.800 --    20 S    1.466    21 O    0.107    22 O    0.107
    24   8 O    2.008 --     6 C    1.702     5 O    0.153
    25   6 C    3.995 --    26 C    1.007     3 C    0.998    58 H    0.974
                            57 H    0.973
    26   6 C    3.998 --    27 C    1.007    25 C    1.007    59 H    0.977
                            60 H    0.973
    27   6 C    3.998 --    28 C    1.020    26 C    1.007    61 H    0.979
                            62 H    0.974
    28   6 C    3.997 --    27 C    1.020    64 H    0.988    63 H    0.988
                            65 H    0.986
    29   1 H    0.999 --     1 C    0.977
    30   1 H    0.995 --     1 C    0.963
    31   1 H    0.999 --     2 C    0.988
    32   1 H    0.999 --     2 C    0.983
    33   1 H    0.999 --     2 C    0.988
    34   1 H    0.998 --     3 C    0.963
    35   1 H    0.997 --     4 C    0.969
    36   1 H    0.993 --     4 C    0.948
    37   1 H    0.997 --     7 C    0.948
    38   1 H    0.996 --     8 C    0.971
    39   1 H    0.995 --     8 C    0.947
    40   1 H    0.997 --    12 C    0.963
    41   1 H    0.998 --    12 C    0.966
    42   1 H    0.993 --    13 C    0.949
    43   1 H    0.999 --    14 C    0.974
    44   1 H    0.994 --    14 C    0.959
    45   1 H    0.999 --    15 C    0.976
    46   1 H    0.997 --    15 C    0.967
    47   1 H    1.000 --    16 C    0.979
    48   1 H    0.999 --    16 C    0.973
    49   1 H    0.999 --    17 C    0.988
    50   1 H    1.000 --    17 C    0.989
    51   1 H    0.999 --    17 C    0.984
    52   1 H    0.999 --    18 C    0.975
    53   1 H    1.000 --    18 C    0.974
    54   1 H    0.998 --    19 C    0.987
    55   1 H    0.999 --    19 C    0.988
    56   1 H    0.999 --    19 C    0.985
    57   1 H    0.998 --    25 C    0.973
    58   1 H    0.999 --    25 C    0.974
    59   1 H    0.999 --    26 C    0.977
    60   1 H    0.999 --    26 C    0.973
    61   1 H    1.000 --    27 C    0.979
    62   1 H    0.999 --    27 C    0.974
    63   1 H    0.999 --    28 C    0.988
    64   1 H    0.999 --    28 C    0.988
    65   1 H    0.998 --    28 C    0.986
 ---------------------------------------------------------------------------

molecular dipole:
                 x           y           z       tot (Debye)
 q only:       -2.390      -0.975      -6.939
   full:       -2.313      -0.899      -7.129      19.186

           -------------------------------------------------
          | TOTAL ENERGY              -93.744821377047 Eh   |
          | GRADIENT NORM               0.000755338795 Eh/α |
          | HOMO-LUMO GAP               4.066804758619 eV   |
           -------------------------------------------------

 * finished run on 2024/12/20 at 01:53:12.576
