   * xtb version 6.7.1 (edcfbbe) compiled by 'conda@3ef47c1a292c' on 2024-11-25

   ID    Z sym.   atoms
    1    6 C      1
    2    8 O      2, 3
    3    1 H      4

          program call               : xtb A085.xyz --opt --namespace A085 --charge -1
          :  Hamiltonian                  GFN2-xTB          :
 * total energy  :   -10.9960784 Eh     change       -0.3918643E-11 Eh
 * total energy  :   -10.9978892 Eh     change       -0.1810735E-02 Eh
 * total energy  :   -10.9982005 Eh     change       -0.3113266E-03 Eh
 * total energy  :   -10.9982744 Eh     change       -0.7389056E-04 Eh
 * total energy  :   -10.9983017 Eh     change       -0.2732353E-04 Eh
 * total energy  :   -10.9983025 Eh     change       -0.8248926E-06 Eh
   *** GEOMETRY OPTIMIZATION CONVERGED AFTER 6 ITERATIONS ***

 final structure:
================
4
 xtb: 6.7.1 (edcfbbe)
C            0.82546613191338        0.07022260691749       -0.06707020703729
O            0.32390492635820        0.12822280812722        1.05434505486193
O            0.31898683784237        0.01233790965019       -1.18627898646572
H            2.01579210388606        0.07008667530510       -0.06967586135891

          :  Hamiltonian                  GFN2-xTB          :
         :: total energy             -10.998302540319 Eh    ::
         :: gradient norm              0.000228865923 Eh/a0 ::
         :: HOMO-LUMO gap              5.348779699505 eV    ::
         :: SCC energy               -11.068196806152 Eh    ::
         :: -> dispersion             -0.001531286852 Eh    ::
         :: repulsion energy           0.069894265834 Eh    ::

    * Orbital Energies and Occupations

         #    Occupation            Energy/Eh            Energy/eV
      -------------------------------------------------------------
         1        2.0000           -0.4601045             -12.5201
         2        2.0000           -0.4501417             -12.2490
         3        2.0000           -0.3600396              -9.7972
         4        2.0000           -0.3160689              -8.6007
         5        2.0000           -0.3006169              -8.1802
         6        2.0000           -0.2821053              -7.6765
         7        2.0000           -0.1908194              -5.1925
         8        2.0000           -0.1779183              -4.8414
         9        2.0000           -0.1559438              -4.2434 (HOMO)
        10                          0.0406202               1.1053 (LUMO)
        11                          0.3005573               8.1786
        12                          0.6305938              17.1593
        13                          0.9003675              24.5002
      -------------------------------------------------------------
                  HL-Gap            0.1965640 Eh            5.3488 eV

     #   Z          covCN         q      C6AA      α(0)
     1   6 C        2.604     0.388    20.457     7.397
     2   8 O        0.856    -0.595    25.997     6.836
     3   8 O        0.856    -0.595    25.997     6.836
     4   1 H        0.894    -0.198    10.681     5.114

Wiberg/Mayer (AO) data.
largest (>0.10) Wiberg bond orders for each atom

     #   Z sym  total        # sym  WBO       # sym  WBO       # sym  WBO
 ---------------------------------------------------------------------------
     1   6 C    3.944 --     2 O    1.551     3 O    1.551     4 H    0.842
     2   8 O    1.849 --     1 C    1.551     3 O    0.238
     3   8 O    1.849 --     1 C    1.551     2 O    0.238
     4   1 H    0.961 --     1 C    0.842
 ---------------------------------------------------------------------------

molecular dipole:
                 x           y           z       tot (Debye)
 q only:       -0.872      -0.133       0.125
   full:       -0.632      -0.133       0.125       1.672

           -------------------------------------------------
          | TOTAL ENERGY              -10.998302540319 Eh   |
          | GRADIENT NORM               0.000228865923 Eh/α |
          | HOMO-LUMO GAP               5.348779699505 eV   |
           -------------------------------------------------

 * finished run on 2024/12/20 at 01:53:12.607
