   * xtb version 6.7.1 (edcfbbe) compiled by 'conda@3ef47c1a292c' on 2024-11-25

   ID    Z sym.   atoms
    1    7 N      1, 6, 7
    2    8 O      2, 3
    3    6 C      4, 5, 8
    4    1 H      9, 10

          program call               : xtb A086.xyz --opt --namespace A086 --charge -1
          :  Hamiltonian                  GFN2-xTB          :
 * total energy  :   -24.4657527 Eh     change       -0.5556444E-11 Eh
 * total energy  :   -24.4731612 Eh     change       -0.7408466E-02 Eh
 * total energy  :   -24.4741521 Eh     change       -0.9908792E-03 Eh
 * total energy  :   -24.4742437 Eh     change       -0.9165131E-04 Eh
 * total energy  :   -24.4742631 Eh     change       -0.1934827E-04 Eh
 * total energy  :   -24.4742608 Eh     change        0.2277934E-05 Eh
 * total energy  :   -24.4742648 Eh     change       -0.3985357E-05 Eh
   *** GEOMETRY OPTIMIZATION CONVERGED AFTER 7 ITERATIONS ***

 final structure:
================
10
 xtb: 6.7.1 (edcfbbe)
N            1.03760276292256        0.06243223891832       -0.05770972975235
O            0.42726045831123        1.14202012442021       -0.05979786773070
O            0.43680034826397       -1.02249536905167       -0.05738024539201
C            2.40178811308038        0.06844439871774       -0.05694803457288
C            3.28750111118217        1.17613904375746       -0.05769952128491
N            4.52972109251173        0.75800102909459       -0.05651421176382
N            4.53571178553725       -0.60234150969299       -0.05487103842230
C            3.29722332056376       -1.03140580999284       -0.05513851410024
H            3.03562087338426        2.22072146359299       -0.05904943068876
H            3.05455013424269       -2.07816560976381       -0.05406140629204

          :  Hamiltonian                  GFN2-xTB          :
         :: total energy             -24.474264788257 Eh    ::
         :: gradient norm              0.000548739645 Eh/a0 ::
         :: HOMO-LUMO gap              1.789233045249 eV    ::
         :: SCC energy               -24.690425169858 Eh    ::
         :: -> dispersion             -0.008309455793 Eh    ::
         :: repulsion energy           0.216160381601 Eh    ::

    * Orbital Energies and Occupations

         #    Occupation            Energy/Eh            Energy/eV
      -------------------------------------------------------------
         1        2.0000           -0.5856192             -15.9355
       ...           ...                  ...                  ...
         9        2.0000           -0.4166874             -11.3386
        10        2.0000           -0.3920462             -10.6681
        11        2.0000           -0.3793610             -10.3229
        12        2.0000           -0.3463000              -9.4233
        13        2.0000           -0.3355183              -9.1299
        14        2.0000           -0.3068117              -8.3488
        15        2.0000           -0.2916019              -7.9349
        16        2.0000           -0.2720116              -7.4018
        17        2.0000           -0.2717717              -7.3953
        18        2.0000           -0.2415074              -6.5718
        19        2.0000           -0.2403720              -6.5409
        20        2.0000           -0.2303822              -6.2690
        21        2.0000           -0.2027918              -5.5182 (HOMO)
        22                         -0.1370387              -3.7290 (LUMO)
        23                         -0.0288395              -0.7848
        24                          0.0155845               0.4241
        25                          0.1991893               5.4202
        26                          0.2389627               6.5025
        27                          0.2918950               7.9429
        28                          0.3363082               9.1514
        29                          0.4205504              11.4438
        30                          0.4695621              12.7774
        31                          0.4781428              13.0109
        32                          0.6100588              16.6005
       ...                                ...                  ...
        34                          0.7848590              21.3571
      -------------------------------------------------------------
                  HL-Gap            0.0657531 Eh            1.7892 eV

     #   Z          covCN         q      C6AA      α(0)
     1   7 N        2.757     0.488    14.168     5.590
     2   8 O        0.932    -0.492    23.564     6.510
     3   8 O        0.932    -0.492    23.564     6.510
     4   6 C        2.989    -0.057    29.402     8.895
     5   6 C        3.049     0.034    27.188     8.552
     6   7 N        2.041    -0.249    27.239     7.742
     7   7 N        2.041    -0.249    27.239     7.742
     8   6 C        3.049     0.034    27.188     8.552
     9   1 H        0.926    -0.009     3.218     2.805
    10   1 H        0.926    -0.009     3.218     2.805

Wiberg/Mayer (AO) data.
largest (>0.10) Wiberg bond orders for each atom

     #   Z sym  total        # sym  WBO       # sym  WBO       # sym  WBO
 ---------------------------------------------------------------------------
     1   7 N    3.892 --     3 O    1.344     2 O    1.344     4 C    1.134
     2   8 O    1.809 --     1 N    1.344     3 O    0.267
     3   8 O    1.809 --     1 N    1.344     2 O    0.267
     4   6 C    3.925 --     5 C    1.245     8 C    1.245     1 N    1.134
     5   6 C    3.984 --     6 N    1.588     4 C    1.245     9 H    0.968
     6   7 N    2.995 --     5 C    1.588     7 N    1.207
     7   7 N    2.995 --     8 C    1.588     6 N    1.207
     8   6 C    3.984 --     7 N    1.588     4 C    1.245    10 H    0.968
     9   1 H    1.000 --     5 C    0.968
    10   1 H    1.000 --     8 C    0.968
 ---------------------------------------------------------------------------

molecular dipole:
                 x           y           z       tot (Debye)
 q only:       -4.045      -0.127       0.109
   full:       -4.720      -0.130       0.109      12.006

           -------------------------------------------------
          | TOTAL ENERGY              -24.474264788257 Eh   |
          | GRADIENT NORM               0.000548739645 Eh/α |
          | HOMO-LUMO GAP               1.789233045249 eV   |
           -------------------------------------------------

 * finished run on 2024/12/20 at 01:53:12.665
