   * xtb version 6.7.1 (edcfbbe) compiled by 'conda@3ef47c1a292c' on 2024-11-25

   ID    Z sym.   atoms
    1    8 O      1, 3
    2    7 N      2, 4, 6
    3    6 C      5

          program call               : xtb A087.xyz --opt --namespace A087 --charge -1
          :  Hamiltonian                  GFN2-xTB          :
 * total energy  :   -19.1428009 Eh     change       -0.7431922E-09 Eh
 * total energy  :   -19.1675093 Eh     change       -0.2470842E-01 Eh
 * total energy  :   -19.1722451 Eh     change       -0.4735779E-02 Eh
 * total energy  :   -19.1750663 Eh     change       -0.2821151E-02 Eh
 * total energy  :   -19.1753763 Eh     change       -0.3100261E-03 Eh
 * total energy  :   -19.1755669 Eh     change       -0.1906141E-03 Eh
 * total energy  :   -19.1752681 Eh     change        0.2988429E-03 Eh
 * total energy  :   -19.1756503 Eh     change       -0.3821979E-03 Eh
 * total energy  :   -19.1756639 Eh     change       -0.1364034E-04 Eh
 * total energy  :   -19.1756707 Eh     change       -0.6738224E-05 Eh
 * total energy  :   -19.1756711 Eh     change       -0.4210675E-06 Eh
   *** GEOMETRY OPTIMIZATION CONVERGED AFTER 11 ITERATIONS ***

 final structure:
================
6
 xtb: 6.7.1 (edcfbbe)
O            1.13250081948397       -0.08333177842225        0.14873065032453
N            2.35408303662317        0.04505109829580        0.03321337070660
O            2.85558132709032        0.88392384516206       -0.72477016773957
N            3.08632379737778       -0.74942733773682        0.75140839358811
C            4.37455248521630       -0.77282838743237        0.77189261667291
N            5.50939853420845       -0.94708743986643        0.92974513644742

          :  Hamiltonian                  GFN2-xTB          :
         :: total energy             -19.175671071607 Eh    ::
         :: gradient norm              0.000737037587 Eh/a0 ::
         :: HOMO-LUMO gap              3.506146504462 eV    ::
         :: SCC energy               -19.351413766258 Eh    ::
         :: -> dispersion             -0.003800456954 Eh    ::
         :: repulsion energy           0.175742694651 Eh    ::

    * Orbital Energies and Occupations

         #    Occupation            Energy/Eh            Energy/eV
      -------------------------------------------------------------
         1        2.0000           -0.5761131             -15.6768
       ...           ...                  ...                  ...
         4        2.0000           -0.4670110             -12.7080
         5        2.0000           -0.4547396             -12.3741
         6        2.0000           -0.4411666             -12.0048
         7        2.0000           -0.4214473             -11.4682
         8        2.0000           -0.4005139             -10.8985
         9        2.0000           -0.3220126              -8.7624
        10        2.0000           -0.3169693              -8.6252
        11        2.0000           -0.2780207              -7.5653
        12        2.0000           -0.2749918              -7.4829
        13        2.0000           -0.2565895              -6.9822
        14        2.0000           -0.2495788              -6.7914
        15        2.0000           -0.2327308              -6.3329
        16        2.0000           -0.2296297              -6.2485 (HOMO)
        17                         -0.1007811              -2.7424 (LUMO)
        18                         -0.0139794              -0.3804
        19                          0.0347532               0.9457
        20                          0.2264214               6.1612
        21                          0.3712579              10.1024
        22                          0.5041917              13.7198
        23                          0.6104321              16.6107
        24                          1.3521337              36.7934
      -------------------------------------------------------------
                  HL-Gap            0.1288485 Eh            3.5061 eV

     #   Z          covCN         q      C6AA      α(0)
     1   8 O        0.938    -0.519    24.172     6.594
     2   7 N        2.850     0.603    12.925     5.340
     3   8 O        0.929    -0.536    24.545     6.644
     4   7 N        1.911    -0.309    28.849     7.963
     5   6 C        1.845     0.174    26.977     8.390
     6   7 N        0.912    -0.413    30.727     8.017

Wiberg/Mayer (AO) data.
largest (>0.10) Wiberg bond orders for each atom

     #   Z sym  total        # sym  WBO       # sym  WBO       # sym  WBO
 ---------------------------------------------------------------------------
     1   8 O    1.777 --     2 N    1.322     3 O    0.224     4 N    0.158
     2   7 N    3.931 --     1 O    1.322     3 O    1.317     4 N    1.227
     3   8 O    1.772 --     2 N    1.317     1 O    0.224     4 N    0.173
     4   7 N    3.108 --     5 C    1.349     2 N    1.227     6 N    0.201
                             3 O    0.173     1 O    0.158
     5   6 C    3.949 --     6 N    2.566     4 N    1.349
     6   7 N    2.928 --     5 C    2.566     4 N    0.201
 ---------------------------------------------------------------------------

molecular dipole:
                 x           y           z       tot (Debye)
 q only:       -5.984       0.161      -0.285
   full:       -6.211       0.298      -0.409      15.838

           -------------------------------------------------
          | TOTAL ENERGY              -19.175671071607 Eh   |
          | GRADIENT NORM               0.000737037587 Eh/α |
          | HOMO-LUMO GAP               3.506146504462 eV   |
           -------------------------------------------------

 * finished run on 2024/12/20 at 01:53:12.714
