   * xtb version 6.7.1 (edcfbbe) compiled by 'conda@3ef47c1a292c' on 2024-11-25

   ID    Z sym.   atoms
    1    7 N      1, 5-8
    2    8 O      2, 3
    3    6 C      4
    4    1 H      9

          program call               : xtb A088.xyz --opt --namespace A088 --charge -1
          :  Hamiltonian                  GFN2-xTB          :
 * total energy  :   -25.4415252 Eh     change       -0.4263256E-13 Eh
 * total energy  :   -25.4446460 Eh     change       -0.3120795E-02 Eh
 * total energy  :   -25.4470509 Eh     change       -0.2404936E-02 Eh
 * total energy  :   -25.4473141 Eh     change       -0.2632033E-03 Eh
 * total energy  :   -25.4473996 Eh     change       -0.8548413E-04 Eh
 * total energy  :   -25.4475381 Eh     change       -0.1384873E-03 Eh
 * total energy  :   -25.4350207 Eh     change        0.1251738E-01 Eh
 * total energy  :   -25.4472406 Eh     change       -0.1221985E-01 Eh
 * total energy  :   -25.4478101 Eh     change       -0.5695298E-03 Eh
 * total energy  :   -25.4479745 Eh     change       -0.1643781E-03 Eh
 * total energy  :   -25.4487062 Eh     change       -0.3251246E-03 Eh
 * total energy  :   -25.4489236 Eh     change       -0.2173522E-03 Eh
 * total energy  :   -25.4491707 Eh     change       -0.2471719E-03 Eh
 * total energy  :   -25.4492517 Eh     change       -0.8102556E-04 Eh
 * total energy  :   -25.4492445 Eh     change        0.7217768E-05 Eh
 * total energy  :   -25.4493351 Eh     change       -0.9054505E-04 Eh
 * total energy  :   -25.4493469 Eh     change       -0.1177850E-04 Eh
 * total energy  :   -25.4493538 Eh     change       -0.6921960E-05 Eh
 * total energy  :   -25.4493557 Eh     change       -0.1937887E-05 Eh
   *** GEOMETRY OPTIMIZATION CONVERGED AFTER 21 ITERATIONS ***

 final structure:
================
9
 xtb: 6.7.1 (edcfbbe)
N            0.90222193735313       -0.05808139824672       -0.08068299102935
O            0.35841751660070        0.44784523307330        0.89845803229005
O            0.33543205241068       -0.29781378965122       -1.13578308584472
C            2.40409219279173       -0.14910249894130       -0.02552776990753
N            2.84667641482785        1.08381286831391       -0.63686555986644
N            3.47654480919760        0.73258508729210       -1.69754557632649
N            3.56301950821715       -0.58659167844549       -1.80704464347124
N            2.95082862252223       -1.18351856125394       -0.85124352826822
H            2.64426694607892       -0.23715526214064        1.04299512242395

          :  Hamiltonian                  GFN2-xTB          :
         :: total energy             -25.449355714627 Eh    ::
         :: gradient norm              0.000662960762 Eh/a0 ::
         :: HOMO-LUMO gap              0.623874925388 eV    ::
         :: SCC energy               -25.582044877213 Eh    ::
         :: -> dispersion             -0.007587872189 Eh    ::
         :: repulsion energy           0.132689162586 Eh    ::

    * Orbital Energies and Occupations

         #    Occupation            Energy/Eh            Energy/eV
      -------------------------------------------------------------
         1        2.0000           -0.6061212             -16.4934
       ...           ...                  ...                  ...
        10        2.0000           -0.4237103             -11.5297
        11        2.0000           -0.4076716             -11.0933
        12        2.0000           -0.3846876             -10.4679
        13        2.0000           -0.3549310              -9.6582
        14        2.0000           -0.3148970              -8.5688
        15        2.0000           -0.2987463              -8.1293
        16        2.0000           -0.2933844              -7.9834
        17        2.0000           -0.2889117              -7.8617
        18        2.0000           -0.2797104              -7.6113
        19        2.0000           -0.2385642              -6.4917
        20        2.0000           -0.2291555              -6.2356
        21        2.0000           -0.2225774              -6.0566
        22        1.0000           -0.1714990              -4.6667 (HOMO)
        23        0.0000           -0.1485721              -4.0429 (LUMO)
        24                         -0.0641956              -1.7469
        25                          0.1278956               3.4802
        26                          0.2294617               6.2440
        27                          0.2751367               7.4869
        28                          0.2956686               8.0456
        29                          0.3631068               9.8806
        30                          0.3682447              10.0204
        31                          0.4027381              10.9591
        32                          0.5281192              14.3709
        33                          0.5629647              15.3190
      -------------------------------------------------------------
                  HL-Gap            0.0229270 Eh            0.6239 eV

     #   Z          covCN         q      C6AA      α(0)
     1   7 N        2.757     0.460    14.486     5.653
     2   8 O        0.926    -0.444    22.548     6.368
     3   8 O        0.925    -0.410    21.858     6.270
     4   6 C        3.847     0.175    17.772     5.996
     5   7 N        1.976    -0.279    28.057     7.855
     6   7 N        2.126    -0.117    24.106     7.285
     7   7 N        2.128    -0.112    24.007     7.270
     8   7 N        1.971    -0.279    28.044     7.853
     9   1 H        0.923     0.006     2.963     2.692

Wiberg/Mayer (AO) data.
largest (>0.10) Wiberg bond orders for each atom

     #   Z sym  total        # sym  WBO       # sym  WBO       # sym  WBO
 ---------------------------------------------------------------------------
     1   7 N    3.841 --     3 O    1.425     2 O    1.393     4 C    0.824
     2   8 O    1.875 --     1 N    1.393     3 O    0.304
     3   8 O    1.913 --     1 N    1.425     2 O    0.304
     4   6 C    3.965 --     8 N    1.048     5 N    1.002     9 H    0.934
                             1 N    0.824
     5   7 N    2.938 --     6 N    1.529     4 C    1.002     8 N    0.112
                             7 N    0.104
     6   7 N    3.071 --     5 N    1.529     7 N    1.295     8 N    0.120
     7   7 N    3.050 --     8 N    1.540     6 N    1.295     5 N    0.104
     8   7 N    2.943 --     7 N    1.540     4 C    1.048     6 N    0.120
                             5 N    0.112
     9   1 H    0.998 --     4 C    0.934
 ---------------------------------------------------------------------------

molecular dipole:
                 x           y           z       tot (Debye)
 q only:       -3.528      -0.233       1.600
   full:       -3.692      -0.251       2.009      10.701

           -------------------------------------------------
          | TOTAL ENERGY              -25.449355714627 Eh   |
          | GRADIENT NORM               0.000662960762 Eh/α |
          | HOMO-LUMO GAP               0.623874925388 eV   |
           -------------------------------------------------

 * finished run on 2024/12/20 at 01:53:12.879
