   * xtb version 6.7.1 (edcfbbe) compiled by 'conda@3ef47c1a292c' on 2024-11-25

   ID    Z sym.   atoms
    1    6 C      1, 2
    2    8 O      3, 5-7
    3   16 S      4
    4    1 H      8-12

          program call               : xtb A089.xyz --opt --namespace A089 --charge -1
          :  Hamiltonian                  GFN2-xTB          :
 * total energy  :   -26.6227750 Eh     change       -0.1321609E-10 Eh
 * total energy  :   -26.6264067 Eh     change       -0.3631698E-02 Eh
 * total energy  :   -26.6285920 Eh     change       -0.2185278E-02 Eh
 * total energy  :   -26.6290460 Eh     change       -0.4540221E-03 Eh
 * total energy  :   -26.6293532 Eh     change       -0.3072048E-03 Eh
 * total energy  :   -26.6294996 Eh     change       -0.1464084E-03 Eh
 * total energy  :   -26.6296834 Eh     change       -0.1838471E-03 Eh
 * total energy  :   -26.6297673 Eh     change       -0.8387821E-04 Eh
 * total energy  :   -26.6298102 Eh     change       -0.4292952E-04 Eh
 * total energy  :   -26.6298265 Eh     change       -0.1627575E-04 Eh
 * total energy  :   -26.6298444 Eh     change       -0.1790382E-04 Eh
 * total energy  :   -26.6298504 Eh     change       -0.5958985E-05 Eh
 * total energy  :   -26.6298548 Eh     change       -0.4433677E-05 Eh
 * total energy  :   -26.6298567 Eh     change       -0.1869498E-05 Eh
   *** GEOMETRY OPTIMIZATION CONVERGED AFTER 14 ITERATIONS ***

 final structure:
================
12
 xtb: 6.7.1 (edcfbbe)
C            1.04835593775874        0.03727153987275        0.24689741404022
C            0.47935956668876       -1.34132637620777        0.57161698312965
O            0.44749799944579        1.04116016610724        1.00171064397228
S            1.24506756707031        1.17375236993429        2.46350856408039
O            0.99336962859677       -0.07217262202944        3.17094480984651
O            2.64306566339987        1.35708900490075        2.10712705732186
O            0.62066943481670        2.33124055744765        3.06558726138165
H            0.89263664118995        0.28292066043939       -0.81518314396483
H            2.12357312775218        0.05380318711743        0.46588473732182
H            0.56618876843257       -1.47546872722396        1.64724385859711
H           -0.57077188060797       -1.39415112417135        0.28963577420994
H            1.03420754545633       -2.11782863618693        0.04701604006338

          :  Hamiltonian                  GFN2-xTB          :
         :: total energy             -26.629856691170 Eh    ::
         :: gradient norm              0.000873130921 Eh/a0 ::
         :: HOMO-LUMO gap              8.565305064103 eV    ::
         :: SCC energy               -26.797516357200 Eh    ::
         :: -> dispersion             -0.009879129690 Eh    ::
         :: repulsion energy           0.167659666030 Eh    ::

    * Orbital Energies and Occupations

         #    Occupation            Energy/Eh            Energy/eV
      -------------------------------------------------------------
         1        2.0000           -0.5693618             -15.4931
       ...           ...                  ...                  ...
        10        2.0000           -0.3718674             -10.1190
        11        2.0000           -0.3470055              -9.4425
        12        2.0000           -0.3329388              -9.0597
        13        2.0000           -0.3218521              -8.7580
        14        2.0000           -0.3160350              -8.5998
        15        2.0000           -0.3058050              -8.3214
        16        2.0000           -0.2731674              -7.4333
        17        2.0000           -0.2576269              -7.0104
        18        2.0000           -0.2565704              -6.9816
        19        2.0000           -0.2502930              -6.8108
        20        2.0000           -0.2400052              -6.5309
        21        2.0000           -0.2379313              -6.4744
        22        2.0000           -0.2284605              -6.2167 (HOMO)
        23                          0.0863086               2.3486 (LUMO)
        24                          0.1459275               3.9709
        25                          0.2054402               5.5903
        26                          0.2313875               6.2964
        27                          0.2518396               6.8529
        28                          0.2615693               7.1177
        29                          0.2920950               7.9483
        30                          0.3047190               8.2918
        31                          0.3298063               8.9745
        32                          0.3835780              10.4377
        33                          0.4100686              11.1585
       ...                                ...                  ...
        38                          1.4107674              38.3889
      -------------------------------------------------------------
                  HL-Gap            0.3147692 Eh            8.5653 eV

     #   Z          covCN         q      C6AA      α(0)
     1   6 C        3.933     0.099    18.893     6.177
     2   6 C        3.750    -0.122    22.902     6.825
     3   8 O        1.707    -0.485    22.559     6.413
     4  16 S        3.694     1.445    94.795    16.387
     5   8 O        0.860    -0.710    28.969     7.216
     6   8 O        0.860    -0.712    29.034     7.224
     7   8 O        0.860    -0.681    28.204     7.120
     8   1 H        0.923     0.008     2.923     2.674
     9   1 H        0.924     0.032     2.562     2.503
    10   1 H        0.925     0.080     1.979     2.200
    11   1 H        0.925     0.029     2.604     2.523
    12   1 H        0.925     0.017     2.772     2.604

Wiberg/Mayer (AO) data.
largest (>0.10) Wiberg bond orders for each atom

     #   Z sym  total        # sym  WBO       # sym  WBO       # sym  WBO
 ---------------------------------------------------------------------------
     1   6 C    3.953 --     2 C    1.005     3 O    0.994     8 H    0.970
                             9 H    0.963
     2   6 C    3.992 --     1 C    1.005    11 H    0.989    12 H    0.989
                            10 H    0.972
     3   8 O    2.037 --     1 C    0.994     4 S    0.790
     4  16 S    5.046 --     7 O    1.448     6 O    1.398     5 O    1.394
                             3 O    0.790
     5   8 O    1.726 --     4 S    1.394     6 O    0.120     7 O    0.119
     6   8 O    1.725 --     4 S    1.398     5 O    0.120     7 O    0.118
     7   8 O    1.757 --     4 S    1.448     5 O    0.119     6 O    0.118
     8   1 H    1.000 --     1 C    0.970
     9   1 H    0.999 --     1 C    0.963
    10   1 H    0.994 --     2 C    0.972
    11   1 H    0.999 --     2 C    0.989
    12   1 H    0.999 --     2 C    0.989
 ---------------------------------------------------------------------------

molecular dipole:
                 x           y           z       tot (Debye)
 q only:       -2.382      -2.525      -5.028
   full:       -2.423      -2.585      -5.286      16.174

           -------------------------------------------------
          | TOTAL ENERGY              -26.629856691170 Eh   |
          | GRADIENT NORM               0.000873130921 Eh/α |
          | HOMO-LUMO GAP               8.565305064103 eV   |
           -------------------------------------------------

 * finished run on 2024/12/20 at 01:53:13.067
