   * xtb version 6.7.1 (edcfbbe) compiled by 'conda@3ef47c1a292c' on 2024-11-25

   ID    Z sym.   atoms
    1    6 C      1, 2, 4, 5
    2    7 N      3, 6, 7
    3    8 O      8, 9
    4    1 H      10-13

          program call               : xtb A090.xyz --opt --namespace A090 --charge -1
          :  Hamiltonian                  GFN2-xTB          :
 * total energy  :   -27.6592727 Eh     change       -0.9520917E-10 Eh
 * total energy  :   -27.6656805 Eh     change       -0.6407795E-02 Eh
 * total energy  :   -27.6666746 Eh     change       -0.9941607E-03 Eh
 * total energy  :   -27.6667919 Eh     change       -0.1172516E-03 Eh
 * total energy  :   -27.6668126 Eh     change       -0.2072565E-04 Eh
 * total energy  :   -27.6668199 Eh     change       -0.7334057E-05 Eh
 * total energy  :   -27.6668251 Eh     change       -0.5112836E-05 Eh
 * total energy  :   -27.6668278 Eh     change       -0.2774991E-05 Eh
   *** GEOMETRY OPTIMIZATION CONVERGED AFTER 8 ITERATIONS ***

 final structure:
================
13
 xtb: 6.7.1 (edcfbbe)
C            1.04534402470401        0.04733186636301       -0.03302666645712
C            0.54449427060215        0.13113829236038       -1.43508854464197
N            0.37440329816158        1.27028483603266       -2.07109651476109
C           -0.07687930599681        0.88413828185862       -3.30584559205747
C           -0.15095243993445       -0.52214645910556       -3.32760116330887
N            0.24041629462004       -0.98997702457086       -2.14941909637263
N           -0.39180876144246        1.75150987834911       -4.31456372177292
O           -0.79279733693607        1.27191809420299       -5.39106510744051
O           -0.27687387035709        2.97070273290436       -4.15619693076150
H            0.67863682209514       -0.86551549357533        0.43183014574022
H            0.71089627624296        0.91535155100996        0.53098627736222
H            2.13671830635132        0.02848445513133       -0.02114263888301
H           -0.46573757811031       -1.15874101096067       -4.13295044664536

          :  Hamiltonian                  GFN2-xTB          :
         :: total energy             -27.666827836814 Eh    ::
         :: gradient norm              0.000437264498 Eh/a0 ::
         :: HOMO-LUMO gap              2.179638134517 eV    ::
         :: SCC energy               -27.933455878689 Eh    ::
         :: -> dispersion             -0.010546341453 Eh    ::
         :: repulsion energy           0.266628041876 Eh    ::

    * Orbital Energies and Occupations

         #    Occupation            Energy/Eh            Energy/eV
      -------------------------------------------------------------
         1        2.0000           -0.5766310             -15.6909
       ...           ...                  ...                  ...
        12        2.0000           -0.3736898             -10.1686
        13        2.0000           -0.3685447             -10.0286
        14        2.0000           -0.3514831              -9.5643
        15        2.0000           -0.3327923              -9.0557
        16        2.0000           -0.3260498              -8.8723
        17        2.0000           -0.3052304              -8.3057
        18        2.0000           -0.2824822              -7.6867
        19        2.0000           -0.2627950              -7.1510
        20        2.0000           -0.2586412              -7.0380
        21        2.0000           -0.2532881              -6.8923
        22        2.0000           -0.2344389              -6.3794
        23        2.0000           -0.2205455              -6.0013
        24        2.0000           -0.2108300              -5.7370 (HOMO)
        25                         -0.1307298              -3.5573 (LUMO)
        26                         -0.0171567              -0.4669
        27                          0.0130224               0.3544
        28                          0.2034194               5.5353
        29                          0.2610517               7.1036
        30                          0.2898128               7.8862
        31                          0.3027199               8.2374
        32                          0.3255172               8.8578
        33                          0.3423234               9.3151
        34                          0.3570744               9.7165
        35                          0.4352964              11.8450
       ...                                ...                  ...
        40                          0.7428989              20.2153
      -------------------------------------------------------------
                  HL-Gap            0.0801002 Eh            2.1796 eV

     #   Z          covCN         q      C6AA      α(0)
     1   6 C        3.755    -0.101    22.490     6.762
     2   6 C        3.330     0.146    22.736     7.567
     3   7 N        1.886    -0.346    29.832     8.097
     4   6 C        3.148     0.037    26.899     8.484
     5   6 C        3.120     0.030    27.149     8.534
     6   7 N        1.898    -0.357    30.132     8.138
     7   7 N        2.758     0.479    14.272     5.611
     8   8 O        0.933    -0.501    23.776     6.539
     9   8 O        0.930    -0.464    22.956     6.426
    10   1 H        0.925     0.028     2.619     2.531
    11   1 H        0.925     0.030     2.589     2.516
    12   1 H        0.924     0.023     2.682     2.561
    13   1 H        0.926    -0.005     3.151     2.776

Wiberg/Mayer (AO) data.
largest (>0.10) Wiberg bond orders for each atom

     #   Z sym  total        # sym  WBO       # sym  WBO       # sym  WBO
 ---------------------------------------------------------------------------
     1   6 C    3.997 --     2 C    1.015    10 H    0.985    11 H    0.984
                            12 H    0.973
     2   6 C    3.971 --     3 N    1.515     6 N    1.272     1 C    1.015
     3   7 N    2.986 --     2 C    1.515     4 C    1.225
     4   6 C    3.932 --     5 C    1.297     3 N    1.225     7 N    1.124
     5   6 C    3.983 --     6 N    1.479     4 C    1.297    13 H    0.970
     6   7 N    2.980 --     5 C    1.479     2 C    1.272
     7   7 N    3.892 --     9 O    1.358     8 O    1.324     4 C    1.124
     8   8 O    1.784 --     7 N    1.324     9 O    0.269
     9   8 O    1.832 --     7 N    1.358     8 O    0.269
    10   1 H    0.998 --     1 C    0.985
    11   1 H    0.999 --     1 C    0.984
    12   1 H    0.997 --     1 C    0.973
    13   1 H    1.000 --     5 C    0.970
 ---------------------------------------------------------------------------

molecular dipole:
                 x           y           z       tot (Debye)
 q only:        0.345      -2.308       6.926
   full:        0.305      -2.397       6.788      18.315

           -------------------------------------------------
          | TOTAL ENERGY              -27.666827836814 Eh   |
          | GRADIENT NORM               0.000437264498 Eh/α |
          | HOMO-LUMO GAP               2.179638134517 eV   |
           -------------------------------------------------

 * finished run on 2024/12/20 at 01:53:13.150
