   * xtb version 6.7.1 (edcfbbe) compiled by 'conda@3ef47c1a292c' on 2024-11-25

   ID    Z sym.   atoms
    1   53 I      1-3

          program call               : xtb A091.xyz --opt --namespace A091 --charge -1
          :  Hamiltonian                  GFN2-xTB          :
 * total energy  :   -11.7630329 Eh     change       -0.1243450E-13 Eh
 * total energy  :   -11.7696251 Eh     change       -0.6592241E-02 Eh
 * total energy  :   -11.7729588 Eh     change       -0.3333683E-02 Eh
 * total energy  :   -11.7736537 Eh     change       -0.6949336E-03 Eh
 * total energy  :   -11.7737798 Eh     change       -0.1260349E-03 Eh
 * total energy  :   -11.7737818 Eh     change       -0.2021052E-05 Eh
   *** GEOMETRY OPTIMIZATION CONVERGED AFTER 6 ITERATIONS ***

 final structure:
================
3
 xtb: 6.7.1 (edcfbbe)
I            0.77932395544590       -0.07958002152724        0.04110001111782
I            3.73552995356191       -0.07957995694551        0.04109997776435
I            6.69173609099218       -0.07958002152724        0.04110001111782

          :  Hamiltonian                  GFN2-xTB          :
         :: total energy             -11.773781775739 Eh    ::
         :: gradient norm              0.000253207632 Eh/a0 ::
         :: HOMO-LUMO gap              2.941162349546 eV    ::
         :: SCC energy               -11.775869638541 Eh    ::
         :: -> dispersion             -0.003165962876 Eh    ::
         :: repulsion energy           0.002087862802 Eh    ::

    * Orbital Energies and Occupations

         #    Occupation            Energy/Eh            Energy/eV
      -------------------------------------------------------------
         1        2.0000           -0.5806853             -15.8013
         2        2.0000           -0.5569739             -15.1560
         3        2.0000           -0.5543675             -15.0851
         4        2.0000           -0.3188368              -8.6760
         5        2.0000           -0.2659556              -7.2370
         6        2.0000           -0.2659556              -7.2370
         7        2.0000           -0.2475867              -6.7372
         8        2.0000           -0.2475867              -6.7372
         9        2.0000           -0.2405405              -6.5454
        10        2.0000           -0.2313908              -6.2965
        11        2.0000           -0.2313908              -6.2965 (HOMO)
        12                         -0.1233050              -3.3553 (LUMO)
        13                          0.1823182               4.9611
        14                          0.1823182               4.9611
        15                          0.1861806               5.0662
        16                          0.1861806               5.0662
        17                          0.2249012               6.1199
        18                          0.2249012               6.1199
        19                          0.2287081               6.2235
        20                          0.2287081               6.2235
        21                          0.2498779               6.7995
        22                          0.2498779               6.7995
       ...                                ...                  ...
        27                          0.9318483              25.3569
      -------------------------------------------------------------
                  HL-Gap            0.1080857 Eh            2.9412 eV

     #   Z          covCN         q      C6AA      α(0)
     1  53 I        0.937    -0.414   403.743    34.687
     2  53 I        1.874    -0.171   384.746    33.860
     3  53 I        0.937    -0.414   403.743    34.687

Wiberg/Mayer (AO) data.
largest (>0.10) Wiberg bond orders for each atom

     #   Z sym  total        # sym  WBO       # sym  WBO       # sym  WBO
 ---------------------------------------------------------------------------
     1  53 I    0.663 --     2 I    0.663
     2  53 I    1.326 --     1 I    0.663     3 I    0.663
     3  53 I    0.663 --     2 I    0.663
 ---------------------------------------------------------------------------

molecular dipole:
                 x           y           z       tot (Debye)
 q only:       -7.059       0.150      -0.078
   full:       -7.059       0.150      -0.078      17.948

           -------------------------------------------------
          | TOTAL ENERGY              -11.773781775739 Eh   |
          | GRADIENT NORM               0.000253207632 Eh/α |
          | HOMO-LUMO GAP               2.941162349546 eV   |
           -------------------------------------------------

 * finished run on 2024/12/20 at 01:53:13.194
