   * xtb version 6.7.1 (edcfbbe) compiled by 'conda@3ef47c1a292c' on 2024-11-25

   ID    Z sym.   atoms
    1   16 S      1
    2    6 C      2
    3    7 N      3

          program call               : xtb A092.xyz --opt --namespace A092 --charge -1
          :  Hamiltonian                  GFN2-xTB          :
 * total energy  :    -8.5062126 Eh     change       -0.7821299E-11 Eh
 * total energy  :    -8.5143501 Eh     change       -0.8137506E-02 Eh
 * total energy  :    -8.5157770 Eh     change       -0.1426895E-02 Eh
 * total energy  :    -8.5167564 Eh     change       -0.9794000E-03 Eh
 * total energy  :    -8.5167921 Eh     change       -0.3570090E-04 Eh
 * total energy  :    -8.5167924 Eh     change       -0.3187431E-06 Eh
   *** GEOMETRY OPTIMIZATION CONVERGED AFTER 6 ITERATIONS ***

 final structure:
================
3
 xtb: 6.7.1 (edcfbbe)
S            1.06707995887568       -0.03625999263300        0.01224999751109
C            2.68639481378951       -0.03626001854575        0.01225000626561
N            3.85033522733482       -0.03625998882125        0.01224999622330

          :  Hamiltonian                  GFN2-xTB          :
         :: total energy              -8.516792395245 Eh    ::
         :: gradient norm              0.000475854414 Eh/a0 ::
         :: HOMO-LUMO gap              4.749811857927 eV    ::
         :: SCC energy                -8.634617845999 Eh    ::
         :: -> dispersion             -0.001540582449 Eh    ::
         :: repulsion energy           0.117825450755 Eh    ::

    * Orbital Energies and Occupations

         #    Occupation            Energy/Eh            Energy/eV
      -------------------------------------------------------------
         1        2.0000           -0.4838664             -13.1667
         2        2.0000           -0.4088125             -11.1244
         3        2.0000           -0.2989306              -8.1343
         4        2.0000           -0.2560290              -6.9669
         5        2.0000           -0.2560290              -6.9669
         6        2.0000           -0.2052446              -5.5850
         7        2.0000           -0.1567249              -4.2647
         8        2.0000           -0.1567249              -4.2647 (HOMO)
         9                          0.0178275               0.4851 (LUMO)
        10                          0.0178275               0.4851
        11                          0.0676588               1.8411
        12                          0.2069877               5.6324
        13                          0.2069877               5.6324
        14                          0.2883870               7.8474
        15                          0.2883870               7.8474
        16                          0.7105668              19.3355
        17                          1.3779365              37.4956
      -------------------------------------------------------------
                  HL-Gap            0.1745524 Eh            4.7498 eV

     #   Z          covCN         q      C6AA      α(0)
     1  16 S        0.989    -0.691   171.134    22.126
     2   6 C        1.887     0.173    26.969     8.387
     3   7 N        0.923    -0.482    32.651     8.256

Wiberg/Mayer (AO) data.
largest (>0.10) Wiberg bond orders for each atom

     #   Z sym  total        # sym  WBO       # sym  WBO       # sym  WBO
 ---------------------------------------------------------------------------
     1  16 S    1.742 --     2 C    1.385     3 N    0.357
     2   6 C    3.940 --     3 N    2.555     1 S    1.385
     3   7 N    2.912 --     2 C    2.555     1 S    0.357
 ---------------------------------------------------------------------------

molecular dipole:
                 x           y           z       tot (Debye)
 q only:       -4.022       0.069      -0.023
   full:       -4.251       0.069      -0.023      10.807

           -------------------------------------------------
          | TOTAL ENERGY               -8.516792395245 Eh   |
          | GRADIENT NORM               0.000475854414 Eh/α |
          | HOMO-LUMO GAP               4.749811857927 eV   |
           -------------------------------------------------

 * finished run on 2024/12/20 at 01:53:13.227
