   * xtb version 6.7.1 (edcfbbe) compiled by 'conda@3ef47c1a292c' on 2024-11-25

   ID    Z sym.   atoms
    1    9 F      1, 3, 4
    2    6 C      2, 5, 7, 8, 10-13
    3    8 O      6, 9
    4   16 S      14
    5    1 H      15-18

          program call               : xtb A093.xyz --opt --namespace A093 --charge -1
          :  Hamiltonian                  GFN2-xTB          :
 * total energy  :   -44.9477011 Eh     change       -0.1174172E-08 Eh
 * total energy  :   -44.9615891 Eh     change       -0.1388799E-01 Eh
 * total energy  :   -44.9657057 Eh     change       -0.4116592E-02 Eh
 * total energy  :   -44.9663764 Eh     change       -0.6707221E-03 Eh
 * total energy  :   -44.9668165 Eh     change       -0.4400758E-03 Eh
 * total energy  :   -44.9669657 Eh     change       -0.1492523E-03 Eh
 * total energy  :   -44.9671506 Eh     change       -0.1849241E-03 Eh
 * total energy  :   -44.9672842 Eh     change       -0.1335441E-03 Eh
 * total energy  :   -44.9673857 Eh     change       -0.1014632E-03 Eh
 * total energy  :   -44.9675113 Eh     change       -0.1256354E-03 Eh
 * total energy  :   -44.9680365 Eh     change       -0.4695888E-04 Eh
 * total energy  :   -44.9680549 Eh     change       -0.1847045E-04 Eh
 * total energy  :   -44.9680725 Eh     change       -0.1759760E-04 Eh
 * total energy  :   -44.9680837 Eh     change       -0.1119852E-04 Eh
 * total energy  :   -44.9680912 Eh     change       -0.7423939E-05 Eh
 * total energy  :   -44.9680990 Eh     change       -0.7814126E-05 Eh
 * total energy  :   -44.9681054 Eh     change       -0.6377491E-05 Eh
 * total energy  :   -44.9681114 Eh     change       -0.6016260E-05 Eh
 * total energy  :   -44.9681161 Eh     change       -0.4744627E-05 Eh
   *** GEOMETRY OPTIMIZATION CONVERGED AFTER 25 ITERATIONS ***

 final structure:
================
18
 xtb: 6.7.1 (edcfbbe)
F            0.94858331491351        1.31662278514205        2.82188042141135
C            1.71772389045834        1.43249697769502        1.71088224854217
F            0.86068720418679        1.81426940782577        0.74632998746571
F            2.52958097846415        2.47276131965468        1.97060191292677
C            2.45545299795960        0.09707357854556        1.41854040017752
O            2.23751658586792       -0.82336687249600        2.21762350841172
C            3.28434717324758        0.03847056742655        0.30300544604204
C            3.56873111075679        1.06200358119449       -0.62619510207724
O            3.14863430129395        2.22602143794990       -0.64380260532972
C            4.50050555609620        0.69343718794135       -1.72179232507037
C            5.13266268739933       -0.45227290876540       -2.11087146833788
C            5.93333598946782       -0.27724966521957       -3.25907727906548
C            5.89770257963191        0.99908567384510       -3.72574193912731
S            4.88167771315115        2.01344814387856       -2.77707846698896
H            3.76268197188717       -0.91845213626445        0.15616442711755
H            5.03230060286675       -1.39404076125055       -1.60145229165217
H            6.50759275676051       -1.06828980580583       -3.71358538526434
H            6.40981258559029        1.40571148870351       -4.57639148918125

          :  Hamiltonian                  GFN2-xTB          :
         :: total energy             -44.968116112478 Eh    ::
         :: gradient norm              0.000599143947 Eh/a0 ::
         :: HOMO-LUMO gap              2.099267527051 eV    ::
         :: SCC energy               -45.360044404994 Eh    ::
         :: -> dispersion             -0.018905729204 Eh    ::
         :: repulsion energy           0.391928292516 Eh    ::

    * Orbital Energies and Occupations

         #    Occupation            Energy/Eh            Energy/eV
      -------------------------------------------------------------
         1        2.0000           -0.7234584             -19.6863
       ...           ...                  ...                  ...
        26        2.0000           -0.3735912             -10.1659
        27        2.0000           -0.3665153              -9.9734
        28        2.0000           -0.3611840              -9.8283
        29        2.0000           -0.3548274              -9.6553
        30        2.0000           -0.3514673              -9.5639
        31        2.0000           -0.3471690              -9.4470
        32        2.0000           -0.3390833              -9.2269
        33        2.0000           -0.3208001              -8.7294
        34        2.0000           -0.2878385              -7.8325
        35        2.0000           -0.2804920              -7.6326
        36        2.0000           -0.2543901              -6.9223
        37        2.0000           -0.2388417              -6.4992
        38        2.0000           -0.2289042              -6.2288 (HOMO)
        39                         -0.1517576              -4.1295 (LUMO)
        40                         -0.1002090              -2.7268
        41                         -0.0823540              -2.2410
        42                         -0.0608936              -1.6570
        43                         -0.0021510              -0.0585
        44                          0.0087689               0.2386
        45                          0.1137307               3.0948
        46                          0.1429840               3.8908
        47                          0.1513648               4.1188
        48                          0.1721081               4.6833
        49                          0.1795860               4.8868
       ...                                ...                  ...
        65                          0.8148167              22.1723
      -------------------------------------------------------------
                  HL-Gap            0.0771467 Eh            2.0993 eV

     #   Z          covCN         q      C6AA      α(0)
     1   9 F        0.792    -0.230    11.545     4.014
     2   6 C        3.327     0.462    17.735     6.690
     3   9 F        0.790    -0.215    11.396     3.988
     4   9 F        0.790    -0.215    11.386     3.986
     5   6 C        2.812     0.182    24.105     8.044
     6   8 O        0.858    -0.477    23.271     6.468
     7   6 C        2.899    -0.155    32.007     9.276
     8   6 C        2.882     0.204    23.677     7.977
     9   8 O        0.862    -0.472    23.164     6.453
    10   6 C        2.997     0.002    27.968     8.675
    11   6 C        3.113    -0.055    29.198     8.852
    12   6 C        3.106    -0.052    29.136     8.844
    13   6 C        2.942    -0.034    28.855     8.810
    14  16 S        2.362    -0.022   141.966    20.054
    15   1 H        0.926     0.020     2.736     2.587
    16   1 H        0.926     0.024     2.678     2.559
    17   1 H        0.926     0.011     2.879     2.653
    18   1 H        0.926     0.022     2.707     2.573

Wiberg/Mayer (AO) data.
largest (>0.10) Wiberg bond orders for each atom

     #   Z sym  total        # sym  WBO       # sym  WBO       # sym  WBO
 ---------------------------------------------------------------------------
     1   9 F    1.047 --     2 C    0.932
     2   6 C    3.777 --     4 F    0.947     3 F    0.946     1 F    0.932
                             5 C    0.871
     3   9 F    1.066 --     2 C    0.946
     4   9 F    1.067 --     2 C    0.947
     5   6 C    3.957 --     6 O    1.584     7 C    1.362     2 C    0.871
     6   8 O    1.941 --     5 C    1.584     7 C    0.152
     7   6 C    3.945 --     5 C    1.362     8 C    1.255    15 H    0.964
                             6 O    0.152     9 O    0.118
     8   6 C    3.962 --     9 O    1.589     7 C    1.255    10 C    1.017
     9   8 O    1.986 --     8 C    1.589     7 C    0.118
    10   6 C    3.939 --    11 C    1.561    14 S    1.153     8 C    1.017
                            13 C    0.107
    11   6 C    3.986 --    10 C    1.561    12 C    1.287    16 H    0.963
    12   6 C    3.986 --    13 C    1.603    11 C    1.287    17 H    0.967
    13   6 C    3.944 --    12 C    1.603    14 S    1.208    18 H    0.974
                            10 C    0.107
    14  16 S    2.665 --    13 C    1.208    10 C    1.153
    15   1 H    1.000 --     7 C    0.964
    16   1 H    0.999 --    11 C    0.963
    17   1 H    0.999 --    12 C    0.967
    18   1 H    0.999 --    13 C    0.974
 ---------------------------------------------------------------------------

molecular dipole:
                 x           y           z       tot (Debye)
 q only:       -4.771      -2.005      -1.541
   full:       -4.643      -2.334      -1.588      13.812

           -------------------------------------------------
          | TOTAL ENERGY              -44.968116112478 Eh   |
          | GRADIENT NORM               0.000599143947 Eh/α |
          | HOMO-LUMO GAP               2.099267527051 eV   |
           -------------------------------------------------

 * finished run on 2024/12/20 at 01:53:13.664
