   * xtb version 6.7.1 (edcfbbe) compiled by 'conda@3ef47c1a292c' on 2024-11-25

   ID    Z sym.   atoms
    1    9 F      1, 3, 4
    2    6 C      2, 5, 7, 8, 10-13
    3    8 O      6, 9, 14
    4    1 H      15-18

          program call               : xtb A094.xyz --opt --namespace A094 --charge -1
          :  Hamiltonian                  GFN2-xTB          :
 * total energy  :   -45.7754658 Eh     change       -0.9485746E-10 Eh
 * total energy  :   -45.7887945 Eh     change       -0.1332876E-01 Eh
 * total energy  :   -45.7925850 Eh     change       -0.3790470E-02 Eh
 * total energy  :   -45.7931502 Eh     change       -0.5651900E-03 Eh
 * total energy  :   -45.7935047 Eh     change       -0.3544795E-03 Eh
 * total energy  :   -45.7936100 Eh     change       -0.1053098E-03 Eh
 * total energy  :   -45.7937457 Eh     change       -0.1357533E-03 Eh
 * total energy  :   -45.7938682 Eh     change       -0.1224926E-03 Eh
 * total energy  :   -45.7939483 Eh     change       -0.8003534E-04 Eh
 * total energy  :   -45.7940336 Eh     change       -0.8529150E-04 Eh
 * total energy  :   -45.7942655 Eh     change       -0.3662815E-04 Eh
 * total energy  :   -45.7943015 Eh     change       -0.3591181E-04 Eh
 * total energy  :   -45.7943235 Eh     change       -0.2205864E-04 Eh
 * total energy  :   -45.7943469 Eh     change       -0.2343286E-04 Eh
 * total energy  :   -45.7943619 Eh     change       -0.1491524E-04 Eh
 * total energy  :   -45.7943724 Eh     change       -0.1057582E-04 Eh
 * total energy  :   -45.7943770 Eh     change       -0.4601311E-05 Eh
 * total energy  :   -45.7943834 Eh     change       -0.6395760E-05 Eh
 * total energy  :   -45.7943861 Eh     change       -0.2676712E-05 Eh
   *** GEOMETRY OPTIMIZATION CONVERGED AFTER 22 ITERATIONS ***

 final structure:
================
18
 xtb: 6.7.1 (edcfbbe)
F            1.05775232284922        2.39409943273160        1.83900872774138
C            1.61855755581785        1.71500759082459        0.80596618728295
F            0.82103966168010        0.64425924486377        0.63825801269083
F            1.44602386907041        2.52116747423567       -0.25754568273325
C            3.10105993845198        1.37226263986950        1.12023396102755
O            3.52102008224825        1.76948539256891        2.21585538645866
C            3.82396499911366        0.66309552749502        0.16731569531507
C            3.38957670241367        0.20065892922205       -1.09407502018330
O            2.27763715792233        0.32597484639941       -1.61928507124494
C            4.43413295105889       -0.52733436161559       -1.87448357750679
C            4.33213114599035       -1.06198244537436       -3.13389297999800
C            5.58626015985842       -1.63995069517519       -3.42872908263947
C            6.36227718226998       -1.41721457781246       -2.33214944943232
O            5.67795884086973       -0.74877511187126       -1.39204625397883
H            4.84708088562374        0.45257675329172        0.44368857151070
H            3.45973708930617       -1.03384738531773       -3.75318451327388
H            5.87368530108075       -2.14862392442988       -4.32838239488708
H            7.37990415437519       -1.67628932990551       -2.10816251614977

          :  Hamiltonian                  GFN2-xTB          :
         :: total energy             -45.794386114113 Eh    ::
         :: gradient norm              0.000405008432 Eh/a0 ::
         :: HOMO-LUMO gap              2.409872931052 eV    ::
         :: SCC energy               -46.181059454307 Eh    ::
         :: -> dispersion             -0.016557621320 Eh    ::
         :: repulsion energy           0.386673340195 Eh    ::

    * Orbital Energies and Occupations

         #    Occupation            Energy/Eh            Energy/eV
      -------------------------------------------------------------
         1        2.0000           -0.7195265             -19.5793
       ...           ...                  ...                  ...
        26        2.0000           -0.3726168             -10.1394
        27        2.0000           -0.3671118              -9.9896
        28        2.0000           -0.3648528              -9.9281
        29        2.0000           -0.3592842              -9.7766
        30        2.0000           -0.3565239              -9.7015
        31        2.0000           -0.3505123              -9.5379
        32        2.0000           -0.3415305              -9.2935
        33        2.0000           -0.3204077              -8.7187
        34        2.0000           -0.3165735              -8.6144
        35        2.0000           -0.2798074              -7.6139
        36        2.0000           -0.2490860              -6.7780
        37        2.0000           -0.2333511              -6.3498
        38        2.0000           -0.2227721              -6.0619 (HOMO)
        39                         -0.1342109              -3.6521 (LUMO)
        40                         -0.0859572              -2.3390
        41                         -0.0521311              -1.4186
        42                          0.0219913               0.5984
        43                          0.1748740               4.7586
        44                          0.1809114               4.9228
        45                          0.1861668               5.0659
        46                          0.2135634               5.8114
        47                          0.2491630               6.7801
        48                          0.2510762               6.8321
        49                          0.2705824               7.3629
       ...                                ...                  ...
        60                          0.8382877              22.8110
      -------------------------------------------------------------
                  HL-Gap            0.0885612 Eh            2.4099 eV

     #   Z          covCN         q      C6AA      α(0)
     1   9 F        0.792    -0.231    11.557     4.016
     2   6 C        3.327     0.461    17.752     6.693
     3   9 F        0.790    -0.216    11.402     3.989
     4   9 F        0.790    -0.216    11.403     3.989
     5   6 C        2.812     0.181    24.118     8.046
     6   8 O        0.858    -0.479    23.322     6.475
     7   6 C        2.900    -0.153    31.959     9.269
     8   6 C        2.817     0.197    23.796     7.993
     9   8 O        0.858    -0.479    23.315     6.474
    10   6 C        3.107     0.089    25.882     8.336
    11   6 C        3.028    -0.062    29.504     8.910
    12   6 C        3.005    -0.071    29.750     8.947
    13   6 C        3.066     0.061    26.560     8.451
    14   8 O        1.730    -0.190    17.168     5.595
    15   1 H        0.926     0.030     2.584     2.514
    16   1 H        0.927     0.039     2.455     2.450
    17   1 H        0.926     0.013     2.837     2.634
    18   1 H        0.926     0.023     2.688     2.564

Wiberg/Mayer (AO) data.
largest (>0.10) Wiberg bond orders for each atom

     #   Z sym  total        # sym  WBO       # sym  WBO       # sym  WBO
 ---------------------------------------------------------------------------
     1   9 F    1.045 --     2 C    0.931
     2   6 C    3.775 --     3 F    0.946     4 F    0.946     1 F    0.931
                             5 C    0.870
     3   9 F    1.066 --     2 C    0.946
     4   9 F    1.066 --     2 C    0.946
     5   6 C    3.956 --     6 O    1.581     7 C    1.365     2 C    0.870
     6   8 O    1.935 --     5 C    1.581     7 C    0.153
     7   6 C    3.947 --     5 C    1.365     8 C    1.262    15 H    0.965
                             6 O    0.153     9 O    0.126
     8   6 C    3.963 --     9 O    1.595     7 C    1.262    10 C    0.996
     9   8 O    1.952 --     8 C    1.595     7 C    0.126
    10   6 C    3.894 --    11 C    1.541    14 O    1.112     8 C    0.996
                            13 C    0.139
    11   6 C    3.975 --    10 C    1.541    12 C    1.310    16 H    0.975
    12   6 C    3.981 --    13 C    1.585    11 C    1.310    17 H    0.976
    13   6 C    3.901 --    12 C    1.585    14 O    1.141    18 H    0.968
                            10 C    0.139
    14   8 O    2.443 --    13 C    1.141    10 C    1.112
    15   1 H    0.999 --     7 C    0.965
    16   1 H    0.998 --    11 C    0.975
    17   1 H    0.999 --    12 C    0.976
    18   1 H    0.999 --    13 C    0.968
 ---------------------------------------------------------------------------

molecular dipole:
                 x           y           z       tot (Debye)
 q only:       -4.807      -2.206      -0.588
   full:       -4.569      -2.364      -0.747      13.213

           -------------------------------------------------
          | TOTAL ENERGY              -45.794386114113 Eh   |
          | GRADIENT NORM               0.000405008432 Eh/α |
          | HOMO-LUMO GAP               2.409872931052 eV   |
           -------------------------------------------------

 * finished run on 2024/12/20 at 01:53:14.091
