   * xtb version 6.7.1 (edcfbbe) compiled by 'conda@3ef47c1a292c' on 2024-11-25

   ID    Z sym.   atoms
    1    9 F      1, 10-12, 21-23, 25-27, 35-37, 39-41, 49-51, 53-57
    2    6 C      2-9, 14-20, 24, 28-34, 38, 42-48, 52
    3    5 B      13
    4    1 H      58-69

          program call               : xtb A095.xyz --opt --namespace A095 --charge -1
          :  Hamiltonian                  GFN2-xTB          :
 * total energy  :  -189.7294370 Eh     change       -0.5178151E-09 Eh
 * total energy  :  -189.7984611 Eh     change       -0.6902414E-01 Eh
 * total energy  :  -189.8304971 Eh     change       -0.3203604E-01 Eh
 * total energy  :  -189.8448109 Eh     change       -0.1431378E-01 Eh
 * total energy  :  -189.8526183 Eh     change       -0.7807400E-02 Eh
 * total energy  :  -189.8565502 Eh     change       -0.3931905E-02 Eh
 * total energy  :  -189.8588196 Eh     change       -0.2269367E-02 Eh
 * total energy  :  -189.8602311 Eh     change       -0.1411509E-02 Eh
 * total energy  :  -189.8611118 Eh     change       -0.8806612E-03 Eh
 * total energy  :  -189.8617207 Eh     change       -0.6089579E-03 Eh
 * total energy  :  -189.8709215 Eh     change       -0.3096127E-04 Eh
 * total energy  :  -189.8709346 Eh     change       -0.1310196E-04 Eh
 * total energy  :  -189.8709481 Eh     change       -0.1351907E-04 Eh
 * total energy  :  -189.8709540 Eh     change       -0.5828504E-05 Eh
 * total energy  :  -189.8709609 Eh     change       -0.6957503E-05 Eh
 * total energy  :  -189.8709671 Eh     change       -0.6208885E-05 Eh
 * total energy  :  -189.8709761 Eh     change       -0.8960433E-05 Eh
 * total energy  :  -189.8709856 Eh     change       -0.9564747E-05 Eh
 * total energy  :  -189.8709885 Eh     change       -0.2807250E-05 Eh
   *** GEOMETRY OPTIMIZATION CONVERGED AFTER 75 ITERATIONS ***

 final structure:
================
69
 xtb: 6.7.1 (edcfbbe)
F            2.88151816214658        0.01981373127943       -0.72888075695639
C            3.92950175040222       -0.33445982435509        0.04365903125704
C            3.60719950654931       -0.26116653499827        1.50796903619392
C            3.42052284978938       -1.41398897267375        2.25440542789840
C            3.11106731552349       -1.36445002291075        3.61532496844096
C            2.99140523003463       -0.10076964525774        4.18471269987997
C            3.16904186119382        1.05603759682727        3.43594518978638
C            3.48357626469815        0.99411148540411        2.08819862742849
C            3.05863985178909        2.39244576491579        4.11020676246408
F            2.12147080148537        2.41928540946596        5.07125917555506
F            4.21147154951216        2.75882210705077        4.70939907036424
F            2.75545773227577        3.39062971996035        3.26265014024688
B            2.88685288401587       -2.74465246529476        4.44767652118183
C            1.39222946508568       -3.32269672279381        4.16803864418006
C            0.81969087078035       -4.23843442911402        5.05166202315385
C           -0.43991568072720       -4.77666322556304        4.82984950591367
C           -1.18320549205959       -4.41778805766227        3.71528838255239
C           -0.62175430644403       -3.51334916756452        2.82657144536787
C            0.63710991050149       -2.97335933152092        3.05185805790553
C           -1.41760702422505       -3.08900905917092        1.62668418673877
F           -2.18914530166832       -4.07488810763418        1.13399088747699
F           -2.26267498911366       -2.07362727389625        1.90845631972094
F           -0.65708026863753       -2.66325892011663        0.60802718469256
C           -1.02707875244213       -5.72653921395516        5.83287419655396
F           -0.10543262214975       -6.49797530283494        6.42963796830961
F           -1.66916432344627       -5.08015543543691        6.82897415172536
F           -1.93274781575081       -6.56517528037450        5.30032224386649
C            3.99515608161122       -3.83026777147088        3.95741508711584
C            3.71491983664263       -5.18014424984601        3.77503477610003
C            4.69333900050916       -6.08010260129798        3.36841503037264
C            5.99164119896011       -5.66432380604024        3.12683284869839
C            6.28501569947781       -4.31884839995395        3.30754704668167
C            5.30973269382704       -3.42373330637394        3.71733062757329
C            7.69541269424465       -3.86379183282069        3.06862971740128
F            8.53043563598748       -4.25062722379184        4.05628553790437
F            8.21729764813352       -4.37266050311121        1.93630651369582
F            7.82190948471055       -2.53332863341113        2.97529318422157
C            4.30594135132255       -7.51733417619461        3.17718605979227
F            3.70303666877000       -8.03830470076694        4.26080136946708
F            3.43457663751639       -7.67980070053636        2.16032527083279
F            5.34439640781829       -8.32356777382320        2.90453238525888
C            3.05405494256799       -2.46340025965559        6.04101196757874
C            4.21822636396849       -2.74754088286711        6.74663786371235
C            4.33628223351110       -2.46965204304351        8.10363596642968
C            3.29186749886056       -1.89713393056499        8.80895579738936
C            2.12287167515775       -1.60876714918946        8.11584628876152
C            2.00681073622716       -1.88577303931205        6.76321074053625
C            0.99043120924473       -0.99334361341009        8.88568208357794
F            0.57076650608754       -1.78485996392440        9.89397895675617
F            1.34093606945017        0.17209267273785        9.46685811436303
F           -0.09039010437920       -0.73031083880195        8.14124261923311
C            5.62423102558369       -2.81578274381064        8.79195108454143
F            5.86538003670508       -4.14195469037100        8.78882676363367
F            6.69162782688695       -2.24858262435014        8.19997805364485
F            5.66678503963203       -2.43556375697259       10.07889842065415
F            4.29685336297725       -1.55629182659330       -0.36513879269213
F            4.93076334884760        0.49650746046628       -0.30541914834944
H            3.52683402092917       -2.37417444311640        1.77176566698807
H            2.75520866638441       -0.00704189648103        5.23377813744463
H            3.62864250920291        1.89071249177426        1.50578641543797
H            1.36832942943600       -4.53847237415765        5.93239448480041
H           -2.16199710001003       -4.83620471806321        3.53957807111086
H            1.03437674451905       -2.26739924528281        2.33867571027067
H            2.71507271302977       -5.54886989702422        3.94827267763313
H            6.75227091094675       -6.35853135068206        2.80523919778615
H            5.57199352927557       -2.38391640618888        3.84508822604702
H            5.05708666467785       -3.19914452067051        6.23867818958788
H            3.37786595649795       -1.68035392229364        9.86235943233003
H            1.08147771520409       -1.65386963044349        6.25706046373100

          :  Hamiltonian                  GFN2-xTB          :
         :: total energy            -189.870988457625 Eh    ::
         :: gradient norm              0.000474352682 Eh/a0 ::
         :: HOMO-LUMO gap              3.548405940026 eV    ::
         :: SCC energy              -191.307475505111 Eh    ::
         :: -> dispersion             -0.093290039070 Eh    ::
         :: repulsion energy           1.436487047487 Eh    ::

    * Orbital Energies and Occupations

         #    Occupation            Energy/Eh            Energy/eV
      -------------------------------------------------------------
         1        2.0000           -0.8152223             -22.1833
       ...           ...                  ...                  ...
       144        2.0000           -0.3909966             -10.6396
       145        2.0000           -0.3905078             -10.6263
       146        2.0000           -0.3803273             -10.3492
       147        2.0000           -0.3786601             -10.3039
       148        2.0000           -0.3784139             -10.2972
       149        2.0000           -0.3782909             -10.2938
       150        2.0000           -0.3726343             -10.1399
       151        2.0000           -0.3705877             -10.0842
       152        2.0000           -0.3702095             -10.0739
       153        2.0000           -0.3646574              -9.9228
       154        2.0000           -0.3377786              -9.1914
       155        2.0000           -0.3362022              -9.1485
       156        2.0000           -0.3360599              -9.1447 (HOMO)
       157                         -0.2056584              -5.5963 (LUMO)
       158                         -0.2036793              -5.5424
       159                         -0.2005810              -5.4581
       160                         -0.2003948              -5.4530
       161                         -0.1968570              -5.3568
       162                         -0.1932253              -5.2579
       163                         -0.1930297              -5.2526
       164                         -0.1921765              -5.2294
       165                         -0.0776404              -2.1127
       166                         -0.0759147              -2.0657
       167                         -0.0756464              -2.0584
       ...                                ...                  ...
       240                          0.6921975              18.8357
      -------------------------------------------------------------
                  HL-Gap            0.1304015 Eh            3.5484 eV

     #   Z          covCN         q      C6AA      α(0)
     1   9 F        0.791    -0.212    11.358     3.981
     2   6 C        3.337     0.485    17.292     6.584
     3   6 C        2.975    -0.026    28.645     8.779
     4   6 C        2.927    -0.027    28.682     8.783
     5   6 C        2.875    -0.039    28.957     8.821
     6   6 C        2.928    -0.028    28.701     8.786
     7   6 C        2.975    -0.026    28.638     8.778
     8   6 C        2.923    -0.027    28.674     8.781
     9   6 C        3.337     0.484    17.298     6.585
    10   9 F        0.791    -0.207    11.312     3.973
    11   9 F        0.791    -0.213    11.370     3.983
    12   9 F        0.791    -0.210    11.336     3.977
    13   5 B        3.570     0.133    19.611     7.298
    14   6 C        2.875    -0.038    28.953     8.821
    15   6 C        2.928    -0.027    28.667     8.781
    16   6 C        2.975    -0.026    28.650     8.780
    17   6 C        2.922    -0.027    28.687     8.783
    18   6 C        2.975    -0.026    28.639     8.778
    19   6 C        2.927    -0.028    28.709     8.787
    20   6 C        3.337     0.484    17.299     6.585
    21   9 F        0.791    -0.210    11.343     3.978
    22   9 F        0.791    -0.214    11.379     3.985
    23   9 F        0.791    -0.206    11.297     3.970
    24   6 C        3.337     0.485    17.296     6.585
    25   9 F        0.791    -0.207    11.304     3.972
    26   9 F        0.791    -0.213    11.367     3.983
    27   9 F        0.791    -0.210    11.336     3.977
    28   6 C        2.875    -0.039    28.954     8.821
    29   6 C        2.929    -0.027    28.677     8.782
    30   6 C        2.975    -0.025    28.632     8.777
    31   6 C        2.922    -0.028    28.689     8.784
    32   6 C        2.975    -0.026    28.652     8.780
    33   6 C        2.927    -0.027    28.681     8.783
    34   6 C        3.337     0.485    17.292     6.584
    35   9 F        0.791    -0.212    11.364     3.982
    36   9 F        0.791    -0.211    11.353     3.980
    37   9 F        0.791    -0.206    11.294     3.970
    38   6 C        3.337     0.484    17.296     6.584
    39   9 F        0.791    -0.209    11.324     3.975
    40   9 F        0.791    -0.213    11.367     3.983
    41   9 F        0.791    -0.209    11.327     3.976
    42   6 C        2.875    -0.039    28.956     8.821
    43   6 C        2.929    -0.027    28.682     8.783
    44   6 C        2.975    -0.026    28.636     8.778
    45   6 C        2.923    -0.027    28.686     8.783
    46   6 C        2.975    -0.026    28.651     8.780
    47   6 C        2.927    -0.028    28.689     8.784
    48   6 C        3.337     0.485    17.289     6.583
    49   9 F        0.791    -0.212    11.364     3.982
    50   9 F        0.791    -0.212    11.362     3.982
    51   9 F        0.791    -0.204    11.279     3.967
    52   6 C        3.337     0.484    17.294     6.584
    53   9 F        0.791    -0.212    11.355     3.981
    54   9 F        0.791    -0.210    11.334     3.977
    55   9 F        0.791    -0.209    11.328     3.976
    56   9 F        0.791    -0.206    11.295     3.970
    57   9 F        0.791    -0.212    11.355     3.981
    58   1 H        0.926     0.060     2.203     2.321
    59   1 H        0.926     0.057     2.240     2.340
    60   1 H        0.926     0.063     2.159     2.298
    61   1 H        0.926     0.058     2.225     2.333
    62   1 H        0.926     0.064     2.148     2.292
    63   1 H        0.926     0.058     2.226     2.333
    64   1 H        0.926     0.055     2.257     2.349
    65   1 H        0.926     0.065     2.144     2.290
    66   1 H        0.926     0.060     2.203     2.321
    67   1 H        0.926     0.055     2.262     2.352
    68   1 H        0.926     0.064     2.152     2.294
    69   1 H        0.926     0.061     2.191     2.315

Wiberg/Mayer (AO) data.
largest (>0.10) Wiberg bond orders for each atom

     #   Z sym  total        # sym  WBO       # sym  WBO       # sym  WBO
 ---------------------------------------------------------------------------
     1   9 F    1.066 --     2 C    0.938
     2   6 C    3.820 --    56 F    0.952     3 C    0.951    57 F    0.941
                             1 F    0.938
     3   6 C    3.971 --     4 C    1.426     8 C    1.402     2 C    0.951
     4   6 C    3.985 --     3 C    1.426     5 C    1.393    58 H    0.964
     5   6 C    3.909 --     6 C    1.416     4 C    1.393    13 B    0.886
                             8 C    0.113
     6   6 C    3.985 --     5 C    1.416     7 C    1.410    59 H    0.961
     7   6 C    3.971 --     8 C    1.417     6 C    1.410     9 C    0.951
     8   6 C    3.988 --     7 C    1.417     3 C    1.402    60 H    0.966
                             5 C    0.113
     9   6 C    3.820 --     7 C    0.951    10 F    0.948    12 F    0.946
                            11 F    0.936
    10   9 F    1.072 --     9 C    0.948
    11   9 F    1.065 --     9 C    0.936
    12   9 F    1.069 --     9 C    0.946
    13   5 B    3.658 --    42 C    0.887    14 C    0.886     5 C    0.886
                            28 C    0.886
    14   6 C    3.909 --    19 C    1.411    15 C    1.399    13 B    0.886
                            17 C    0.113
    15   6 C    3.985 --    16 C    1.420    14 C    1.399    61 H    0.965
    16   6 C    3.971 --    15 C    1.420    17 C    1.408    24 C    0.951
    17   6 C    3.988 --    18 C    1.411    16 C    1.408    62 H    0.966
                            14 C    0.113
    18   6 C    3.971 --    19 C    1.416    17 C    1.411    20 C    0.951
    19   6 C    3.985 --    18 C    1.416    14 C    1.411    63 H    0.961
    20   6 C    3.820 --    23 F    0.951    18 C    0.951    21 F    0.944
                            22 F    0.935
    21   9 F    1.068 --    20 C    0.944
    22   9 F    1.064 --    20 C    0.935
    23   9 F    1.074 --    20 C    0.951
    24   6 C    3.820 --    16 C    0.951    25 F    0.949    27 F    0.946
                            26 F    0.936
    25   9 F    1.073 --    24 C    0.949
    26   9 F    1.065 --    24 C    0.936
    27   9 F    1.069 --    24 C    0.946
    28   6 C    3.909 --    29 C    1.419    33 C    1.391    13 B    0.886
                            31 C    0.113
    29   6 C    3.985 --    28 C    1.419    30 C    1.407    64 H    0.962
    30   6 C    3.971 --    31 C    1.420    29 C    1.407    38 C    0.951
    31   6 C    3.988 --    30 C    1.420    32 C    1.399    65 H    0.965
                            28 C    0.113
    32   6 C    3.970 --    33 C    1.428    31 C    1.399    34 C    0.951
    33   6 C    3.985 --    32 C    1.428    28 C    1.391    66 H    0.964
    34   6 C    3.820 --    37 F    0.952    32 C    0.951    36 F    0.942
                            35 F    0.937
    35   9 F    1.065 --    34 C    0.937
    36   9 F    1.066 --    34 C    0.942
    37   9 F    1.075 --    34 C    0.952
    38   6 C    3.820 --    30 C    0.951    41 F    0.948    39 F    0.944
                            40 F    0.938
    39   9 F    1.070 --    38 C    0.944
    40   9 F    1.065 --    38 C    0.938
    41   9 F    1.070 --    38 C    0.948
    42   6 C    3.909 --    43 C    1.419    47 C    1.390    13 B    0.887
                            45 C    0.113
    43   6 C    3.985 --    42 C    1.419    44 C    1.407    67 H    0.962
    44   6 C    3.971 --    45 C    1.421    43 C    1.407    52 C    0.951
    45   6 C    3.988 --    44 C    1.421    46 C    1.398    68 H    0.966
                            42 C    0.113
    46   6 C    3.971 --    47 C    1.429    45 C    1.398    48 C    0.950
    47   6 C    3.985 --    46 C    1.429    42 C    1.390    69 H    0.964
    48   6 C    3.820 --    51 F    0.954    46 C    0.950    50 F    0.939
                            49 F    0.939
    49   9 F    1.065 --    48 C    0.939
    50   9 F    1.065 --    48 C    0.939
    51   9 F    1.077 --    48 C    0.954
    52   6 C    3.820 --    44 C    0.951    55 F    0.948    54 F    0.943
                            53 F    0.940
    53   9 F    1.066 --    52 C    0.940
    54   9 F    1.069 --    52 C    0.943
    55   9 F    1.070 --    52 C    0.948
    56   9 F    1.075 --     2 C    0.952
    57   9 F    1.066 --     2 C    0.941
    58   1 H    0.996 --     4 C    0.964
    59   1 H    0.996 --     6 C    0.961
    60   1 H    0.995 --     8 C    0.966
    61   1 H    0.996 --    15 C    0.965
    62   1 H    0.995 --    17 C    0.966
    63   1 H    0.996 --    19 C    0.961
    64   1 H    0.996 --    29 C    0.962
    65   1 H    0.995 --    31 C    0.965
    66   1 H    0.996 --    33 C    0.964
    67   1 H    0.997 --    43 C    0.962
    68   1 H    0.995 --    45 C    0.966
    69   1 H    0.996 --    47 C    0.964
 ---------------------------------------------------------------------------

molecular dipole:
                 x           y           z       tot (Debye)
 q only:       -5.474       5.160      -8.458
   full:       -5.469       5.157      -8.465      28.775

           -------------------------------------------------
          | TOTAL ENERGY             -189.870988457625 Eh   |
          | GRADIENT NORM               0.000474352682 Eh/α |
          | HOMO-LUMO GAP               3.548405940026 eV   |
           -------------------------------------------------

 * finished run on 2024/12/20 at 01:53:20.549
