   * xtb version 6.7.1 (edcfbbe) compiled by 'conda@3ef47c1a292c' on 2024-11-25

   ID    Z sym.   atoms
    1   17 Cl     1

          program call               : xtb A096.xyz --opt --namespace A096 --charge -1
          :  Hamiltonian                  GFN2-xTB          :

 final structure:
================
1
 xtb: 6.7.1 (edcfbbe)
Cl           0.90309000000000       -0.02459000000000        0.00185000000000

          :  Hamiltonian                  GFN2-xTB          :
         :: total energy              -4.785133953761 Eh    ::
         :: gradient norm              0.000000000000 Eh/a0 ::
         :: HOMO-LUMO gap             14.471599992958 eV    ::
         :: SCC energy                -4.785133953761 Eh    ::
         :: -> dispersion              0.000000000000 Eh    ::
         :: repulsion energy           0.000000000000 Eh    ::

    * Orbital Energies and Occupations

         #    Occupation            Energy/Eh            Energy/eV
      -------------------------------------------------------------
         1        2.0000           -0.7654663             -20.8294
         2        2.0000           -0.1680162              -4.5720
         3        2.0000           -0.1680162              -4.5720
         4        2.0000           -0.1680162              -4.5720 (HOMO)
         5                          0.3638053               9.8996 (LUMO)
         6                          0.3638053               9.8996
         7                          0.3638053               9.8996
         8                          0.3638053               9.8996
         9                          0.3638053               9.8996
      -------------------------------------------------------------
                  HL-Gap            0.5318215 Eh           14.4716 eV

     #   Z          covCN         q      C6AA      α(0)
     1  17 Cl       0.000    -1.000   127.012    17.152

Wiberg/Mayer (AO) data.
largest (>0.10) Wiberg bond orders for each atom

     #   Z sym  total        # sym  WBO       # sym  WBO       # sym  WBO
 ---------------------------------------------------------------------------
     1  17 Cl   0.000
 ---------------------------------------------------------------------------

molecular dipole:
                 x           y           z       tot (Debye)
 q only:       -1.707       0.046      -0.003
   full:       -1.707       0.046      -0.003       4.339

           -------------------------------------------------
          | TOTAL ENERGY               -4.785133953761 Eh   |
          | GRADIENT NORM               0.000000000000 Eh/α |
          | HOMO-LUMO GAP              14.471599992958 eV   |
           -------------------------------------------------

 * finished run on 2024/12/20 at 01:53:20.574
