   * xtb version 6.7.1 (edcfbbe) compiled by 'conda@3ef47c1a292c' on 2024-11-25

   ID    Z sym.   atoms
    1    7 N      1, 2, 4
    2    6 C      3, 5
    3    1 H      6, 7

          program call               : xtb A097.xyz --opt --namespace A097 --charge -1
          :  Hamiltonian                  GFN2-xTB          :
 * total energy  :   -14.1465474 Eh     change       -0.3394156E-09 Eh
 * total energy  :   -14.1538947 Eh     change       -0.7347246E-02 Eh
 * total energy  :   -14.1547788 Eh     change       -0.8841101E-03 Eh
 * total energy  :   -14.1552132 Eh     change       -0.4344053E-03 Eh
 * total energy  :   -14.1553179 Eh     change       -0.1046889E-03 Eh
 * total energy  :   -14.1553352 Eh     change       -0.1731387E-04 Eh
 * total energy  :   -14.1553368 Eh     change       -0.1616397E-05 Eh
   *** GEOMETRY OPTIMIZATION CONVERGED AFTER 7 ITERATIONS ***

 final structure:
================
7
 xtb: 6.7.1 (edcfbbe)
N            0.77017673975976        0.84726024468829       -0.00183966940733
N           -0.61042382201753        1.00112336731476       -0.00311836287782
C           -1.13943817655427       -0.21221339199115       -0.00039244660773
N           -0.07460785614035       -1.17818052589223        0.00301721747078
C            1.01656313657069       -0.48974560063579        0.00188386100898
H            1.43294404259485        1.61778732257628       -0.00353331623494
H            2.03852593578685       -0.86517141606016        0.00359271664806

          :  Hamiltonian                  GFN2-xTB          :
         :: total energy             -14.155336786595 Eh    ::
         :: gradient norm              0.000547393570 Eh/a0 ::
         :: HOMO-LUMO gap              2.594748721471 eV    ::
         :: SCC energy               -14.298144444622 Eh    ::
         :: -> dispersion             -0.004650714752 Eh    ::
         :: repulsion energy           0.142807658027 Eh    ::

    * Orbital Energies and Occupations

         #    Occupation            Energy/Eh            Energy/eV
      -------------------------------------------------------------
         1        2.0000           -0.4489634             -12.2169
         2        2.0000           -0.4078143             -11.0972
         3        2.0000           -0.3913670             -10.6496
         4        2.0000           -0.3424981              -9.3198
         5        2.0000           -0.3233922              -8.7999
         6        2.0000           -0.3029887              -8.2447
         7        2.0000           -0.2949577              -8.0262
         8        2.0000           -0.2438434              -6.6353
         9        2.0000           -0.1874136              -5.0998
        10        2.0000           -0.1604993              -4.3674
        11        2.0000           -0.1375259              -3.7423
        12        2.0000           -0.1207447              -3.2856
        13        2.0000           -0.0731792              -1.9913 (HOMO)
        14                          0.0221761               0.6034 (LUMO)
        15                          0.0903944               2.4598
        16                          0.1987932               5.4094
        17                          0.3002291               8.1696
        18                          0.3709247              10.0934
        19                          0.4526688              12.3177
        20                          0.5525250              15.0350
        21                          0.6729949              18.3131
        22                          0.7557208              20.5642
      -------------------------------------------------------------
                  HL-Gap            0.0953553 Eh            2.5947 eV

     #   Z          covCN         q      C6AA      α(0)
     1   7 N        2.883    -0.110    23.388     7.183
     2   7 N        1.984    -0.355    30.054     8.130
     3   6 C        2.082    -0.204    36.846     9.806
     4   7 N        1.887    -0.395    31.207     8.282
     5   6 C        2.991     0.113    25.497     8.283
     6   1 H        0.860     0.052     2.309     2.381
     7   1 H        0.925    -0.101     5.605     3.702

Wiberg/Mayer (AO) data.
largest (>0.10) Wiberg bond orders for each atom

     #   Z sym  total        # sym  WBO       # sym  WBO       # sym  WBO
 ---------------------------------------------------------------------------
     1   7 N    3.499 --     5 C    1.225     2 N    1.056     6 H    0.953
                             4 N    0.168
     2   7 N    2.862 --     3 C    1.620     1 N    1.056     5 C    0.141
     3   6 C    2.912 --     2 N    1.620     4 N    1.135
     4   7 N    2.970 --     5 C    1.616     3 C    1.135     1 N    0.168
     5   6 C    3.952 --     4 N    1.616     1 N    1.225     7 H    0.945
                             2 N    0.141
     6   1 H    0.997 --     1 N    0.953
     7   1 H    0.990 --     5 C    0.945
 ---------------------------------------------------------------------------

molecular dipole:
                 x           y           z       tot (Debye)
 q only:        0.714       0.333      -0.000
   full:        1.939       0.659      -0.000       5.205

           -------------------------------------------------
          | TOTAL ENERGY              -14.155336786595 Eh   |
          | GRADIENT NORM               0.000547393570 Eh/α |
          | HOMO-LUMO GAP               2.594748721471 eV   |
           -------------------------------------------------

 * finished run on 2024/12/20 at 01:53:20.616
