   * xtb version 6.7.1 (edcfbbe) compiled by 'conda@3ef47c1a292c' on 2024-11-25

   ID    Z sym.   atoms
    1   17 Cl     1
    2    6 C      2-5, 7-10, 13-15
    3    8 O      6, 11, 12
    4    1 H      16-27

          program call               : xtb A098.xyz --opt --namespace A098 --charge -1
          :  Hamiltonian                  GFN2-xTB          :
 * total energy  :   -46.6612139 Eh     change       -0.2399190E-08 Eh
 * total energy  :   -46.6662425 Eh     change       -0.5028654E-02 Eh
 * total energy  :   -46.6671085 Eh     change       -0.8660238E-03 Eh
 * total energy  :   -46.6676687 Eh     change       -0.5601597E-03 Eh
 * total energy  :   -46.6681064 Eh     change       -0.4377176E-03 Eh
 * total energy  :   -46.6685267 Eh     change       -0.4202530E-03 Eh
 * total energy  :   -46.6689234 Eh     change       -0.3967062E-03 Eh
 * total energy  :   -46.6695635 Eh     change       -0.6401591E-03 Eh
 * total energy  :   -46.6702541 Eh     change       -0.6905375E-03 Eh
 * total energy  :   -46.6706335 Eh     change       -0.3794549E-03 Eh
 * total energy  :   -46.6747126 Eh     change       -0.1437347E-04 Eh
 * total energy  :   -46.6747299 Eh     change       -0.1730058E-04 Eh
 * total energy  :   -46.6744054 Eh     change        0.3245084E-03 Eh
 * total energy  :   -46.6747795 Eh     change       -0.3741767E-03 Eh
 * total energy  :   -46.6747840 Eh     change       -0.4454041E-05 Eh
 * total energy  :   -46.6748024 Eh     change       -0.1836660E-04 Eh
 * total energy  :   -46.6748074 Eh     change       -0.5068031E-05 Eh
 * total energy  :   -46.6748128 Eh     change       -0.5368594E-05 Eh
 * total energy  :   -46.6748172 Eh     change       -0.4395406E-05 Eh
   *** GEOMETRY OPTIMIZATION CONVERGED AFTER 49 ITERATIONS ***

 final structure:
================
27
 xtb: 6.7.1 (edcfbbe)
Cl           2.45541041532746       -0.19953173977637        0.84891085917485
C            0.78225594667485       -0.37266040095563        0.41299681356873
C            0.17900858328877        0.60060119135073       -0.35983700067237
C           -1.15417973749931        0.49286168978021       -0.73999851792544
C           -1.88001053130498       -0.62527471149513       -0.29211677735764
O           -3.17778994068488       -0.88568023689983       -0.64751241964994
C           -4.20562232601793        0.01183082735758       -0.21503317218711
C           -4.27614507976943        0.17306678215034        1.30535368697555
C           -3.45380158645250        1.35641615933787        1.81288687831558
C           -4.06711570120238        2.70335905427109        1.25144826169439
O           -3.60927535632084        3.09679836441342        0.15970789544698
O           -4.95496452956491        3.21844727791331        1.93385335410192
C           -1.24459663602919       -1.60035776266250        0.47069957908558
C            0.08667919814269       -1.49110756364901        0.82868642739461
C           -1.76680682571929        1.54918998575044       -1.58653829480298
H            0.75043569359890        1.45902486008697       -0.68114523044271
H           -4.10473685451337        0.99806367765627       -0.67204708522540
H           -5.11508966910103       -0.46483806422909       -0.59485445319582
H           -5.31925849623311        0.34483180305985        1.58367478842342
H           -3.95021636479507       -0.76282834235732        1.77709592748561
H           -3.50471143873029        1.38792744452978        2.90410490882444
H           -2.40884530365161        1.26406115521573        1.50872346217376
H           -1.82079164267955       -2.45913881846753        0.78183083111032
H            0.56749564769214       -2.25190425855230        1.42414987150167
H           -2.37862537173387        2.22140782474696       -0.95396028402725
H           -1.00128223536713        2.14617500078280       -2.07702791642341
H           -2.42162985735426        1.11129880064337       -2.33775239336606

          :  Hamiltonian                  GFN2-xTB          :
         :: total energy             -46.674817199076 Eh    ::
         :: gradient norm              0.000508882749 Eh/a0 ::
         :: HOMO-LUMO gap              1.582107276271 eV    ::
         :: SCC energy               -47.213124151518 Eh    ::
         :: -> dispersion             -0.029026994539 Eh    ::
         :: repulsion energy           0.538306952441 Eh    ::

    * Orbital Energies and Occupations

         #    Occupation            Energy/Eh            Energy/eV
      -------------------------------------------------------------
         1        2.0000           -0.9684481             -26.3528
       ...           ...                  ...                  ...
        29        2.0000           -0.3422436              -9.3129
        30        2.0000           -0.3329113              -9.0590
        31        2.0000           -0.3279895              -8.9250
        32        2.0000           -0.3245949              -8.8327
        33        2.0000           -0.3235585              -8.8045
        34        2.0000           -0.3064784              -8.3397
        35        2.0000           -0.3043347              -8.2814
        36        2.0000           -0.3000515              -8.1648
        37        2.0000           -0.2930292              -7.9737
        38        2.0000           -0.2758757              -7.5070
        39        2.0000           -0.2229663              -6.0672
        40        2.0000           -0.2065699              -5.6211
        41        2.0000           -0.1896874              -5.1617 (HOMO)
        42                         -0.1315460              -3.5795 (LUMO)
        43                         -0.1294451              -3.5224
        44                         -0.0516068              -1.4043
        45                         -0.0076156              -0.2072
        46                          0.0014275               0.0388
        47                          0.1068018               2.9062
        48                          0.1107816               3.0145
        49                          0.1109471               3.0190
        50                          0.1247195               3.3938
        51                          0.1327430               3.6121
        52                          0.2055345               5.5929
       ...                                ...                  ...
        77                          0.8403935              22.8683
      -------------------------------------------------------------
                  HL-Gap            0.0581414 Eh            1.5821 eV

     #   Z          covCN         q      C6AA      α(0)
     1  17 Cl       0.965    -0.224   106.244    15.769
     2   6 C        2.889     0.084    26.134     8.381
     3   6 C        2.960    -0.056    29.379     8.890
     4   6 C        2.965     0.010    27.789     8.647
     5   6 C        2.859     0.140    24.943     8.186
     6   8 O        1.702    -0.314    19.234     5.921
     7   6 C        3.686     0.076    19.498     6.321
     8   6 C        3.799    -0.048    21.439     6.593
     9   6 C        3.794    -0.095    22.321     6.728
    10   6 C        2.680     0.366    20.788     7.461
    11   8 O        0.856    -0.597    26.045     6.842
    12   8 O        0.856    -0.574    25.478     6.767
    13   6 C        2.925    -0.055    29.360     8.886
    14   6 C        2.951    -0.054    29.338     8.884
    15   6 C        3.756    -0.121    22.876     6.819
    16   1 H        0.926     0.046     2.373     2.409
    17   1 H        0.924     0.066     2.129     2.282
    18   1 H        0.924     0.025     2.653     2.547
    19   1 H        0.924     0.028     2.609     2.526
    20   1 H        0.924     0.010     2.887     2.657
    21   1 H        0.924     0.006     2.962     2.691
    22   1 H        0.924     0.000     3.054     2.733
    23   1 H        0.926     0.042     2.428     2.437
    24   1 H        0.926     0.036     2.503     2.474
    25   1 H        0.922     0.135     1.498     1.914
    26   1 H        0.925     0.027     2.624     2.533
    27   1 H        0.925     0.039     2.460     2.453

Wiberg/Mayer (AO) data.
largest (>0.10) Wiberg bond orders for each atom

     #   Z sym  total        # sym  WBO       # sym  WBO       # sym  WBO
 ---------------------------------------------------------------------------
     1  17 Cl   1.055 --     2 C    0.937
     2   6 C    3.900 --     3 C    1.411    14 C    1.405     1 Cl   0.937
     3   6 C    3.986 --     2 C    1.411     4 C    1.404    16 H    0.966
     4   6 C    3.985 --     3 C    1.404     5 C    1.322    15 C    1.050
     5   6 C    3.948 --    13 C    1.394     4 C    1.322     6 O    1.042
     6   8 O    2.141 --     5 C    1.042     7 C    0.936
     7   6 C    3.930 --     8 C    0.999    18 H    0.973    17 H    0.958
                             6 O    0.936
     8   6 C    3.995 --     9 C    1.004     7 C    0.999    19 H    0.976
                            20 H    0.974
     9   6 C    3.972 --     8 C    1.004    21 H    0.980    22 H    0.977
                            10 C    0.881
    10   6 C    3.944 --    12 O    1.563    11 O    1.480     9 C    0.881
    11   8 O    1.864 --    10 C    1.480    12 O    0.225
    12   8 O    1.868 --    10 C    1.563    11 O    0.225
    13   6 C    3.989 --    14 C    1.429     5 C    1.394    23 H    0.968
    14   6 C    3.982 --    13 C    1.429     2 C    1.405    24 H    0.969
    15   6 C    3.983 --     4 C    1.050    26 H    0.982    27 H    0.973
                            25 H    0.891
    16   1 H    0.998 --     3 C    0.966
    17   1 H    0.996 --     7 C    0.958
    18   1 H    0.999 --     7 C    0.973
    19   1 H    0.999 --     8 C    0.976
    20   1 H    1.000 --     8 C    0.974
    21   1 H    1.000 --     9 C    0.980
    22   1 H    1.000 --     9 C    0.977
    23   1 H    0.998 --    13 C    0.968
    24   1 H    0.998 --    14 C    0.969
    25   1 H    0.982 --    15 C    0.891
    26   1 H    0.999 --    15 C    0.982
    27   1 H    0.998 --    15 C    0.973
 ---------------------------------------------------------------------------

molecular dipole:
                 x           y           z       tot (Debye)
 q only:        5.950      -4.412      -2.006
   full:        6.080      -4.616      -1.821      19.947

           -------------------------------------------------
          | TOTAL ENERGY              -46.674817199076 Eh   |
          | GRADIENT NORM               0.000508882749 Eh/α |
          | HOMO-LUMO GAP               1.582107276271 eV   |
           -------------------------------------------------

 * finished run on 2024/12/20 at 01:53:21.664
