   * xtb version 6.7.1 (edcfbbe) compiled by 'conda@3ef47c1a292c' on 2024-11-25

   ID    Z sym.   atoms
    1    6 C      1-4, 6, 7
    2    7 N      5
    3    8 O      8, 9
    4    1 H      10-13

          program call               : xtb A100.xyz --opt --namespace A100 --charge -1
          :  Hamiltonian                  GFN2-xTB          :
 * total energy  :   -26.1598777 Eh     change       -0.9335466E-10 Eh
 * total energy  :   -26.1633533 Eh     change       -0.3475599E-02 Eh
 * total energy  :   -26.1641542 Eh     change       -0.8009745E-03 Eh
 * total energy  :   -26.1643243 Eh     change       -0.1700748E-03 Eh
 * total energy  :   -26.1643728 Eh     change       -0.4850857E-04 Eh
 * total energy  :   -26.1643743 Eh     change       -0.1454812E-05 Eh
   *** GEOMETRY OPTIMIZATION CONVERGED AFTER 6 ITERATIONS ***

 final structure:
================
13
 xtb: 6.7.1 (edcfbbe)
C            0.99885525162459        0.11825008541307        0.03536884227798
C            0.19847171519318       -1.12385659196841        0.55797798389655
C            0.56110046653836       -1.77372526885244        1.73256417923044
C           -0.17878073132765       -2.86424973615647        2.14916791393300
N           -1.22914272584525       -3.33888774352611        1.49017906599599
C           -1.57184370488306       -2.71554823247346        0.36910304719638
C           -0.90110518071606       -1.61745330005648       -0.13540092777764
O            0.57352914540864        0.60934880556752       -1.01845298857075
O            1.95961079923610        0.45579027128131        0.73938216874878
H            1.41232627702753       -1.40982420464833        2.29002139216831
H            0.06991577397241       -3.40094385291048        3.06083859225376
H           -2.43577705248436       -3.13342457301496       -0.14083062984647
H           -1.20360003374444       -1.12997565865478       -1.05116863950632

          :  Hamiltonian                  GFN2-xTB          :
         :: total energy             -26.164374285425 Eh    ::
         :: gradient norm              0.000379047289 Eh/a0 ::
         :: HOMO-LUMO gap              1.920993413680 eV    ::
         :: SCC energy               -26.497098202060 Eh    ::
         :: -> dispersion             -0.011416945388 Eh    ::
         :: repulsion energy           0.332723916634 Eh    ::

    * Orbital Energies and Occupations

         #    Occupation            Energy/Eh            Energy/eV
      -------------------------------------------------------------
         1        2.0000           -0.5238082             -14.2535
       ...           ...                  ...                  ...
        11        2.0000           -0.3697588             -10.0616
        12        2.0000           -0.3642982              -9.9131
        13        2.0000           -0.3509183              -9.5490
        14        2.0000           -0.3334339              -9.0732
        15        2.0000           -0.3325215              -9.0484
        16        2.0000           -0.3093647              -8.4182
        17        2.0000           -0.2903480              -7.9008
        18        2.0000           -0.2816356              -7.6637
        19        2.0000           -0.2795868              -7.6079
        20        2.0000           -0.2441684              -6.6442
        21        2.0000           -0.2139724              -5.8225
        22        2.0000           -0.1998860              -5.4392
        23        2.0000           -0.1841419              -5.0108 (HOMO)
        24                         -0.1135467              -3.0898 (LUMO)
        25                         -0.0968979              -2.6367
        26                         -0.0011445              -0.0311
        27                          0.0653423               1.7781
        28                          0.2296520               6.2491
        29                          0.2729297               7.4268
        30                          0.2835230               7.7151
        31                          0.3001583               8.1677
        32                          0.3105733               8.4511
        33                          0.4183994              11.3852
        34                          0.5290773              14.3969
       ...                                ...                  ...
        40                          0.9004012              24.5012
      -------------------------------------------------------------
                  HL-Gap            0.0705952 Eh            1.9210 eV

     #   Z          covCN         q      C6AA      α(0)
     1   6 C        2.683     0.365    20.816     7.466
     2   6 C        2.971    -0.020    28.493     8.756
     3   6 C        2.917    -0.039    28.964     8.825
     4   6 C        2.913     0.050    26.878     8.501
     5   7 N        1.835    -0.270    27.854     7.821
     6   6 C        2.913     0.050    26.878     8.501
     7   6 C        2.917    -0.039    28.964     8.825
     8   8 O        0.857    -0.582    25.685     6.795
     9   8 O        0.857    -0.582    25.685     6.795
    10   1 H        0.926     0.036     2.506     2.476
    11   1 H        0.925    -0.002     3.100     2.753
    12   1 H        0.925    -0.002     3.100     2.753
    13   1 H        0.926     0.036     2.506     2.476

Wiberg/Mayer (AO) data.
largest (>0.10) Wiberg bond orders for each atom

     #   Z sym  total        # sym  WBO       # sym  WBO       # sym  WBO
 ---------------------------------------------------------------------------
     1   6 C    3.949 --     9 O    1.524     8 O    1.524     2 C    0.870
     2   6 C    3.932 --     7 C    1.403     3 C    1.403     1 C    0.870
                             5 N    0.105
     3   6 C    3.991 --     4 C    1.447     2 C    1.403    10 H    0.966
                             6 C    0.105
     4   6 C    3.985 --     3 C    1.447     5 N    1.422    11 H    0.964
                             7 C    0.105
     5   7 N    3.040 --     6 C    1.422     4 C    1.422     2 C    0.105
     6   6 C    3.985 --     7 C    1.447     5 N    1.422    12 H    0.964
                             3 C    0.105
     7   6 C    3.991 --     6 C    1.447     2 C    1.403    13 H    0.966
                             4 C    0.105
     8   8 O    1.863 --     1 C    1.524     9 O    0.245
     9   8 O    1.863 --     1 C    1.524     8 O    0.245
    10   1 H    0.999 --     3 C    0.966
    11   1 H    0.999 --     4 C    0.964
    12   1 H    0.999 --     6 C    0.964
    13   1 H    0.999 --     7 C    0.966
 ---------------------------------------------------------------------------

molecular dipole:
                 x           y           z       tot (Debye)
 q only:       -1.595       0.233      -0.258
   full:       -1.571       0.270      -0.273       4.111

           -------------------------------------------------
          | TOTAL ENERGY              -26.164374285425 Eh   |
          | GRADIENT NORM               0.000379047289 Eh/α |
          | HOMO-LUMO GAP               1.920993413680 eV   |
           -------------------------------------------------

 * finished run on 2024/12/20 at 01:53:31.196
