   * xtb version 6.7.1 (edcfbbe) compiled by 'conda@3ef47c1a292c' on 2024-11-25

   ID    Z sym.   atoms
    1    6 C      1, 2, 4, 7, 8
    2    7 N      3
    3    8 O      5, 6
    4    1 H      9-18

          program call               : xtb A101.xyz --opt --namespace A101 --charge -1
          :  Hamiltonian                  GFN2-xTB          :
 * total energy  :   -27.1022461 Eh     change       -0.4183676E-09 Eh
 * total energy  :   -27.1096164 Eh     change       -0.7370266E-02 Eh
 * total energy  :   -27.1119307 Eh     change       -0.2314286E-02 Eh
 * total energy  :   -27.1122308 Eh     change       -0.3001212E-03 Eh
 * total energy  :   -27.1127926 Eh     change       -0.5618322E-03 Eh
 * total energy  :   -27.1128581 Eh     change       -0.6542853E-04 Eh
 * total energy  :   -27.1129187 Eh     change       -0.6060988E-04 Eh
 * total energy  :   -27.1129791 Eh     change       -0.6044810E-04 Eh
 * total energy  :   -27.1130363 Eh     change       -0.5714220E-04 Eh
 * total energy  :   -27.1131968 Eh     change       -0.1605727E-03 Eh
 * total energy  :   -27.1144311 Eh     change       -0.4489796E-03 Eh
 * total energy  :   -27.1144427 Eh     change       -0.1160634E-04 Eh
 * total energy  :   -27.1144539 Eh     change       -0.1111347E-04 Eh
 * total energy  :   -27.1144676 Eh     change       -0.1374555E-04 Eh
 * total energy  :   -27.1144740 Eh     change       -0.6412983E-05 Eh
 * total energy  :   -27.1144766 Eh     change       -0.2601900E-05 Eh
 * total energy  :   -27.1144859 Eh     change       -0.9263653E-05 Eh
 * total energy  :   -27.1144913 Eh     change       -0.5421960E-05 Eh
 * total energy  :   -27.1144953 Eh     change       -0.3967602E-05 Eh
   *** GEOMETRY OPTIMIZATION CONVERGED AFTER 26 ITERATIONS ***

 final structure:
================
18
 xtb: 6.7.1 (edcfbbe)
C            0.90459512375678       -0.06122536642347        0.09842235192249
C            0.46280657380352       -1.13665635513043       -0.90309967516807
N            0.24143948514832       -0.12989887234359        1.36446661515299
C           -0.51164837764759        1.05970293739443        1.80458547307921
O           -0.84272635790516        1.05733952390909        2.99269658891612
O           -0.73285930495029        1.89273912303776        0.92237780064345
C            0.78085113706401       -0.98323708344159        2.37868416877199
C            0.27335837246060       -2.43033522456643        2.31828158735867
H            0.64401615489376        0.92219809438593       -0.31180400112061
H            2.00358921694918       -0.11868873061570        0.22232129958158
H            0.80343407447305       -2.12562142769646       -0.60242888753330
H           -0.62188319048981       -1.14635565081202       -0.96361875764766
H            0.87010049577992       -0.91887633905753       -1.89089628666973
H            1.88757097016777       -0.99035343205335        2.34334893680927
H            0.45795279273004       -0.54335897933592        3.33044647996639
H            0.66052066977757       -2.95292931010537        1.44549253343235
H            0.58484897451960       -2.97414231681693        3.21075616029559
H           -0.81209681053150       -2.42746059032829        2.26825761220876

          :  Hamiltonian                  GFN2-xTB          :
         :: total energy             -27.114495273629 Eh    ::
         :: gradient norm              0.000498482156 Eh/a0 ::
         :: HOMO-LUMO gap              6.210564197345 eV    ::
         :: SCC energy               -27.400635396085 Eh    ::
         :: -> dispersion             -0.013242320947 Eh    ::
         :: repulsion energy           0.286140122456 Eh    ::

    * Orbital Energies and Occupations

         #    Occupation            Energy/Eh            Energy/eV
      -------------------------------------------------------------
         1        2.0000           -0.4814562             -13.1011
       ...           ...                  ...                  ...
        12        2.0000           -0.3511248              -9.5546
        13        2.0000           -0.3371989              -9.1757
        14        2.0000           -0.3338340              -9.0841
        15        2.0000           -0.3312746              -9.0144
        16        2.0000           -0.3135213              -8.5313
        17        2.0000           -0.3099833              -8.4351
        18        2.0000           -0.2865029              -7.7961
        19        2.0000           -0.2851448              -7.7592
        20        2.0000           -0.2782749              -7.5722
        21        2.0000           -0.1950674              -5.3081
        22        2.0000           -0.1888557              -5.1390
        23        2.0000           -0.1779132              -4.8413
        24        2.0000           -0.1777353              -4.8364 (HOMO)
        25                          0.0504987               1.3741 (LUMO)
        26                          0.1859813               5.0608
        27                          0.2478161               6.7434
        28                          0.2517066               6.8493
        29                          0.2593266               7.0566
        30                          0.2771426               7.5414
        31                          0.2899385               7.8896
        32                          0.3053889               8.3101
        33                          0.3212545               8.7418
        34                          0.3285489               8.9403
        35                          0.3383032               9.2057
       ...                                ...                  ...
        42                          0.9116289              24.8067
      -------------------------------------------------------------
                  HL-Gap            0.2282340 Eh            6.2106 eV

     #   Z          covCN         q      C6AA      α(0)
     1   6 C        3.740     0.030    20.143     6.404
     2   6 C        3.750    -0.096    22.398     6.750
     3   7 N        2.728    -0.242    26.311     7.618
     4   6 C        2.627     0.414    20.037     7.322
     5   8 O        0.857    -0.607    26.288     6.874
     6   8 O        0.857    -0.607    26.289     6.874
     7   6 C        3.740     0.030    20.142     6.403
     8   6 C        3.750    -0.096    22.399     6.750
     9   1 H        0.924     0.056     2.249     2.345
    10   1 H        0.922    -0.023     3.481     2.918
    11   1 H        0.925     0.014     2.832     2.632
    12   1 H        0.925     0.034     2.525     2.485
    13   1 H        0.924     0.006     2.961     2.691
    14   1 H        0.922    -0.022     3.477     2.916
    15   1 H        0.924     0.055     2.254     2.348
    16   1 H        0.925     0.014     2.829     2.630
    17   1 H        0.924     0.006     2.962     2.692
    18   1 H        0.925     0.034     2.524     2.484

Wiberg/Mayer (AO) data.
largest (>0.10) Wiberg bond orders for each atom

     #   Z sym  total        # sym  WBO       # sym  WBO       # sym  WBO
 ---------------------------------------------------------------------------
     1   6 C    3.988 --     3 N    1.029     2 C    0.998    10 H    0.964
                             9 H    0.958
     2   6 C    3.998 --     1 C    0.998    12 H    0.989    13 H    0.989
                            11 H    0.986
     3   7 N    3.245 --     1 C    1.029     7 C    1.029     4 C    0.909
     4   6 C    3.940 --     5 O    1.500     6 O    1.500     3 N    0.909
     5   8 O    1.838 --     4 C    1.500     6 O    0.196
     6   8 O    1.838 --     4 C    1.500     5 O    0.196
     7   6 C    3.988 --     3 N    1.029     8 C    0.998    14 H    0.964
                            15 H    0.958
     8   6 C    3.998 --     7 C    0.998    18 H    0.989    17 H    0.989
                            16 H    0.986
     9   1 H    0.997 --     1 C    0.958
    10   1 H    0.999 --     1 C    0.964
    11   1 H    1.000 --     2 C    0.986
    12   1 H    0.999 --     2 C    0.989
    13   1 H    1.000 --     2 C    0.989
    14   1 H    1.000 --     7 C    0.964
    15   1 H    0.997 --     7 C    0.958
    16   1 H    1.000 --     8 C    0.986
    17   1 H    1.000 --     8 C    0.989
    18   1 H    0.999 --     8 C    0.989
 ---------------------------------------------------------------------------

molecular dipole:
                 x           y           z       tot (Debye)
 q only:        1.170      -2.225      -3.490
   full:        1.453      -2.463      -3.570      11.627

           -------------------------------------------------
          | TOTAL ENERGY              -27.114495273629 Eh   |
          | GRADIENT NORM               0.000498482156 Eh/α |
          | HOMO-LUMO GAP               6.210564197345 eV   |
           -------------------------------------------------

 * finished run on 2024/12/20 at 01:53:31.583
