   * xtb version 6.7.1 (edcfbbe) compiled by 'conda@3ef47c1a292c' on 2024-11-25

   ID    Z sym.   atoms
    1    6 C      1-4
    2    8 O      5-8
    3    1 H      9-11

          program call               : xtb A102.xyz --opt --namespace A102 --charge -1
          :  Hamiltonian                  GFN2-xTB          :
 * total energy  :   -26.5707421 Eh     change       -0.2248619E-09 Eh
 * total energy  :   -26.5739861 Eh     change       -0.3244037E-02 Eh
 * total energy  :   -26.5746337 Eh     change       -0.6475514E-03 Eh
 * total energy  :   -26.5747477 Eh     change       -0.1140166E-03 Eh
 * total energy  :   -26.5747951 Eh     change       -0.4735802E-04 Eh
 * total energy  :   -26.5748027 Eh     change       -0.7638810E-05 Eh
 * total energy  :   -26.5747892 Eh     change        0.1349445E-04 Eh
 * total energy  :   -26.5748051 Eh     change       -0.1588100E-04 Eh
 * total energy  :   -26.5748069 Eh     change       -0.1804901E-05 Eh
   *** GEOMETRY OPTIMIZATION CONVERGED AFTER 9 ITERATIONS ***

 final structure:
================
11
 xtb: 6.7.1 (edcfbbe)
C            1.06056882640036        0.04721396923109       -0.00549538256577
C            0.30367642466070        0.01665099939371       -1.25065390836675
C           -1.02657585966221        0.01424286821660       -1.35020259020074
C           -1.71888838316504       -0.01945058933451       -2.75400761793470
O           -2.95433418880739       -0.01986686748912       -2.72415926178216
O           -0.94399659625479       -0.04413360729654       -3.71922443287825
O            0.61417799335953        0.07453551000288        1.11540802762546
O            2.42402160579100        0.04291646256803       -0.17344256471228
H            0.86310008139979       -0.00612295591278       -2.18254029190961
H           -1.66304469017643        0.03558461428059       -0.47564661326657
H            2.63078478645447        0.01986959634005       -1.11719536400861

          :  Hamiltonian                  GFN2-xTB          :
         :: total energy             -26.574806898956 Eh    ::
         :: gradient norm              0.000487203300 Eh/a0 ::
         :: HOMO-LUMO gap              1.270802433422 eV    ::
         :: SCC energy               -26.811830277122 Eh    ::
         :: -> dispersion             -0.007350074503 Eh    ::
         :: repulsion energy           0.237023378166 Eh    ::

    * Orbital Energies and Occupations

         #    Occupation            Energy/Eh            Energy/eV
      -------------------------------------------------------------
         1        2.0000           -0.6185578             -16.8318
       ...           ...                  ...                  ...
        10        2.0000           -0.4159700             -11.3191
        11        2.0000           -0.3913223             -10.6484
        12        2.0000           -0.3797858             -10.3345
        13        2.0000           -0.3544482              -9.6450
        14        2.0000           -0.3525920              -9.5945
        15        2.0000           -0.3446680              -9.3789
        16        2.0000           -0.3308656              -9.0033
        17        2.0000           -0.3069974              -8.3538
        18        2.0000           -0.2926493              -7.9634
        19        2.0000           -0.2878671              -7.8333
        20        2.0000           -0.2238301              -6.0907
        21        2.0000           -0.2100289              -5.7152
        22        2.0000           -0.1971575              -5.3649 (HOMO)
        23                         -0.1504564              -4.0941 (LUMO)
        24                         -0.0426454              -1.1604
        25                          0.0343023               0.9334
        26                          0.1855130               5.0481
        27                          0.2119470               5.7674
        28                          0.2645735               7.1994
        29                          0.3053945               8.3102
        30                          0.3538809               9.6296
        31                          0.5543448              15.0845
        32                          0.5915133              16.0959
        33                          0.6154792              16.7480
       ...                                ...                  ...
        35                          0.9071020              24.6835
      -------------------------------------------------------------
                  HL-Gap            0.0467011 Eh            1.2708 eV

     #   Z          covCN         q      C6AA      α(0)
     1   6 C        2.692     0.346    21.126     7.522
     2   6 C        2.889    -0.091    30.274     9.021
     3   6 C        2.884    -0.042    29.045     8.835
     4   6 C        2.684     0.370    20.724     7.450
     5   8 O        0.857    -0.566    25.296     6.743
     6   8 O        0.857    -0.577    25.555     6.778
     7   8 O        0.857    -0.415    21.991     6.287
     8   8 O        1.658    -0.418    21.192     6.214
     9   1 H        0.925     0.048     2.346     2.395
    10   1 H        0.925     0.041     2.438     2.442
    11   1 H        0.805     0.304     0.710     1.323

Wiberg/Mayer (AO) data.
largest (>0.10) Wiberg bond orders for each atom

     #   Z sym  total        # sym  WBO       # sym  WBO       # sym  WBO
 ---------------------------------------------------------------------------
     1   6 C    3.910 --     7 O    1.727     2 C    1.071     8 O    1.052
     2   6 C    3.982 --     3 C    1.817     1 C    1.071     9 H    0.952
     3   6 C    3.912 --     2 C    1.817    10 H    0.968     4 C    0.880
     4   6 C    3.949 --     5 O    1.529     6 O    1.518     3 C    0.880
     5   8 O    1.877 --     4 C    1.529     6 O    0.251
     6   8 O    1.867 --     4 C    1.518     5 O    0.251
     7   8 O    2.030 --     1 C    1.727     8 O    0.143
     8   8 O    2.136 --     1 C    1.052    11 H    0.883     7 O    0.143
     9   1 H    0.998 --     2 C    0.952
    10   1 H    0.998 --     3 C    0.968
    11   1 H    0.908 --     8 O    0.883
 ---------------------------------------------------------------------------

molecular dipole:
                 x           y           z       tot (Debye)
 q only:        2.774       0.004       3.744
   full:        2.979       0.003       3.684      12.041

           -------------------------------------------------
          | TOTAL ENERGY              -26.574806898956 Eh   |
          | GRADIENT NORM               0.000487203300 Eh/α |
          | HOMO-LUMO GAP               1.270802433422 eV   |
           -------------------------------------------------

 * finished run on 2024/12/20 at 01:53:31.664
