   * xtb version 6.7.1 (edcfbbe) compiled by 'conda@3ef47c1a292c' on 2024-11-25

   ID    Z sym.   atoms
    1    7 N      1
    2    6 C      2, 3, 6-8
    3    8 O      4, 5
    4    1 H      9-18

          program call               : xtb A103.xyz --opt --namespace A103 --charge -1
          :  Hamiltonian                  GFN2-xTB          :
 * total energy  :   -27.0853805 Eh     change       -0.4791545E-10 Eh
 * total energy  :   -27.0889444 Eh     change       -0.3563909E-02 Eh
 * total energy  :   -27.0886925 Eh     change        0.2519394E-03 Eh
 * total energy  :   -27.0898268 Eh     change       -0.1134314E-02 Eh
 * total energy  :   -27.0899486 Eh     change       -0.1218222E-03 Eh
 * total energy  :   -27.0901121 Eh     change       -0.1634602E-03 Eh
 * total energy  :   -27.0902116 Eh     change       -0.9954783E-04 Eh
 * total energy  :   -27.0903009 Eh     change       -0.8925200E-04 Eh
 * total energy  :   -27.0903487 Eh     change       -0.4786704E-04 Eh
 * total energy  :   -27.0903839 Eh     change       -0.3518443E-04 Eh
 * total energy  :   -27.0904211 Eh     change       -0.3723999E-04 Eh
 * total energy  :   -27.0904538 Eh     change       -0.3266242E-04 Eh
 * total energy  :   -27.0905044 Eh     change       -0.5063075E-04 Eh
 * total energy  :   -27.0905328 Eh     change       -0.2838535E-04 Eh
 * total energy  :   -27.0905352 Eh     change       -0.2349789E-05 Eh
 * total energy  :   -27.0905574 Eh     change       -0.2220979E-04 Eh
 * total energy  :   -27.0905590 Eh     change       -0.1639442E-05 Eh
 * total energy  :   -27.0905626 Eh     change       -0.3543868E-05 Eh
   *** GEOMETRY OPTIMIZATION CONVERGED AFTER 18 ITERATIONS ***

 final structure:
================
18
 xtb: 6.7.1 (edcfbbe)
N            0.86960178047791        2.14364728858470       -1.38922970145356
C            0.47447240567575        1.46950958606505       -0.14358440172390
C            1.03583462524209       -0.02321528253077       -0.14242662001614
O            1.18528340936877       -0.55968440739390        0.96381731928015
O            1.26125405708349       -0.48256428371548       -1.27372611766515
C           -1.05836778420136        1.42932284787943       -0.05056614135668
C           -1.49794340168080        0.86908871607154        1.29895056222249
C           -1.66546468012057        2.81479777944671       -0.27855957136289
H            0.83047303249407        1.39316625680009       -2.08931906600222
H            1.86021353230204        2.37018628597053       -1.31522820484988
H            0.87709037921220        2.01776466466879        0.71668228568910
H           -1.41279295757913        0.76218970073741       -0.84637623148515
H           -1.29375267552259        1.59148558737719        2.08952974486663
H           -2.56529621495972        0.64357480001149        1.30126472128907
H           -0.93566103423439       -0.03567188490258        1.51622256093514
H           -1.30912141762918        3.21722752631480       -1.22256342200253
H           -2.75494275769582        2.76158704595639       -0.29555284824363
H           -1.36382029823284        3.49151777265863        0.51982513187932

          :  Hamiltonian                  GFN2-xTB          :
         :: total energy             -27.090562564411 Eh    ::
         :: gradient norm              0.000491065800 Eh/a0 ::
         :: HOMO-LUMO gap              4.968032968971 eV    ::
         :: SCC energy               -27.374419622741 Eh    ::
         :: -> dispersion             -0.013466969758 Eh    ::
         :: repulsion energy           0.283857058330 Eh    ::

    * Orbital Energies and Occupations

         #    Occupation            Energy/Eh            Energy/eV
      -------------------------------------------------------------
         1        2.0000           -0.4818741             -13.1125
       ...           ...                  ...                  ...
        12        2.0000           -0.3454415              -9.3999
        13        2.0000           -0.3337675              -9.0823
        14        2.0000           -0.3274295              -8.9098
        15        2.0000           -0.3107562              -8.4561
        16        2.0000           -0.3063606              -8.3365
        17        2.0000           -0.2967155              -8.0740
        18        2.0000           -0.2942771              -8.0077
        19        2.0000           -0.2838980              -7.7253
        20        2.0000           -0.2689958              -7.3197
        21        2.0000           -0.2314289              -6.2975
        22        2.0000           -0.2036090              -5.5405
        23        2.0000           -0.1893161              -5.1516
        24        2.0000           -0.1619315              -4.4064 (HOMO)
        25                          0.0206403               0.5617 (LUMO)
        26                          0.2052019               5.5838
        27                          0.2298103               6.2535
        28                          0.2581082               7.0235
        29                          0.2677087               7.2847
        30                          0.2756413               7.5006
        31                          0.2886595               7.8548
        32                          0.3099595               8.4344
        33                          0.3219966               8.7620
        34                          0.3287054               8.9445
        35                          0.3371055               9.1731
       ...                                ...                  ...
        42                          0.8639897              23.5104
      -------------------------------------------------------------
                  HL-Gap            0.1825719 Eh            4.9680 eV

     #   Z          covCN         q      C6AA      α(0)
     1   7 N        2.629    -0.371    29.581     8.078
     2   6 C        3.776     0.009    20.448     6.443
     3   6 C        2.679     0.355    20.973     7.494
     4   8 O        0.856    -0.598    26.075     6.846
     5   8 O        0.856    -0.597    26.057     6.844
     6   6 C        3.852    -0.007    20.664     6.465
     7   6 C        3.755    -0.098    22.430     6.753
     8   6 C        3.754    -0.098    22.434     6.754
     9   1 H        0.859     0.153     1.384     1.843
    10   1 H        0.860     0.109     1.719     2.054
    11   1 H        0.924    -0.014     3.309     2.845
    12   1 H        0.924     0.016     2.788     2.611
    13   1 H        0.924     0.015     2.813     2.623
    14   1 H        0.924     0.002     3.021     2.718
    15   1 H        0.925     0.062     2.174     2.305
    16   1 H        0.925     0.040     2.445     2.445
    17   1 H        0.924     0.005     2.968     2.694
    18   1 H        0.925     0.017     2.778     2.606

Wiberg/Mayer (AO) data.
largest (>0.10) Wiberg bond orders for each atom

     #   Z sym  total        # sym  WBO       # sym  WBO       # sym  WBO
 ---------------------------------------------------------------------------
     1   7 N    2.986 --     2 C    1.006    10 H    0.975     9 H    0.942
     2   6 C    3.952 --     1 N    1.006     6 C    0.978    11 H    0.970
                             3 C    0.856
     3   6 C    3.943 --     4 O    1.529     5 O    1.521     2 C    0.856
     4   8 O    1.847 --     3 C    1.529     5 O    0.227
     5   8 O    1.857 --     3 C    1.521     4 O    0.227
     6   6 C    3.994 --     7 C    1.010     8 C    1.003     2 C    0.978
                            12 H    0.969
     7   6 C    3.996 --     6 C    1.010    14 H    0.988    13 H    0.988
                            15 H    0.977
     8   6 C    3.998 --     6 C    1.003    17 H    0.988    18 H    0.988
                            16 H    0.985
     9   1 H    0.977 --     1 N    0.942
    10   1 H    0.988 --     1 N    0.975
    11   1 H    1.000 --     2 C    0.970
    12   1 H    1.000 --     6 C    0.969
    13   1 H    1.000 --     7 C    0.988
    14   1 H    1.000 --     7 C    0.988
    15   1 H    0.996 --     7 C    0.977
    16   1 H    0.998 --     8 C    0.985
    17   1 H    1.000 --     8 C    0.988
    18   1 H    1.000 --     8 C    0.988
 ---------------------------------------------------------------------------

molecular dipole:
                 x           y           z       tot (Debye)
 q only:       -1.843       0.270       0.282
   full:       -1.728       0.272       0.352       4.535

           -------------------------------------------------
          | TOTAL ENERGY              -27.090562564411 Eh   |
          | GRADIENT NORM               0.000491065800 Eh/α |
          | HOMO-LUMO GAP               4.968032968971 eV   |
           -------------------------------------------------

 * finished run on 2024/12/20 at 01:53:31.829
