   * xtb version 6.7.1 (edcfbbe) compiled by 'conda@3ef47c1a292c' on 2024-11-25

   ID    Z sym.   atoms
    1    9 F      1, 3-7
    2   33 As     2

          program call               : xtb A104.xyz --opt --namespace A104 --charge -1
          :  Hamiltonian                  GFN2-xTB          :
 * total energy  :   -31.1889756 Eh     change       -0.4106937E-11 Eh
 * total energy  :   -31.1889947 Eh     change       -0.1906090E-04 Eh
 * total energy  :   -31.1890103 Eh     change       -0.1560267E-04 Eh
 * total energy  :   -31.1890103 Eh     change       -0.2725255E-08 Eh
   *** GEOMETRY OPTIMIZATION CONVERGED AFTER 4 ITERATIONS ***

 final structure:
================
7
 xtb: 6.7.1 (edcfbbe)
F            0.96003199791094        0.03692999999419       -0.08592999998648
As           2.72459999883217        0.03692999996565       -0.08592999992009
F            2.72459999999516       -1.63989015128651       -0.63545234098463
F            2.72460000018166        0.58645234099602       -1.76275015120464
F            4.48916800320496        0.03693000012552       -0.08593000029210
F            2.72460000002478        1.71375015125017        0.46359234105658
F            2.72459999985033       -0.51259234104505        1.59089015133137

          :  Hamiltonian                  GFN2-xTB          :
         :: total energy             -31.189010306949 Eh    ::
         :: gradient norm              0.000016077189 Eh/a0 ::
         :: HOMO-LUMO gap              8.783969961887 eV    ::
         :: SCC energy               -31.201445739695 Eh    ::
         :: -> dispersion             -0.004453495548 Eh    ::
         :: repulsion energy           0.012435432746 Eh    ::

    * Orbital Energies and Occupations

         #    Occupation            Energy/Eh            Energy/eV
      -------------------------------------------------------------
         1        2.0000           -0.6723432             -18.2954
       ...           ...                  ...                  ...
        12        2.0000           -0.3698052             -10.0629
        13        2.0000           -0.3698052             -10.0629
        14        2.0000           -0.3424310              -9.3180
        15        2.0000           -0.3424310              -9.3180
        16        2.0000           -0.3424310              -9.3180
        17        2.0000           -0.3382737              -9.2049
        18        2.0000           -0.3382737              -9.2049
        19        2.0000           -0.3382737              -9.2049
        20        2.0000           -0.3380315              -9.1983
        21        2.0000           -0.3380315              -9.1983
        22        2.0000           -0.3380315              -9.1983
        23        2.0000           -0.3352101              -9.1215
        24        2.0000           -0.3352101              -9.1215 (HOMO)
        25                         -0.0124051              -0.3376 (LUMO)
        26                          0.2812970               7.6545
        27                          0.2812970               7.6545
        28                          0.2812970               7.6545
        29                          0.3005678               8.1789
        30                          0.3005678               8.1789
        31                          0.3005679               8.1789
        32                          1.3202784              35.9266
        33                          1.3202784              35.9266
      -------------------------------------------------------------
                  HL-Gap            0.3228050 Eh            8.7840 eV

     #   Z          covCN         q      C6AA      α(0)
     1   9 F        0.737    -0.233    11.586     4.020
     2  33 As       4.423     0.397   203.040    26.111
     3   9 F        0.737    -0.233    11.586     4.020
     4   9 F        0.737    -0.233    11.586     4.020
     5   9 F        0.737    -0.233    11.586     4.020
     6   9 F        0.737    -0.233    11.586     4.020
     7   9 F        0.737    -0.233    11.586     4.020

Wiberg/Mayer (AO) data.
largest (>0.10) Wiberg bond orders for each atom

     #   Z sym  total        # sym  WBO       # sym  WBO       # sym  WBO
 ---------------------------------------------------------------------------
     1   9 F    1.235 --     2 As   1.006
     2  33 As   6.033 --     1 F    1.006     5 F    1.006     7 F    1.006
                             3 F    1.006     6 F    1.006     4 F    1.006
     3   9 F    1.235 --     2 As   1.006
     4   9 F    1.235 --     2 As   1.006
     5   9 F    1.235 --     2 As   1.006
     6   9 F    1.235 --     2 As   1.006
     7   9 F    1.235 --     2 As   1.006
 ---------------------------------------------------------------------------

molecular dipole:
                 x           y           z       tot (Debye)
 q only:       -5.149      -0.070       0.162
   full:       -5.149      -0.070       0.162      13.095

           -------------------------------------------------
          | TOTAL ENERGY              -31.189010306949 Eh   |
          | GRADIENT NORM               0.000016077189 Eh/α |
          | HOMO-LUMO GAP               8.783969961887 eV   |
           -------------------------------------------------

 * finished run on 2024/12/20 at 01:53:31.869
