   * xtb version 6.7.1 (edcfbbe) compiled by 'conda@3ef47c1a292c' on 2024-11-25

   ID    Z sym.   atoms
    1    6 C      1
    2    8 O      2, 4-6
    3   16 S      3
    4    1 H      7-9

          program call               : xtb A105.xyz --opt --namespace A105 --charge -1
          :  Hamiltonian                  GFN2-xTB          :
 * total energy  :   -23.4557502 Eh     change       -0.6606626E-10 Eh
 * total energy  :   -23.4587437 Eh     change       -0.2993528E-02 Eh
 * total energy  :   -23.4606602 Eh     change       -0.1916472E-02 Eh
 * total energy  :   -23.4608110 Eh     change       -0.1508409E-03 Eh
 * total energy  :   -23.4608766 Eh     change       -0.6557828E-04 Eh
 * total energy  :   -23.4608846 Eh     change       -0.8019417E-05 Eh
 * total energy  :   -23.4608879 Eh     change       -0.3292011E-05 Eh
   *** GEOMETRY OPTIMIZATION CONVERGED AFTER 7 ITERATIONS ***

 final structure:
================
9
 xtb: 6.7.1 (edcfbbe)
C            0.95494459665149        0.02868622821703        0.09393079881273
O            0.47676693051371        1.31860004812944       -0.08752382834909
S            1.06235776496969        2.21796566904836        1.20065088615103
O            0.52287218092519        1.55869998462350        2.37829576741592
O            2.50771194989628        2.11311269960810        1.08893396661607
O            0.53327038777171        3.54117076490233        0.95514026599182
H            0.59632780329916       -0.59830357702563       -0.72772896116387
H            0.60220001884667       -0.36118822426434        1.05507917028063
H            2.05020836712612        0.04327640676120        0.11445193424476

          :  Hamiltonian                  GFN2-xTB          :
         :: total energy             -23.460887916554 Eh    ::
         :: gradient norm              0.000876499625 Eh/a0 ::
         :: HOMO-LUMO gap              8.567498942843 eV    ::
         :: SCC energy               -23.581498804243 Eh    ::
         :: -> dispersion             -0.007088427045 Eh    ::
         :: repulsion energy           0.120610887689 Eh    ::

    * Orbital Energies and Occupations

         #    Occupation            Energy/Eh            Energy/eV
      -------------------------------------------------------------
         1        2.0000           -0.5687635             -15.4768
       ...           ...                  ...                  ...
         7        2.0000           -0.3896785             -10.6037
         8        2.0000           -0.3863535             -10.5132
         9        2.0000           -0.3818670             -10.3911
        10        2.0000           -0.3234098              -8.8004
        11        2.0000           -0.3164261              -8.6104
        12        2.0000           -0.3152275              -8.5778
        13        2.0000           -0.2687181              -7.3122
        14        2.0000           -0.2574357              -7.0052
        15        2.0000           -0.2537110              -6.9038
        16        2.0000           -0.2535159              -6.8985
        17        2.0000           -0.2398751              -6.5273
        18        2.0000           -0.2388999              -6.5008
        19        2.0000           -0.2273813              -6.1874 (HOMO)
        20                          0.0874685               2.3801 (LUMO)
        21                          0.1464444               3.9850
        22                          0.2123025               5.7770
        23                          0.2365502               6.4369
        24                          0.2700352               7.3480
        25                          0.2937636               7.9937
        26                          0.3391753               9.2294
        27                          0.3551877               9.6651
        28                          0.4328245              11.7778
        29                          0.4512956              12.2804
        30                          0.9456187              25.7316
       ...                                ...                  ...
        32                          1.4139153              38.4746
      -------------------------------------------------------------
                  HL-Gap            0.3148498 Eh            8.5675 eV

     #   Z          covCN         q      C6AA      α(0)
     1   6 C        3.949     0.062    19.477     6.271
     2   8 O        1.706    -0.482    22.489     6.403
     3  16 S        3.759     1.435    95.050    16.409
     4   8 O        0.860    -0.709    28.943     7.213
     5   8 O        0.860    -0.709    28.943     7.213
     6   8 O        0.860    -0.678    28.125     7.110
     7   1 H        0.924     0.018     2.759     2.597
     8   1 H        0.924     0.031     2.569     2.506
     9   1 H        0.924     0.031     2.569     2.506

Wiberg/Mayer (AO) data.
largest (>0.10) Wiberg bond orders for each atom

     #   Z sym  total        # sym  WBO       # sym  WBO       # sym  WBO
 ---------------------------------------------------------------------------
     1   6 C    3.956 --     2 O    1.007     7 H    0.980     8 H    0.976
                             9 H    0.976
     2   8 O    2.025 --     1 C    1.007     3 S    0.780
     3  16 S    5.056 --     6 O    1.450     4 O    1.405     5 O    1.405
                             2 O    0.780
     4   8 O    1.725 --     3 S    1.405     5 O    0.120     6 O    0.119
     5   8 O    1.725 --     3 S    1.405     4 O    0.120     6 O    0.119
     6   8 O    1.761 --     3 S    1.450     4 O    0.119     5 O    0.119
     7   1 H    1.000 --     1 C    0.980
     8   1 H    0.999 --     1 C    0.976
     9   1 H    0.999 --     1 C    0.976
 ---------------------------------------------------------------------------

molecular dipole:
                 x           y           z       tot (Debye)
 q only:       -2.006      -4.680      -2.477
   full:       -2.039      -4.895      -2.619      15.031

           -------------------------------------------------
          | TOTAL ENERGY              -23.460887916554 Eh   |
          | GRADIENT NORM               0.000876499625 Eh/α |
          | HOMO-LUMO GAP               8.567498942843 eV   |
           -------------------------------------------------

 * finished run on 2024/12/20 at 01:53:31.921
