   * xtb version 6.7.1 (edcfbbe) compiled by 'conda@3ef47c1a292c' on 2024-11-25

   ID    Z sym.   atoms
    1    6 C      1, 3, 4, 6
    2    7 N      2, 5, 7

          program call               : xtb A106.xyz --opt --namespace A106 --charge -1
          :  Hamiltonian                  GFN2-xTB          :
 * total energy  :   -17.3510074 Eh     change       -0.1998195E-08 Eh
 * total energy  :   -17.4335778 Eh     change       -0.8257042E-01 Eh
 * total energy  :   -17.4483444 Eh     change       -0.1476663E-01 Eh
 * total energy  :   -17.4493316 Eh     change       -0.9871871E-03 Eh
 * total energy  :   -17.4524815 Eh     change       -0.3149955E-02 Eh
 * total energy  :   -17.4534936 Eh     change       -0.1012043E-02 Eh
 * total energy  :   -17.4547335 Eh     change       -0.1239930E-02 Eh
 * total energy  :   -17.4547608 Eh     change       -0.2731656E-04 Eh
 * total energy  :   -17.4560377 Eh     change       -0.1276909E-02 Eh
 * total energy  :   -17.4565421 Eh     change       -0.5043243E-03 Eh
 * total energy  :   -17.4568774 Eh     change       -0.3352908E-03 Eh
 * total energy  :   -17.4570090 Eh     change       -0.1316750E-03 Eh
 * total energy  :   -17.4571301 Eh     change       -0.1210658E-03 Eh
 * total energy  :   -17.4571730 Eh     change       -0.4291956E-04 Eh
 * total energy  :   -17.4571864 Eh     change       -0.1339187E-04 Eh
 * total energy  :   -17.4571904 Eh     change       -0.3970685E-05 Eh
 * total energy  :   -17.4571925 Eh     change       -0.2147483E-05 Eh
 * total energy  :   -17.4571930 Eh     change       -0.4700968E-06 Eh
   *** GEOMETRY OPTIMIZATION CONVERGED AFTER 18 ITERATIONS ***

 final structure:
================
7
 xtb: 6.7.1 (edcfbbe)
C            1.01221958525172       -0.05344134346733        0.12856704321067
N           -0.07775390110478       -0.21940650764594       -0.22767397895296
C            2.31425038881802        0.14400878763823        0.55383885339932
C            2.96637761263805        1.32837008861727        0.25861182850267
N            3.51186388258978        2.32008798354068        0.01128338925451
C            2.96390238905485       -0.84266387888823        1.27472756433558
N            3.50857004275234       -1.66791512979469        1.87850530025022

          :  Hamiltonian                  GFN2-xTB          :
         :: total energy             -17.457192998005 Eh    ::
         :: gradient norm              0.000667713116 Eh/a0 ::
         :: HOMO-LUMO gap              3.871720874495 eV    ::
         :: SCC energy               -17.840323636631 Eh    ::
         :: -> dispersion             -0.005525400072 Eh    ::
         :: repulsion energy           0.383130638627 Eh    ::

    * Orbital Energies and Occupations

         #    Occupation            Energy/Eh            Energy/eV
      -------------------------------------------------------------
         1        2.0000           -0.4731547             -12.8752
       ...           ...                  ...                  ...
         4        2.0000           -0.4515272             -12.2867
         5        2.0000           -0.3866879             -10.5223
         6        2.0000           -0.3866760             -10.5220
         7        2.0000           -0.3336698              -9.0796
         8        2.0000           -0.3016149              -8.2074
         9        2.0000           -0.3015930              -8.2068
        10        2.0000           -0.2974607              -8.0943
        11        2.0000           -0.2974321              -8.0935
        12        2.0000           -0.2928877              -7.9699
        13        2.0000           -0.2671361              -7.2691
        14        2.0000           -0.2466616              -6.7120
        15        2.0000           -0.2466489              -6.7117
        16        2.0000           -0.1895578              -5.1581 (HOMO)
        17                         -0.0472747              -1.2864 (LUMO)
        18                         -0.0472587              -1.2860
        19                         -0.0311291              -0.8471
        20                         -0.0311116              -0.8466
        21                         -0.0047061              -0.1281
        22                          0.1089823               2.9656
        23                          0.2930590               7.9745
        24                          0.5086940              13.8423
        25                          0.5087265              13.8432
        26                          1.3186683              35.8828
        27                          1.3190663              35.8936
        28                          1.3299360              36.1894
      -------------------------------------------------------------
                  HL-Gap            0.1422831 Eh            3.8717 eV

     #   Z          covCN         q      C6AA      α(0)
     1   6 C        1.925     0.102    28.571     8.632
     2   7 N        0.911    -0.401    30.388     7.973
     3   6 C        2.943    -0.102    30.580     9.070
     4   6 C        1.925     0.102    28.570     8.632
     5   7 N        0.911    -0.401    30.386     7.972
     6   6 C        1.925     0.102    28.570     8.632
     7   7 N        0.911    -0.401    30.386     7.972

Wiberg/Mayer (AO) data.
largest (>0.10) Wiberg bond orders for each atom

     #   Z sym  total        # sym  WBO       # sym  WBO       # sym  WBO
 ---------------------------------------------------------------------------
     1   6 C    3.946 --     2 N    2.646     3 C    1.182
     2   7 N    2.942 --     1 C    2.646     3 C    0.117
     3   6 C    3.895 --     1 C    1.182     4 C    1.182     6 C    1.182
                             2 N    0.117     5 N    0.117     7 N    0.117
     4   6 C    3.946 --     5 N    2.646     3 C    1.182
     5   7 N    2.943 --     4 C    2.646     3 C    0.117
     6   6 C    3.946 --     7 N    2.646     3 C    1.182
     7   7 N    2.943 --     6 C    2.646     3 C    0.117
 ---------------------------------------------------------------------------

molecular dipole:
                 x           y           z       tot (Debye)
 q only:       -4.373      -0.273      -1.047
   full:       -4.373      -0.273      -1.047      11.450

           -------------------------------------------------
          | TOTAL ENERGY              -17.457192998005 Eh   |
          | GRADIENT NORM               0.000667713116 Eh/α |
          | HOMO-LUMO GAP               3.871720874495 eV   |
           -------------------------------------------------

 * finished run on 2024/12/20 at 01:53:32.009
