   * xtb version 6.7.1 (edcfbbe) compiled by 'conda@3ef47c1a292c' on 2024-11-25

   ID    Z sym.   atoms
    1    7 N      1, 2
    2    6 C      3-9
    3    1 H      10-14

          program call               : xtb A107.xyz --opt --namespace A107 --charge -1
          :  Hamiltonian                  GFN2-xTB          :
 * total energy  :   -23.5589243 Eh     change       -0.2710010E-10 Eh
 * total energy  :   -23.5648017 Eh     change       -0.5877430E-02 Eh
 * total energy  :   -23.5657962 Eh     change       -0.9944814E-03 Eh
 * total energy  :   -23.5658725 Eh     change       -0.7628829E-04 Eh
 * total energy  :   -23.5658918 Eh     change       -0.1926673E-04 Eh
 * total energy  :   -23.5658945 Eh     change       -0.2701362E-05 Eh
   *** GEOMETRY OPTIMIZATION CONVERGED AFTER 6 ITERATIONS ***

 final structure:
================
14
 xtb: 6.7.1 (edcfbbe)
N           -1.54666202332643       -1.11051664864554       -0.00031984888207
N           -2.34154257187551       -0.03762300283192       -0.00043983705201
C           -1.61493040123278        1.07651677264862       -0.00025224796812
C           -0.24733838701361        0.76262839838045       -0.00016212699126
C            0.96926270613032        1.44409798571781       -0.00003351368206
C            2.13330702063081        0.71417778404034        0.00004331455277
C            2.10993541294643       -0.69207495349961       -0.00001454691987
C            0.93005550035362       -1.39406281142767       -0.00014881870056
C           -0.27317969858615       -0.67931141363932       -0.00022120421402
H           -2.09178740996572        2.04617537768853       -0.00022999202562
H            0.99624966668292        2.53138400843785        0.00002291582635
H            3.09422398790337        1.22119044154081        0.00016048014787
H            3.05683780259756       -1.22545375264614        0.00005862663382
H            0.92420839475518       -2.47813818576420       -0.00018320072523

          :  Hamiltonian                  GFN2-xTB          :
         :: total energy             -23.565894480951 Eh    ::
         :: gradient norm              0.000716144911 Eh/a0 ::
         :: HOMO-LUMO gap              2.610331712866 eV    ::
         :: SCC energy               -23.942077419219 Eh    ::
         :: -> dispersion             -0.013837307571 Eh    ::
         :: repulsion energy           0.376182938268 Eh    ::

    * Orbital Energies and Occupations

         #    Occupation            Energy/Eh            Energy/eV
      -------------------------------------------------------------
         1        2.0000           -0.4663616             -12.6903
       ...           ...                  ...                  ...
        10        2.0000           -0.3271288              -8.9016
        11        2.0000           -0.3138103              -8.5392
        12        2.0000           -0.3127603              -8.5106
        13        2.0000           -0.3125236              -8.5042
        14        2.0000           -0.2921854              -7.9508
        15        2.0000           -0.2774269              -7.5492
        16        2.0000           -0.2639348              -7.1820
        17        2.0000           -0.2439507              -6.6382
        18        2.0000           -0.2383501              -6.4858
        19        2.0000           -0.1992295              -5.4213
        20        2.0000           -0.1888618              -5.1392
        21        2.0000           -0.1700747              -4.6280
        22        2.0000           -0.1573432              -4.2815 (HOMO)
        23                         -0.0614152              -1.6712 (LUMO)
        24                         -0.0173242              -0.4714
        25                          0.0333158               0.9066
        26                          0.1090300               2.9669
        27                          0.2757413               7.5033
        28                          0.2805681               7.6346
        29                          0.2827531               7.6941
        30                          0.3212479               8.7416
        31                          0.3477679               9.4632
        32                          0.3699948              10.0681
        33                          0.4115153              11.1979
       ...                                ...                  ...
        41                          0.9017977              24.5392
      -------------------------------------------------------------
                  HL-Gap            0.0959279 Eh            2.6103 eV

     #   Z          covCN         q      C6AA      α(0)
     1   7 N        2.009    -0.306    28.701     7.946
     2   7 N        2.045    -0.259    27.493     7.778
     3   6 C        3.033    -0.001    28.024     8.683
     4   6 C        3.049    -0.054    29.287     8.876
     5   6 C        2.906    -0.054    29.338     8.881
     6   6 C        2.918    -0.063    29.574     8.918
     7   6 C        2.919    -0.059    29.472     8.902
     8   6 C        2.906    -0.062    29.552     8.914
     9   6 C        3.134     0.053    26.598     8.442
    10   1 H        0.926    -0.063     4.434     3.293
    11   1 H        0.925    -0.037     3.777     3.039
    12   1 H        0.925    -0.038     3.813     3.054
    13   1 H        0.925    -0.036     3.766     3.035
    14   1 H        0.925    -0.020     3.437     2.899

Wiberg/Mayer (AO) data.
largest (>0.10) Wiberg bond orders for each atom

     #   Z sym  total        # sym  WBO       # sym  WBO       # sym  WBO
 ---------------------------------------------------------------------------
     1   7 N    2.957 --     9 C    1.364     2 N    1.312     3 C    0.116
     2   7 N    3.002 --     3 C    1.484     1 N    1.312
     3   6 C    3.966 --     2 N    1.484     4 C    1.305    10 H    0.965
                             1 N    0.116
     4   6 C    3.981 --     5 C    1.314     3 C    1.305     9 C    1.152
     5   6 C    3.986 --     6 C    1.516     4 C    1.314    11 H    0.968
     6   6 C    3.981 --     5 C    1.516     7 C    1.324    12 H    0.971
     7   6 C    3.983 --     8 C    1.529     6 C    1.324    13 H    0.971
     8   6 C    3.987 --     7 C    1.529     9 C    1.288    14 H    0.969
     9   6 C    3.981 --     1 N    1.364     8 C    1.288     4 C    1.152
    10   1 H    0.996 --     3 C    0.965
    11   1 H    0.999 --     5 C    0.968
    12   1 H    0.998 --     6 C    0.971
    13   1 H    0.998 --     7 C    0.971
    14   1 H    0.999 --     8 C    0.969
 ---------------------------------------------------------------------------

molecular dipole:
                 x           y           z       tot (Debye)
 q only:        1.057       0.192       0.000
   full:        1.762       0.679       0.001       4.799

           -------------------------------------------------
          | TOTAL ENERGY              -23.565894480951 Eh   |
          | GRADIENT NORM               0.000716144911 Eh/α |
          | HOMO-LUMO GAP               2.610331712866 eV   |
           -------------------------------------------------

 * finished run on 2024/12/20 at 01:53:32.094
