   * xtb version 6.7.1 (edcfbbe) compiled by 'conda@3ef47c1a292c' on 2024-11-25

   ID    Z sym.   atoms
    1    1 H      1, 3-5
    2    5 B      2

          program call               : xtb A108.xyz --opt --namespace A108 --charge -1
          :  Hamiltonian                  GFN2-xTB          :
 * total energy  :    -3.4391465 Eh     change       -0.2727152E-11 Eh
 * total energy  :    -3.4485813 Eh     change       -0.9434737E-02 Eh
 * total energy  :    -3.4491929 Eh     change       -0.6116091E-03 Eh
 * total energy  :    -3.4492295 Eh     change       -0.3657827E-04 Eh
 * total energy  :    -3.4492296 Eh     change       -0.1409142E-06 Eh
   *** GEOMETRY OPTIMIZATION CONVERGED AFTER 5 ITERATIONS ***

 final structure:
================
5
 xtb: 6.7.1 (edcfbbe)
H            0.83976542450718        0.01874582038119        0.05500932435366
B            2.06862193569928        0.01875028378112        0.05501004578980
H            2.47824247989274       -0.71321949989776        0.95307418180921
H            2.47824247977680       -0.39301001957149       -1.02792689021904
H            2.47823768012401        1.16248341530693        0.23988333826637

          :  Hamiltonian                  GFN2-xTB          :
         :: total energy              -3.449229613623 Eh    ::
         :: gradient norm              0.000124029448 Eh/a0 ::
         :: HOMO-LUMO gap             16.936313946476 eV    ::
         :: SCC energy                -3.478266102284 Eh    ::
         :: -> dispersion             -0.003563245501 Eh    ::
         :: repulsion energy           0.029036488661 Eh    ::

    * Orbital Energies and Occupations

         #    Occupation            Energy/Eh            Energy/eV
      -------------------------------------------------------------
         1        2.0000           -0.2355482              -6.4096
         2        2.0000           -0.1492171              -4.0604
         3        2.0000           -0.1492170              -4.0604
         4        2.0000           -0.1492170              -4.0604 (HOMO)
         5                          0.4731811              12.8759 (LUMO)
         6                          0.4731811              12.8759
         7                          0.4731813              12.8759
         8                          0.6595118              17.9462
      -------------------------------------------------------------
                  HL-Gap            0.6223981 Eh           16.9363 eV

     #   Z          covCN         q      C6AA      α(0)
     1   1 H        0.909    -0.313    25.040     7.828
     2   5 B        3.636     0.253    18.197     6.955
     3   1 H        0.909    -0.313    25.040     7.828
     4   1 H        0.909    -0.313    25.040     7.828
     5   1 H        0.909    -0.313    25.040     7.828

Wiberg/Mayer (AO) data.
largest (>0.10) Wiberg bond orders for each atom

     #   Z sym  total        # sym  WBO       # sym  WBO       # sym  WBO
 ---------------------------------------------------------------------------
     1   1 H    0.902 --     2 B    0.896
     2   5 B    3.583 --     4 H    0.896     3 H    0.896     1 H    0.896
                             5 H    0.896
     3   1 H    0.902 --     2 B    0.896
     4   1 H    0.902 --     2 B    0.896
     5   1 H    0.902 --     2 B    0.896
 ---------------------------------------------------------------------------

molecular dipole:
                 x           y           z       tot (Debye)
 q only:       -3.909      -0.035      -0.104
   full:       -3.909      -0.035      -0.104       9.940

           -------------------------------------------------
          | TOTAL ENERGY               -3.449229613623 Eh   |
          | GRADIENT NORM               0.000124029448 Eh/α |
          | HOMO-LUMO GAP              16.936313946476 eV   |
           -------------------------------------------------

 * finished run on 2024/12/20 at 01:53:32.122
