   * xtb version 6.7.1 (edcfbbe) compiled by 'conda@3ef47c1a292c' on 2024-11-25

   ID    Z sym.   atoms
    1    6 C      1-13
    2    8 O      14, 15
    3    1 H      16-32

          program call               : xtb A109.xyz --opt --namespace A109 --charge -1
          :  Hamiltonian                  GFN2-xTB          :
 * total energy  :   -44.8796643 Eh     change       -0.7248104E-09 Eh
 * total energy  :   -44.8853378 Eh     change       -0.5673536E-02 Eh
 * total energy  :   -44.8863415 Eh     change       -0.1003705E-02 Eh
 * total energy  :   -44.8876113 Eh     change       -0.1269738E-02 Eh
 * total energy  :   -44.8880661 Eh     change       -0.4547868E-03 Eh
 * total energy  :   -44.8883856 Eh     change       -0.3195375E-03 Eh
 * total energy  :   -44.8885429 Eh     change       -0.1573516E-03 Eh
 * total energy  :   -44.8887408 Eh     change       -0.1978897E-03 Eh
 * total energy  :   -44.8889046 Eh     change       -0.1637260E-03 Eh
 * total energy  :   -44.8890223 Eh     change       -0.1177816E-03 Eh
 * total energy  :   -44.8895812 Eh     change       -0.1257220E-04 Eh
 * total energy  :   -44.8895872 Eh     change       -0.6023738E-05 Eh
 * total energy  :   -44.8895943 Eh     change       -0.7091147E-05 Eh
 * total energy  :   -44.8896022 Eh     change       -0.7902411E-05 Eh
 * total energy  :   -44.8896104 Eh     change       -0.8206678E-05 Eh
 * total energy  :   -44.8896173 Eh     change       -0.6863108E-05 Eh
 * total energy  :   -44.8896230 Eh     change       -0.5780149E-05 Eh
 * total energy  :   -44.8896287 Eh     change       -0.5667732E-05 Eh
 * total energy  :   -44.8896332 Eh     change       -0.4502725E-05 Eh
   *** GEOMETRY OPTIMIZATION CONVERGED AFTER 37 ITERATIONS ***

 final structure:
================
32
 xtb: 6.7.1 (edcfbbe)
C            1.25615538302946        0.13928115808571       -0.10816276612143
C            0.49360093483642        1.42924084165258        0.17833400900367
C            0.77418904172141        2.46791791924833       -0.90607913462601
C           -1.01523626786653        1.15453377819893        0.28523612272113
C           -1.34364072066784        0.22726365835320        1.42399506137232
C           -1.28563984225710        0.67195910164186        2.74035898615062
C           -1.54593743368175       -0.17644334915473        3.79605141809604
C           -1.87612282869643       -1.51877803460491        3.58215737811374
C           -1.95722400013509       -1.95091819683531        2.25456196819032
C           -1.69466720294439       -1.09920739929459        1.20198901809976
C           -2.21516664814070       -2.42966263881536        4.68575407698471
C           -1.45368969363453       -2.19091352837069        5.98131407854954
C           -3.83023824290893       -2.19448754191424        4.96506765821165
O           -4.54865454803494       -3.00155542018866        4.38553613288365
O           -4.08535570673105       -1.25619524544963        5.71082608101969
H            0.95133370676654       -0.27584718389261       -1.06746639565160
H            1.04785682007340       -0.59558625519486        0.66538637883113
H            2.32940632849573        0.32284303724003       -0.13690651890812
H            0.83628585851836        1.82557939411120        1.14070944740559
H            0.43090449585693        2.10575107762444       -1.87396275897459
H            0.25855959079705        3.40145857364007       -0.68846230752181
H            1.84135443043506        2.67367404908640       -0.97644919740190
H           -1.53280777910054        2.10820026352925        0.42919802262897
H           -1.36386948489332        0.72194716813484       -0.65653083658338
H           -1.03588404344949        1.70854377672259        2.93705743531972
H           -1.51457258975228        0.20615868810243        4.80440215412932
H           -2.24276125188273       -2.97518591907638        2.05697750033425
H           -1.76256864801839       -1.46774556964803        0.18471203050773
H           -2.12737277331371       -3.47010028373809        4.36049946994373
H           -1.88287136104916       -1.33294278250190        6.49690957547819
H           -1.55020739155066       -3.05650305523809        6.63616436513553
H           -0.39166813182047       -2.00780008145416        5.79820154667737

          :  Hamiltonian                  GFN2-xTB          :
         :: total energy             -44.889633209792 Eh    ::
         :: gradient norm              0.000289693016 Eh/a0 ::
         :: HOMO-LUMO gap              2.596999383449 eV    ::
         :: SCC energy               -45.541917511455 Eh    ::
         :: -> dispersion             -0.030494515512 Eh    ::
         :: repulsion energy           0.652284301663 Eh    ::

    * Orbital Energies and Occupations

         #    Occupation            Energy/Eh            Energy/eV
      -------------------------------------------------------------
         1        2.0000           -0.5422905             -14.7565
       ...           ...                  ...                  ...
        29        2.0000           -0.3339310              -9.0867
        30        2.0000           -0.3275055              -8.9119
        31        2.0000           -0.3249558              -8.8425
        32        2.0000           -0.3199195              -8.7055
        33        2.0000           -0.3105683              -8.4510
        34        2.0000           -0.2963127              -8.0631
        35        2.0000           -0.2844105              -7.7392
        36        2.0000           -0.2780482              -7.5661
        37        2.0000           -0.2686769              -7.3111
        38        2.0000           -0.2593179              -7.0564
        39        2.0000           -0.2240670              -6.0972
        40        2.0000           -0.2102741              -5.7218
        41        2.0000           -0.1810925              -4.9278 (HOMO)
        42                         -0.0856546              -2.3308 (LUMO)
        43                         -0.0826248              -2.2483
        44                          0.0116596               0.3173
        45                          0.0429332               1.1683
        46                          0.1726393               4.6978
        47                          0.1854676               5.0468
        48                          0.1938525               5.2750
        49                          0.2121162               5.7720
        50                          0.2216551               6.0315
        51                          0.2347268               6.3872
        52                          0.2421738               6.5899
       ...                                ...                  ...
        77                          0.9114755              24.8025
      -------------------------------------------------------------
                  HL-Gap            0.0954380 Eh            2.5970 eV

     #   Z          covCN         q      C6AA      α(0)
     1   6 C        3.756    -0.101    22.476     6.760
     2   6 C        3.850    -0.007    20.665     6.466
     3   6 C        3.755    -0.100    22.458     6.757
     4   6 C        3.810    -0.060    21.647     6.623
     5   6 C        2.968    -0.016    28.413     8.743
     6   6 C        2.923    -0.046    29.147     8.853
     7   6 C        2.923    -0.043    29.067     8.841
     8   6 C        2.971     0.018    27.615     8.620
     9   6 C        2.925    -0.046    29.138     8.852
    10   6 C        2.922    -0.046    29.143     8.853
    11   6 C        3.834    -0.065    21.718     6.630
    12   6 C        3.752    -0.082    22.126     6.708
    13   6 C        2.664     0.382    20.529     7.413
    14   8 O        0.856    -0.558    25.118     6.719
    15   8 O        0.856    -0.554    25.019     6.706
    16   1 H        0.925     0.027     2.622     2.532
    17   1 H        0.925     0.043     2.410     2.428
    18   1 H        0.925     0.019     2.752     2.594
    19   1 H        0.924     0.025     2.656     2.549
    20   1 H        0.925     0.027     2.632     2.537
    21   1 H        0.925     0.025     2.660     2.551
    22   1 H        0.925     0.022     2.702     2.570
    23   1 H        0.924     0.020     2.730     2.584
    24   1 H        0.924     0.021     2.723     2.580
    25   1 H        0.925    -0.002     3.099     2.753
    26   1 H        0.926     0.026     2.642     2.542
    27   1 H        0.925     0.016     2.797     2.615
    28   1 H        0.925    -0.002     3.092     2.750
    29   1 H        0.924     0.006     2.949     2.685
    30   1 H        0.925     0.045     2.384     2.414
    31   1 H        0.925     0.008     2.929     2.676
    32   1 H        0.924    -0.002     3.096     2.752

Wiberg/Mayer (AO) data.
largest (>0.10) Wiberg bond orders for each atom

     #   Z sym  total        # sym  WBO       # sym  WBO       # sym  WBO
 ---------------------------------------------------------------------------
     1   6 C    3.997 --     2 C    1.010    18 H    0.988    16 H    0.987
                            17 H    0.984
     2   6 C    3.993 --     1 C    1.010     3 C    1.007     4 C    0.983
                            19 H    0.969
     3   6 C    3.997 --     2 C    1.007    21 H    0.987    20 H    0.987
                            22 H    0.987
     4   6 C    3.996 --     5 C    1.006     2 C    0.983    24 H    0.976
                            23 H    0.971
     5   6 C    3.964 --    10 C    1.395     6 C    1.393     4 C    1.006
     6   6 C    3.991 --     7 C    1.473     5 C    1.393    25 H    0.969
     7   6 C    3.991 --     6 C    1.473     8 C    1.352    26 H    0.968
     8   6 C    3.984 --     9 C    1.358     7 C    1.352    11 C    1.077
     9   6 C    3.990 --    10 C    1.469     8 C    1.358    27 H    0.969
    10   6 C    3.990 --     9 C    1.469     5 C    1.395    28 H    0.969
    11   6 C    3.971 --     8 C    1.077    12 C    1.007    29 H    0.968
                            13 C    0.737
    12   6 C    3.997 --    11 C    1.007    31 H    0.990    32 H    0.986
                            30 H    0.980
    13   6 C    3.941 --    15 O    1.571    14 O    1.569    11 C    0.737
    14   8 O    1.904 --    13 C    1.569    15 O    0.232
    15   8 O    1.913 --    13 C    1.571    14 O    0.232
    16   1 H    0.999 --     1 C    0.987
    17   1 H    0.998 --     1 C    0.984
    18   1 H    1.000 --     1 C    0.988
    19   1 H    0.999 --     2 C    0.969
    20   1 H    0.999 --     3 C    0.987
    21   1 H    0.999 --     3 C    0.987
    22   1 H    0.999 --     3 C    0.987
    23   1 H    0.998 --     4 C    0.971
    24   1 H    0.999 --     4 C    0.976
    25   1 H    1.000 --     6 C    0.969
    26   1 H    0.999 --     7 C    0.968
    27   1 H    0.999 --     9 C    0.969
    28   1 H    1.000 --    10 C    0.969
    29   1 H    1.000 --    11 C    0.968
    30   1 H    0.998 --    12 C    0.980
    31   1 H    1.000 --    12 C    0.990
    32   1 H    1.000 --    12 C    0.986
 ---------------------------------------------------------------------------

molecular dipole:
                 x           y           z       tot (Debye)
 q only:        6.982       3.307      -8.304
   full:        7.235       3.335      -8.416      29.456

           -------------------------------------------------
          | TOTAL ENERGY              -44.889633209792 Eh   |
          | GRADIENT NORM               0.000289693016 Eh/α |
          | HOMO-LUMO GAP               2.596999383449 eV   |
           -------------------------------------------------

 * finished run on 2024/12/20 at 01:53:33.144
