   * xtb version 6.7.1 (edcfbbe) compiled by 'conda@3ef47c1a292c' on 2024-11-25

   ID    Z sym.   atoms
    1    7 N      1
    2    8 O      2, 3

          program call               : xtb A110.xyz --opt --namespace A110 --charge -1
          :  Hamiltonian                  GFN2-xTB          :
 * total energy  :   -11.1408635 Eh     change       -0.4312994E-11 Eh
 * total energy  :   -11.1500663 Eh     change       -0.9202887E-02 Eh
 * total energy  :   -11.1507723 Eh     change       -0.7059512E-03 Eh
 * total energy  :   -11.1508247 Eh     change       -0.5244067E-04 Eh
 * total energy  :   -11.1508249 Eh     change       -0.1561212E-06 Eh
   *** GEOMETRY OPTIMIZATION CONVERGED AFTER 5 ITERATIONS ***

 final structure:
================
3
 xtb: 6.7.1 (edcfbbe)
N            0.96711933244475       -0.02053886572779       -0.06517279929274
O            0.33714562924571       -0.99218468169999        0.46067348559423
O            2.23779503830954       -0.06763645257222       -0.03969068630149

          :  Hamiltonian                  GFN2-xTB          :
         :: total energy             -11.150824887468 Eh    ::
         :: gradient norm              0.000280868110 Eh/a0 ::
         :: HOMO-LUMO gap              1.812828157608 eV    ::
         :: SCC energy               -11.171385979575 Eh    ::
         :: -> dispersion             -0.000874171728 Eh    ::
         :: repulsion energy           0.020561092106 Eh    ::

    * Orbital Energies and Occupations

         #    Occupation            Energy/Eh            Energy/eV
      -------------------------------------------------------------
         1        2.0000           -0.4548739             -12.3777
         2        2.0000           -0.4386471             -11.9362
         3        2.0000           -0.3533528              -9.6152
         4        2.0000           -0.3055969              -8.3157
         5        2.0000           -0.2964385              -8.0665
         6        2.0000           -0.2769037              -7.5349
         7        2.0000           -0.1869174              -5.0863
         8        2.0000           -0.1665218              -4.5313
         9        2.0000           -0.1025285              -2.7899 (HOMO)
        10                         -0.0359083              -0.9771 (LUMO)
        11                          0.3871138              10.5339
        12                          0.5113424              13.9143
      -------------------------------------------------------------
                  HL-Gap            0.0666202 Eh            1.8128 eV

     #   Z          covCN         q      C6AA      α(0)
     1   7 N        1.844     0.078    20.528     6.715
     2   8 O        0.923    -0.539    24.633     6.656
     3   8 O        0.923    -0.539    24.633     6.656

Wiberg/Mayer (AO) data.
largest (>0.10) Wiberg bond orders for each atom

     #   Z sym  total        # sym  WBO       # sym  WBO       # sym  WBO
 ---------------------------------------------------------------------------
     1   7 N    2.993 --     2 O    1.496     3 O    1.496
     2   8 O    1.822 --     1 N    1.496     3 O    0.326
     3   8 O    1.822 --     1 N    1.496     2 O    0.326
 ---------------------------------------------------------------------------

molecular dipole:
                 x           y           z       tot (Debye)
 q only:       -2.480       1.077      -0.439
   full:       -2.390       0.932      -0.360       6.584

           -------------------------------------------------
          | TOTAL ENERGY              -11.150824887468 Eh   |
          | GRADIENT NORM               0.000280868110 Eh/α |
          | HOMO-LUMO GAP               1.812828157608 eV   |
           -------------------------------------------------

 * finished run on 2024/12/20 at 01:53:33.172
