   * xtb version 6.7.1 (edcfbbe) compiled by 'conda@3ef47c1a292c' on 2024-11-25

   ID    Z sym.   atoms
    1    8 O      1, 3
    2    6 C      2, 4-6
    3    9 F      7-13

          program call               : xtb A111.xyz --opt --namespace A111 --charge -1
          :  Hamiltonian                  GFN2-xTB          :
 * total energy  :   -50.0753054 Eh     change       -0.2533938E-09 Eh
 * total energy  :   -50.0851961 Eh     change       -0.9890665E-02 Eh
 * total energy  :   -50.0889949 Eh     change       -0.3798834E-02 Eh
 * total energy  :   -50.0901082 Eh     change       -0.1113310E-02 Eh
 * total energy  :   -50.0909157 Eh     change       -0.8074343E-03 Eh
 * total energy  :   -50.0912564 Eh     change       -0.3406944E-03 Eh
 * total energy  :   -50.0913645 Eh     change       -0.1081515E-03 Eh
 * total energy  :   -50.0914000 Eh     change       -0.3543933E-04 Eh
 * total energy  :   -50.0914132 Eh     change       -0.1324886E-04 Eh
 * total energy  :   -50.0914334 Eh     change       -0.2021608E-04 Eh
 * total energy  :   -50.0918711 Eh     change       -0.6086374E-05 Eh
 * total energy  :   -50.0918811 Eh     change       -0.9923330E-05 Eh
 * total energy  :   -50.0918758 Eh     change        0.5230732E-05 Eh
 * total energy  :   -50.0918904 Eh     change       -0.1455622E-04 Eh
 * total energy  :   -50.0918939 Eh     change       -0.3477320E-05 Eh
 * total energy  :   -50.0919010 Eh     change       -0.7131312E-05 Eh
 * total energy  :   -50.0919013 Eh     change       -0.2652192E-06 Eh
 * total energy  :   -50.0919089 Eh     change       -0.7598407E-05 Eh
 * total energy  :   -50.0919134 Eh     change       -0.4553309E-05 Eh
   *** GEOMETRY OPTIMIZATION CONVERGED AFTER 41 ITERATIONS ***

 final structure:
================
13
 xtb: 6.7.1 (edcfbbe)
O            1.20073410306448       -0.15609596443642       -0.08738450194170
C            2.38636469555871        0.06041060265206       -0.19904454495815
O            3.11827322780596        0.67186190499336       -0.93446680068509
C            3.23996754106049       -0.72676550127132        1.07306090984378
C            2.82522000067491       -0.20028536808874        2.44798600977606
C            1.32739597613948       -0.37101639320244        2.80268382420667
F            0.78491651396111       -1.49957978093468        2.37170554839082
F            1.19364941054745       -0.39277190250693        4.14945911755094
F            0.58958536608431        0.65124340402382        2.39174427841238
F            3.53181619178127       -0.79144456233631        3.46388730090611
F            3.11083925628745        1.11952082566722        2.55166263250045
F            3.01352331163301       -2.07982749213478        1.05463067780908
F            4.59760440540137       -0.59631977242480        0.97550554818867

          :  Hamiltonian                  GFN2-xTB          :
         :: total energy             -50.091913404989 Eh    ::
         :: gradient norm              0.000745338089 Eh/a0 ::
         :: HOMO-LUMO gap              5.503974603346 eV    ::
         :: SCC energy               -50.262964399123 Eh    ::
         :: -> dispersion             -0.011354525298 Eh    ::
         :: repulsion energy           0.171050994134 Eh    ::

    * Orbital Energies and Occupations

         #    Occupation            Energy/Eh            Energy/eV
      -------------------------------------------------------------
         1        2.0000           -0.7921115             -21.5545
       ...           ...                  ...                  ...
        27        2.0000           -0.4276092             -11.6358
        28        2.0000           -0.4250896             -11.5673
        29        2.0000           -0.4238810             -11.5344
        30        2.0000           -0.4042652             -11.0006
        31        2.0000           -0.3963836             -10.7861
        32        2.0000           -0.3878837             -10.5549
        33        2.0000           -0.3844057             -10.4602
        34        2.0000           -0.3779147             -10.2836
        35        2.0000           -0.3723354             -10.1318
        36        2.0000           -0.3574685              -9.7272
        37        2.0000           -0.2852609              -7.7623
        38        2.0000           -0.2754006              -7.4940
        39        2.0000           -0.2492391              -6.7821 (HOMO)
        40                         -0.0469718              -1.2782 (LUMO)
        41                          0.0454365               1.2364
        42                          0.0669823               1.8227
        43                          0.0895969               2.4381
        44                          0.1051576               2.8615
        45                          0.1457903               3.9672
        46                          0.1930076               5.2520
        47                          0.2225579               6.0561
        48                          0.2481137               6.7515
        49                          0.2686022               7.3090
        50                          0.2956030               8.0438
       ...                                ...                  ...
        52                          0.9686214              26.3575
      -------------------------------------------------------------
                  HL-Gap            0.2022673 Eh            5.5040 eV

     #   Z          covCN         q      C6AA      α(0)
     1   8 O        0.856    -0.506    23.929     6.559
     2   6 C        2.623     0.379    20.592     7.422
     3   8 O        0.856    -0.471    23.153     6.451
     4   6 C        3.455     0.223    19.102     6.596
     5   6 C        3.520     0.315    16.948     6.068
     6   6 C        3.330     0.487    17.355     6.612
     7   9 F        0.791    -0.168    10.911     3.902
     8   9 F        0.793    -0.204    11.281     3.967
     9   9 F        0.791    -0.169    10.919     3.903
    10   9 F        0.788    -0.214    11.380     3.985
    11   9 F        0.789    -0.203    11.268     3.965
    12   9 F        0.787    -0.242    11.675     4.036
    13   9 F        0.787    -0.227    11.519     4.009

Wiberg/Mayer (AO) data.
largest (>0.10) Wiberg bond orders for each atom

     #   Z sym  total        # sym  WBO       # sym  WBO       # sym  WBO
 ---------------------------------------------------------------------------
     1   8 O    1.976 --     2 C    1.612     3 O    0.261
     2   6 C    3.948 --     3 O    1.649     1 O    1.612     4 C    0.641
     3   8 O    2.015 --     2 C    1.649     1 O    0.261
     4   6 C    3.671 --    13 F    0.942     5 C    0.936    12 F    0.932
                             2 C    0.641
     5   6 C    3.855 --    11 F    0.957     4 C    0.936    10 F    0.935
                             6 C    0.905
     6   6 C    3.858 --     7 F    0.982     9 F    0.979     8 F    0.937
                             5 C    0.905
     7   9 F    1.111 --     6 C    0.982
     8   9 F    1.063 --     6 C    0.937
     9   9 F    1.109 --     6 C    0.979
    10   9 F    1.049 --     5 C    0.935
    11   9 F    1.062 --     5 C    0.957
    12   9 F    1.029 --     4 C    0.932
    13   9 F    1.046 --     4 C    0.942
 ---------------------------------------------------------------------------

molecular dipole:
                 x           y           z       tot (Debye)
 q only:       -4.814       0.343      -1.136
   full:       -4.739       0.246      -0.932      12.292

           -------------------------------------------------
          | TOTAL ENERGY              -50.091913404989 Eh   |
          | GRADIENT NORM               0.000745338089 Eh/α |
          | HOMO-LUMO GAP               5.503974603346 eV   |
           -------------------------------------------------

 * finished run on 2024/12/20 at 01:53:33.524
