   * xtb version 6.7.1 (edcfbbe) compiled by 'conda@3ef47c1a292c' on 2024-11-25

   ID    Z sym.   atoms
    1    9 F      1, 8, 9
    2    6 C      2, 3, 6, 7
    3    7 N      4, 5
    4    1 H      10, 11

          program call               : xtb A112.xyz --opt --namespace A112 --charge -1
          :  Hamiltonian                  GFN2-xTB          :
 * total energy  :   -29.8438489 Eh     change       -0.1104539E-10 Eh
 * total energy  :   -29.8462643 Eh     change       -0.2415406E-02 Eh
 * total energy  :   -29.8466665 Eh     change       -0.4022300E-03 Eh
 * total energy  :   -29.8466967 Eh     change       -0.3015691E-04 Eh
 * total energy  :   -29.8467124 Eh     change       -0.1568139E-04 Eh
 * total energy  :   -29.8467162 Eh     change       -0.3881900E-05 Eh
   *** GEOMETRY OPTIMIZATION CONVERGED AFTER 6 ITERATIONS ***

 final structure:
================
11
 xtb: 6.7.1 (edcfbbe)
F            0.93259364248641       -0.02140796482358       -0.19090616346754
C            2.26845315616377        0.13241547005186       -0.01233600557273
C            2.78417720229813        1.48032748217390       -0.26108509222861
N            2.14524778367536        2.58492126723896        0.16840412874890
N            2.85885518699432        3.63710067411262       -0.19415478667549
C            3.94750341305712        3.21741312052810       -0.84718179966678
C            3.96514424903415        1.83197125077179       -0.92542163361442
F            2.48664056041476       -0.34690841971435        1.25379054504945
F            2.83243184291368       -0.81542649293260       -0.81309297574841
H            4.66897045011333        3.92185098318925       -1.23175097890162
H            4.68856251284897        1.17875262940404       -1.38062523792274

          :  Hamiltonian                  GFN2-xTB          :
         :: total energy             -29.846716247906 Eh    ::
         :: gradient norm              0.000629745598 Eh/a0 ::
         :: HOMO-LUMO gap              4.317235264452 eV    ::
         :: SCC energy               -30.060965873798 Eh    ::
         :: -> dispersion             -0.008873631751 Eh    ::
         :: repulsion energy           0.214249625892 Eh    ::

    * Orbital Energies and Occupations

         #    Occupation            Energy/Eh            Energy/eV
      -------------------------------------------------------------
         1        2.0000           -0.7163448             -19.4927
       ...           ...                  ...                  ...
        13        2.0000           -0.3758921             -10.2285
        14        2.0000           -0.3744173             -10.1884
        15        2.0000           -0.3721727             -10.1273
        16        2.0000           -0.3712018             -10.1009
        17        2.0000           -0.3552544              -9.6670
        18        2.0000           -0.3380058              -9.1976
        19        2.0000           -0.3187961              -8.6749
        20        2.0000           -0.2993006              -8.1444
        21        2.0000           -0.2857811              -7.7765
        22        2.0000           -0.2101210              -5.7177
        23        2.0000           -0.2066568              -5.6234
        24        2.0000           -0.2056148              -5.5951
        25        2.0000           -0.1748622              -4.7582 (HOMO)
        26                         -0.0162067              -0.4410 (LUMO)
        27                          0.0169412               0.4610
        28                          0.1641414               4.4665
        29                          0.2083413               5.6693
        30                          0.2241545               6.0996
        31                          0.2978646               8.1053
        32                          0.3207468               8.7280
        33                          0.3529047               9.6030
        34                          0.4197498              11.4220
        35                          0.4814623              13.1013
        36                          0.5802481              15.7894
       ...                                ...                  ...
        38                          0.8227071              22.3870
      -------------------------------------------------------------
                  HL-Gap            0.1586555 Eh            4.3172 eV

     #   Z          covCN         q      C6AA      α(0)
     1   9 F        0.790    -0.237    11.620     4.027
     2   6 C        3.332     0.472    17.530     6.640
     3   6 C        3.163    -0.013    27.987     8.647
     4   7 N        2.044    -0.269    27.736     7.812
     5   7 N        2.053    -0.265    27.613     7.795
     6   6 C        3.103     0.008    27.705     8.625
     7   6 C        2.981    -0.098    30.460     9.053
     8   9 F        0.790    -0.252    11.791     4.056
     9   9 F        0.790    -0.249    11.751     4.049
    10   1 H        0.926    -0.052     4.145     3.184
    11   1 H        0.926    -0.046     3.988     3.123

Wiberg/Mayer (AO) data.
largest (>0.10) Wiberg bond orders for each atom

     #   Z sym  total        # sym  WBO       # sym  WBO       # sym  WBO
 ---------------------------------------------------------------------------
     1   9 F    1.046 --     2 C    0.927
     2   6 C    3.771 --     3 C    0.971     1 F    0.927     9 F    0.918
                             8 F    0.903
     3   6 C    3.917 --     4 N    1.382     7 C    1.361     2 C    0.971
                             5 N    0.104
     4   7 N    2.979 --     3 C    1.382     5 N    1.354
     5   7 N    2.986 --     6 C    1.432     4 N    1.354     3 C    0.104
     6   6 C    3.972 --     7 C    1.437     5 N    1.432    10 H    0.967
     7   6 C    3.965 --     6 C    1.437     3 C    1.361    11 H    0.973
     8   9 F    1.028 --     2 C    0.903
     9   9 F    1.032 --     2 C    0.918
    10   1 H    0.997 --     6 C    0.967
    11   1 H    0.998 --     7 C    0.973
 ---------------------------------------------------------------------------

molecular dipole:
                 x           y           z       tot (Debye)
 q only:       -5.038      -3.271       0.275
   full:       -4.524      -3.752      -0.045      14.939

           -------------------------------------------------
          | TOTAL ENERGY              -29.846716247906 Eh   |
          | GRADIENT NORM               0.000629745598 Eh/α |
          | HOMO-LUMO GAP               4.317235264452 eV   |
           -------------------------------------------------

 * finished run on 2024/12/20 at 01:53:33.701
