   * xtb version 6.7.1 (edcfbbe) compiled by 'conda@3ef47c1a292c' on 2024-11-25

   ID    Z sym.   atoms
    1    6 C      1, 3-6, 10-15, 17-22, 24-28, 32-37, 39-43, 47-52, 54-58
    2   14 Si     2, 23, 38, 53
    3    9 F      7-9, 29-31, 44-46, 59-61
    4    5 B      16
    5    1 H      62-117

          program call               : xtb A113.xyz --opt --namespace A113 --charge -1
          :  Hamiltonian                  GFN2-xTB          :
 * total energy  :  -185.9482271 Eh     change       -0.9678047E-08 Eh
 * total energy  :  -186.6173878 Eh     change       -0.6691607E+00 Eh
 * total energy  :  -187.1009656 Eh     change       -0.4835778E+00 Eh
 * total energy  :  -187.3636821 Eh     change       -0.2627165E+00 Eh
 * total energy  :  -187.5125198 Eh     change       -0.1488377E+00 Eh
 * total energy  :  -187.6095540 Eh     change       -0.9703414E-01 Eh
 * total energy  :  -187.6793804 Eh     change       -0.6982648E-01 Eh
 * total energy  :  -187.7340565 Eh     change       -0.5467609E-01 Eh
 * total energy  :  -187.7781469 Eh     change       -0.4409039E-01 Eh
 * total energy  :  -187.8120817 Eh     change       -0.3393483E-01 Eh
 * total energy  :  -187.9281746 Eh     change       -0.8342387E-05 Eh
 * total energy  :  -187.9281828 Eh     change       -0.8175408E-05 Eh
 * total energy  :  -187.9281909 Eh     change       -0.8089524E-05 Eh
 * total energy  :  -187.9281980 Eh     change       -0.7110651E-05 Eh
 * total energy  :  -187.9282050 Eh     change       -0.7025696E-05 Eh
 * total energy  :  -187.9282128 Eh     change       -0.7806343E-05 Eh
 * total energy  :  -187.9282212 Eh     change       -0.8390270E-05 Eh
 * total energy  :  -187.9282276 Eh     change       -0.6387821E-05 Eh
 * total energy  :  -187.9282323 Eh     change       -0.4643066E-05 Eh
   *** GEOMETRY OPTIMIZATION CONVERGED AFTER 115 ITERATIONS ***

 final structure:
================
117
 xtb: 6.7.1 (edcfbbe)
C            1.25229351329298        0.18689144224033        0.45646289346984
Si           0.67979932326353       -1.16156764015189        1.68226480620491
C            1.35871676728020       -0.69130456301511        3.41011325681690
C           -1.23891907559819       -1.02018635318381        1.88228360474983
C           -2.01619682184385       -0.68085645873243        0.61540267069960
C           -1.99242936922513       -1.79560957086792       -0.40650813040947
F           -2.33403774200657       -2.98355220218619        0.10239223229301
F           -2.88245997757327       -1.54926532498864       -1.39992037773741
F           -0.81144998623976       -1.94467008149436       -1.01324781624573
C            1.20009479278543       -2.90061979649032        1.20461999252280
C            0.79050294281716       -3.99388236591938        1.96959485224115
C            1.18635888165508       -5.27885405322745        1.65653905121284
C            2.01249656703806       -5.55434702215518        0.56796790485949
C            2.41698652440167       -4.45337511797718       -0.19082262124192
C            2.02616431843198       -3.16495022951076        0.11188145233980
B            2.49042724113585       -7.05125258744891        0.15712608286996
C            2.29714272779915       -8.07212570815300        1.40866701130104
C            3.33486266380073       -8.50250778975964        2.23344980603699
C            3.13018773437082       -9.38748349872283        3.27423714599546
C            1.86230926639552       -9.89672058844769        3.55364612055178
C            0.81194986558707       -9.46118928906400        2.74231467000316
C            1.02800450201364       -8.57669809631280        1.70692521658621
Si           1.57716295610013      -11.17643511200173        4.89594692176574
C            1.30215993512219      -12.91135227267230        4.13088649352562
C            3.01867828388324      -11.32052009146221        6.14207214141710
C           -0.04118324544564      -10.84643544677384        5.89925842472912
C            0.09496276907773       -9.89717467016511        7.08417230660134
C            0.39847620152187       -8.47559862626819        6.66746267693324
F           -0.42403698031022       -8.01471847517811        5.72035620985387
F            0.25779611910024       -7.62942628093281        7.71960974856713
F            1.64947391034405       -8.29768845337593        6.23277337388109
C            1.60406314124296       -7.61303700547106       -1.08520627491425
C            1.56888130666619       -8.98498813981215       -1.35245349788507
C            0.86796350971155       -9.50939324800179       -2.41696666708081
C            0.15356986407161       -8.68773650413256       -3.29327686782465
C            0.17318457068500       -7.31838708775780       -3.02791439745681
C            0.87651241651883       -6.80341117897146       -1.95509784974212
Si          -0.76327766158573       -9.45926359089671       -4.73901648200819
C            0.30187000162464      -10.82950992499527       -5.55364539298781
C           -2.39998036149949      -10.31341772225685       -4.22900446130117
C           -1.08461958249845       -8.20734508891867       -6.17728789789640
C           -2.53692658431756       -7.79846508254322       -6.40540290713154
C           -3.01148465819031       -6.74990519177920       -5.42730435816683
F           -2.27567450445955       -5.63045080432198       -5.47011694939907
F           -4.27987070492757       -6.36445707214495       -5.71254153955149
F           -3.03432426447800       -7.15378608035881       -4.15478058131610
C            4.05923318690513       -6.99861188822509       -0.26891767056426
C            4.59078315596583       -7.70827897567454       -1.34527144419320
C            5.93733635171431       -7.68664771134857       -1.64573238409783
C            6.84394743092250       -6.94861759231457       -0.88190775064877
C            6.32052874749089       -6.22182395214635        0.18808446919173
C            4.97066454777973       -6.24676233554022        0.47659465776312
Si           8.67261455759982       -7.04440668918753       -1.29407562116550
C            9.33506383031332       -8.80547400836221       -0.92641745213001
C            9.03964605990561       -6.69727069879280       -3.14046351029805
C            9.79551132704510       -5.88911223916706       -0.22974246813391
C           10.13229747931280       -4.53670662441994       -0.84738789712463
C            8.95761470324365       -3.58703330640605       -0.85912745116781
F            8.44408668915987       -3.37777222144901        0.36044047686285
F            9.33364803007454       -2.36386423241937       -1.30967062231906
F            7.95370482517266       -3.96979189237138       -1.65119178984490
H            0.85350138847646        1.16452452620296        0.71519020392480
H            0.94878981932706       -0.04405353024956       -0.55889814260189
H            2.33452779883853        0.26510615865672        0.46229216309865
H            1.06977492040710        0.31292263339424        3.70787105361425
H            0.99668300156406       -1.37842573090167        4.16807234493979
H            2.44254700332482       -0.74067747472198        3.42117171263366
H           -1.62445444443568       -1.95571684057799        2.28604393812198
H           -1.46637858896238       -0.24836858360186        2.61819403749222
H           -3.07180264866023       -0.49998396492533        0.84181782329160
H           -1.60774158409263        0.20759545000224        0.13160282192224
H            0.15125881628804       -3.82786171218309        2.82912627059885
H            0.84864207122146       -6.09334133266023        2.28272145935631
H            3.06632652147563       -4.61759167581024       -1.04114469443294
H            2.36259922635431       -2.34309435566155       -0.50641877129841
H            4.33774403964825       -8.14143985180560        2.04860312507705
H            3.96841509642349       -9.69787414841854        3.88524438118408
H           -0.18996086139369       -9.83068247836680        2.92772815128100
H            0.18957100538879       -8.27146650451617        1.09468407987495
H            2.15294051721626      -13.19609796508210        3.52042535201177
H            1.16372911018110      -13.68055653444295        4.88562755875628
H            0.42790657020438      -12.91600640728979        3.48763196971885
H            3.29796730195303      -10.35003798924902        6.53830208352652
H            2.76949114062035      -11.96980172457368        6.97755181886407
H            3.89505162465154      -11.73806348355668        5.65731652967601
H           -0.80678768641214      -10.45788976021696        5.22915735542839
H           -0.42050571451252      -11.79323946952976        6.28460817445439
H           -0.83581782580143       -9.85404322783473        7.65868183045053
H            0.89926209254594      -10.21507930295103        7.74922519015253
H            2.10966699569603       -9.65758203046383       -0.69866598084322
H            0.87175471168303      -10.57988234100769       -2.58422689125006
H           -0.37225079591539       -6.64130296541915       -3.67193065880638
H            0.85740593097961       -5.73546470131261       -1.78688573110093
H            0.50829150287241      -11.62544297927728       -4.84612450790095
H           -0.19217667105617      -11.27707058553777       -6.41204049979074
H            1.25792874190853      -10.43800086188060       -5.88712087624516
H           -3.09497255121414       -9.61625254378668       -3.77407645521967
H           -2.89649849431120      -10.79281355900031       -5.06949290838812
H           -2.19266939951207      -11.08409983909573       -3.49285978258190
H           -0.48708278637166       -7.30968701520685       -6.02612874207472
H           -0.72662482424822       -8.65634127246547       -7.10351774036092
H           -2.66751615746881       -7.35501854837488       -7.39768626037887
H           -3.20838994859936       -8.65308815600816       -6.31731812676307
H            3.92864743320506       -8.29580195432096       -1.96696312005832
H            6.30563307668686       -8.25722445862336       -2.49033391562739
H            6.98157676381492       -5.62812852271691        0.80687708207352
H            4.60364861189013       -5.66420716086452        1.31155974459116
H            8.72616755602439       -9.54762624709994       -1.43195441785286
H           10.36145225669643       -8.93989363763369       -1.25703850506024
H            9.29599416153577       -9.02678100253403        0.13576778551230
H            8.63609758080456       -5.74059628449883       -3.45530515300551
H           10.10496749705593       -6.70808297317096       -3.35832497336690
H            8.57578584650056       -7.45894591114122       -3.75868129491615
H            9.34184157124395       -5.72683303330765        0.74663699616246
H           10.73890501061573       -6.40304113590642       -0.04521706562310
H           10.92048141271364       -4.03134294000572       -0.27996961766139
H           10.46621323547901       -4.65022764450962       -1.87942374523727

          :  Hamiltonian                  GFN2-xTB          :
         :: total energy            -187.928232269996 Eh    ::
         :: gradient norm              0.000363140313 Eh/a0 ::
         :: HOMO-LUMO gap              3.152578701565 eV    ::
         :: SCC energy              -190.158884461960 Eh    ::
         :: -> dispersion             -0.143644856125 Eh    ::
         :: repulsion energy           2.230652191964 Eh    ::

    * Orbital Energies and Occupations

         #    Occupation            Energy/Eh            Energy/eV
      -------------------------------------------------------------
         1        2.0000           -0.8028430             -21.8465
       ...           ...                  ...                  ...
       156        2.0000           -0.2914551              -7.9309
       157        2.0000           -0.2882686              -7.8442
       158        2.0000           -0.2823970              -7.6844
       159        2.0000           -0.2808205              -7.6415
       160        2.0000           -0.2798313              -7.6146
       161        2.0000           -0.2767234              -7.5300
       162        2.0000           -0.2763609              -7.5202
       163        2.0000           -0.2738184              -7.4510
       164        2.0000           -0.2729293              -7.4268
       165        2.0000           -0.2698686              -7.3435
       166        2.0000           -0.2431269              -6.6158
       167        2.0000           -0.2412327              -6.5643
       168        2.0000           -0.2405415              -6.5455 (HOMO)
       169                         -0.1246864              -3.3929 (LUMO)
       170                         -0.1221639              -3.3242
       171                         -0.1209709              -3.2918
       172                         -0.1165758              -3.1722
       173                         -0.1000301              -2.7220
       174                         -0.0984566              -2.6791
       175                         -0.0952697              -2.5924
       176                         -0.0919967              -2.5034
       177                         -0.0641113              -1.7446
       178                         -0.0632653              -1.7215
       179                         -0.0624056              -1.6981
       ...                                ...                  ...
       320                          0.7905713              21.5125
      -------------------------------------------------------------
                  HL-Gap            0.1158551 Eh            3.1526 eV

     #   Z          covCN         q      C6AA      α(0)
     1   6 C        3.648    -0.204    24.918     7.172
     2  14 Si       3.529     0.485    99.982    19.294
     3   6 C        3.647    -0.208    24.998     7.184
     4   6 C        3.695    -0.169    23.991     7.007
     5   6 C        3.809    -0.080    22.021     6.680
     6   6 C        3.330     0.482    17.421     6.623
     7   9 F        0.791    -0.203    11.262     3.964
     8   9 F        0.791    -0.227    11.520     4.009
     9   9 F        0.791    -0.202    11.254     3.963
    10   6 C        2.864    -0.104    30.628     9.072
    11   6 C        2.936    -0.038    28.937     8.822
    12   6 C        2.924    -0.039    28.959     8.825
    13   6 C        2.875    -0.045    29.119     8.846
    14   6 C        2.925    -0.034    28.857     8.810
    15   6 C        2.931    -0.038    28.937     8.822
    16   5 B        3.570     0.131    19.637     7.302
    17   6 C        2.874    -0.044    29.100     8.843
    18   6 C        2.924    -0.040    28.988     8.829
    19   6 C        2.933    -0.039    28.962     8.826
    20   6 C        2.864    -0.105    30.647     9.074
    21   6 C        2.934    -0.038    28.950     8.824
    22   6 C        2.925    -0.034    28.837     8.806
    23  14 Si       3.529     0.484   100.001    19.295
    24   6 C        3.647    -0.208    25.005     7.185
    25   6 C        3.648    -0.204    24.918     7.172
    26   6 C        3.696    -0.169    23.981     7.005
    27   6 C        3.809    -0.080    22.019     6.680
    28   6 C        3.330     0.482    17.423     6.624
    29   9 F        0.791    -0.202    11.254     3.963
    30   9 F        0.791    -0.229    11.535     4.012
    31   9 F        0.791    -0.202    11.259     3.964
    32   6 C        2.874    -0.045    29.112     8.845
    33   6 C        2.925    -0.036    28.886     8.814
    34   6 C        2.939    -0.042    29.032     8.837
    35   6 C        2.863    -0.106    30.674     9.078
    36   6 C        2.929    -0.036    28.904     8.817
    37   6 C        2.924    -0.038    28.953     8.824
    38  14 Si       3.527     0.484   100.062    19.304
    39   6 C        3.647    -0.207    24.981     7.182
    40   6 C        3.647    -0.206    24.961     7.179
    41   6 C        3.695    -0.171    24.016     7.011
    42   6 C        3.809    -0.080    22.014     6.679
    43   6 C        3.330     0.484    17.401     6.619
    44   9 F        0.791    -0.207    11.312     3.973
    45   9 F        0.791    -0.229    11.535     4.012
    46   9 F        0.791    -0.201    11.247     3.962
    47   6 C        2.874    -0.045    29.102     8.843
    48   6 C        2.924    -0.040    28.987     8.829
    49   6 C        2.941    -0.040    28.987     8.830
    50   6 C        2.864    -0.104    30.631     9.072
    51   6 C        2.928    -0.037    28.926     8.820
    52   6 C        2.925    -0.034    28.848     8.808
    53  14 Si       3.529     0.484    99.972    19.291
    54   6 C        3.647    -0.208    25.012     7.186
    55   6 C        3.647    -0.205    24.936     7.175
    56   6 C        3.696    -0.169    23.984     7.006
    57   6 C        3.810    -0.080    22.015     6.679
    58   6 C        3.330     0.483    17.411     6.621
    59   9 F        0.791    -0.207    11.302     3.971
    60   9 F        0.791    -0.229    11.536     4.012
    61   9 F        0.791    -0.200    11.233     3.959
    62   1 H        0.925     0.018     2.758     2.597
    63   1 H        0.925     0.030     2.585     2.514
    64   1 H        0.925     0.026     2.639     2.540
    65   1 H        0.925     0.021     2.711     2.575
    66   1 H        0.925     0.026     2.649     2.545
    67   1 H        0.925     0.025     2.660     2.550
    68   1 H        0.925     0.033     2.547     2.496
    69   1 H        0.924     0.027     2.626     2.534
    70   1 H        0.924     0.055     2.258     2.350
    71   1 H        0.924     0.059     2.209     2.324
    72   1 H        0.925    -0.007     3.185     2.791
    73   1 H        0.925     0.018     2.759     2.598
    74   1 H        0.925     0.016     2.800     2.617
    75   1 H        0.925     0.002     3.025     2.720
    76   1 H        0.925     0.015     2.812     2.622
    77   1 H        0.925    -0.003     3.113     2.759
    78   1 H        0.925    -0.008     3.198     2.797
    79   1 H        0.925     0.018     2.760     2.598
    80   1 H        0.925     0.024     2.669     2.555
    81   1 H        0.925     0.023     2.693     2.566
    82   1 H        0.925     0.026     2.644     2.543
    83   1 H        0.925     0.031     2.575     2.509
    84   1 H        0.925     0.019     2.753     2.595
    85   1 H        0.925     0.024     2.670     2.556
    86   1 H        0.925     0.031     2.570     2.507
    87   1 H        0.925     0.027     2.631     2.537
    88   1 H        0.924     0.055     2.254     2.348
    89   1 H        0.924     0.059     2.207     2.323
    90   1 H        0.925     0.012     2.859     2.644
    91   1 H        0.925    -0.012     3.268     2.827
    92   1 H        0.925     0.002     3.026     2.720
    93   1 H        0.925     0.023     2.693     2.566
    94   1 H        0.925     0.021     2.718     2.578
    95   1 H        0.925     0.020     2.736     2.587
    96   1 H        0.925     0.024     2.671     2.556
    97   1 H        0.925     0.036     2.501     2.473
    98   1 H        0.925     0.021     2.711     2.575
    99   1 H        0.925     0.030     2.592     2.517
   100   1 H        0.925     0.033     2.545     2.495
   101   1 H        0.925     0.027     2.624     2.533
   102   1 H        0.924     0.055     2.261     2.352
   103   1 H        0.924     0.060     2.205     2.322
   104   1 H        0.925     0.015     2.806     2.620
   105   1 H        0.925    -0.011     3.264     2.825
   106   1 H        0.925    -0.002     3.100     2.753
   107   1 H        0.925     0.018     2.769     2.602
   108   1 H        0.925     0.025     2.663     2.552
   109   1 H        0.925     0.023     2.691     2.565
   110   1 H        0.925     0.026     2.648     2.545
   111   1 H        0.925     0.033     2.548     2.496
   112   1 H        0.925     0.020     2.727     2.582
   113   1 H        0.925     0.027     2.629     2.536
   114   1 H        0.925     0.029     2.604     2.524
   115   1 H        0.925     0.026     2.645     2.544
   116   1 H        0.924     0.054     2.265     2.354
   117   1 H        0.924     0.060     2.198     2.318

Wiberg/Mayer (AO) data.
largest (>0.10) Wiberg bond orders for each atom

     #   Z sym  total        # sym  WBO       # sym  WBO       # sym  WBO
 ---------------------------------------------------------------------------
     1   6 C    3.977 --    64 H    0.993    63 H    0.992    62 H    0.990
                             2 Si   0.880
     2  14 Si   3.587 --    10 C    0.919     1 C    0.880     3 C    0.877
                             4 C    0.819
     3   6 C    3.973 --    67 H    0.994    66 H    0.992    65 H    0.990
                             2 Si   0.877
     4   6 C    3.947 --     5 C    1.018    68 H    0.988    69 H    0.985
                             2 Si   0.819
     5   6 C    3.977 --     4 C    1.018    71 H    0.973    70 H    0.969
                             6 C    0.963
     6   6 C    3.820 --     5 C    0.963     7 F    0.956     9 F    0.955
                             8 F    0.926
     7   9 F    1.079 --     6 C    0.956
     8   9 F    1.047 --     6 C    0.926
     9   9 F    1.084 --     6 C    0.955
    10   6 C    3.983 --    11 C    1.402    15 C    1.401     2 Si   0.919
                            13 C    0.108
    11   6 C    3.990 --    12 C    1.464    10 C    1.402    72 H    0.972
    12   6 C    3.989 --    11 C    1.464    13 C    1.400    73 H    0.965
    13   6 C    3.905 --    12 C    1.400    14 C    1.390    16 B    0.889
                            10 C    0.108
    14   6 C    3.989 --    15 C    1.468    13 C    1.390    74 H    0.968
    15   6 C    3.990 --    14 C    1.468    10 C    1.401    75 H    0.972
    16   5 B    3.660 --    13 C    0.889    32 C    0.886    47 C    0.885
                            17 C    0.885
    17   6 C    3.900 --    18 C    1.402    22 C    1.382    16 B    0.885
                            20 C    0.107
    18   6 C    3.989 --    19 C    1.461    17 C    1.402    76 H    0.964
    19   6 C    3.991 --    18 C    1.461    20 C    1.405    77 H    0.972
    20   6 C    3.982 --    19 C    1.405    21 C    1.395    23 Si   0.921
                            17 C    0.107
    21   6 C    3.990 --    22 C    1.473    20 C    1.395    78 H    0.971
    22   6 C    3.989 --    21 C    1.473    17 C    1.382    79 H    0.968
    23  14 Si   3.588 --    20 C    0.921    25 C    0.880    24 C    0.878
                            26 C    0.818
    24   6 C    3.973 --    80 H    0.994    82 H    0.991    81 H    0.989
                            23 Si   0.878
    25   6 C    3.976 --    85 H    0.993    83 H    0.992    84 H    0.990
                            23 Si   0.880
    26   6 C    3.947 --    27 C    1.018    86 H    0.988    87 H    0.985
                            23 Si   0.818
    27   6 C    3.977 --    26 C    1.018    89 H    0.973    88 H    0.969
                            28 C    0.963
    28   6 C    3.820 --    27 C    0.963    29 F    0.956    31 F    0.955
                            30 F    0.925
    29   9 F    1.080 --    28 C    0.956
    30   9 F    1.045 --    28 C    0.925
    31   9 F    1.084 --    28 C    0.955
    32   6 C    3.900 --    37 C    1.404    33 C    1.380    16 B    0.886
                            35 C    0.107
    33   6 C    3.989 --    34 C    1.476    32 C    1.380    90 H    0.967
    34   6 C    3.989 --    33 C    1.476    35 C    1.393    91 H    0.973
    35   6 C    3.981 --    36 C    1.406    34 C    1.393    38 Si   0.921
                            32 C    0.107
    36   6 C    3.991 --    37 C    1.459    35 C    1.406    92 H    0.971
    37   6 C    3.989 --    36 C    1.459    32 C    1.404    93 H    0.965
    38  14 Si   3.586 --    35 C    0.921    40 C    0.885    39 C    0.877
                            41 C    0.815
    39   6 C    3.973 --    94 H    0.995    96 H    0.992    95 H    0.990
                            38 Si   0.877
    40   6 C    3.975 --    99 H    0.990    97 H    0.989    98 H    0.987
                            38 Si   0.885
    41   6 C    3.946 --    42 C    1.017   100 H    0.988   101 H    0.988
                            38 Si   0.815
    42   6 C    3.976 --    41 C    1.017   103 H    0.972   102 H    0.969
                            43 C    0.964
    43   6 C    3.818 --    42 C    0.964    46 F    0.957    44 F    0.950
                            45 F    0.926
    44   9 F    1.073 --    43 C    0.950
    45   9 F    1.046 --    43 C    0.926
    46   9 F    1.084 --    43 C    0.957
    47   6 C    3.899 --    48 C    1.396    52 C    1.388    16 B    0.885
                            50 C    0.107
    48   6 C    3.989 --    49 C    1.468    47 C    1.396   104 H    0.964
    49   6 C    3.990 --    48 C    1.468    50 C    1.399   105 H    0.973
    50   6 C    3.982 --    51 C    1.400    49 C    1.399    53 Si   0.920
                            47 C    0.107
    51   6 C    3.990 --    52 C    1.467    50 C    1.400   106 H    0.970
    52   6 C    3.989 --    51 C    1.467    47 C    1.388   107 H    0.968
    53  14 Si   3.586 --    50 C    0.920    55 C    0.883    54 C    0.879
                            56 C    0.814
    54   6 C    3.973 --   108 H    0.994   110 H    0.990   109 H    0.989
                            53 Si   0.879
    55   6 C    3.975 --   113 H    0.992   111 H    0.990   112 H    0.988
                            53 Si   0.883
    56   6 C    3.947 --    57 C    1.018   114 H    0.988   115 H    0.987
                            53 Si   0.814
    57   6 C    3.976 --    56 C    1.018   117 H    0.972   116 H    0.969
                            58 C    0.964
    58   6 C    3.819 --    57 C    0.964    61 F    0.958    59 F    0.951
                            60 F    0.925
    59   9 F    1.074 --    58 C    0.951
    60   9 F    1.046 --    58 C    0.925
    61   9 F    1.087 --    58 C    0.958
    62   1 H    0.999 --     1 C    0.990
    63   1 H    0.999 --     1 C    0.992
    64   1 H    0.999 --     1 C    0.993
    65   1 H    0.999 --     3 C    0.990
    66   1 H    0.999 --     3 C    0.992
    67   1 H    0.999 --     3 C    0.994
    68   1 H    0.999 --     4 C    0.988
    69   1 H    0.999 --     4 C    0.985
    70   1 H    0.997 --     5 C    0.969
    71   1 H    0.996 --     5 C    0.973
    72   1 H    1.000 --    11 C    0.972
    73   1 H    0.999 --    12 C    0.965
    74   1 H    0.999 --    14 C    0.968
    75   1 H    0.999 --    15 C    0.972
    76   1 H    0.999 --    18 C    0.964
    77   1 H    1.000 --    19 C    0.972
    78   1 H    0.999 --    21 C    0.971
    79   1 H    0.999 --    22 C    0.968
    80   1 H    0.999 --    24 C    0.994
    81   1 H    0.999 --    24 C    0.989
    82   1 H    0.999 --    24 C    0.991
    83   1 H    0.999 --    25 C    0.992
    84   1 H    0.999 --    25 C    0.990
    85   1 H    0.999 --    25 C    0.993
    86   1 H    0.999 --    26 C    0.988
    87   1 H    0.999 --    26 C    0.985
    88   1 H    0.997 --    27 C    0.969
    89   1 H    0.996 --    27 C    0.973
    90   1 H    0.999 --    33 C    0.967
    91   1 H    0.999 --    34 C    0.973
    92   1 H    1.000 --    36 C    0.971
    93   1 H    0.999 --    37 C    0.965
    94   1 H    0.999 --    39 C    0.995
    95   1 H    0.999 --    39 C    0.990
    96   1 H    0.999 --    39 C    0.992
    97   1 H    0.999 --    40 C    0.989
    98   1 H    0.999 --    40 C    0.987
    99   1 H    0.999 --    40 C    0.990
   100   1 H    0.999 --    41 C    0.988
   101   1 H    0.999 --    41 C    0.988
   102   1 H    0.997 --    42 C    0.969
   103   1 H    0.996 --    42 C    0.972
   104   1 H    0.999 --    48 C    0.964
   105   1 H    0.999 --    49 C    0.973
   106   1 H    0.999 --    51 C    0.970
   107   1 H    0.999 --    52 C    0.968
   108   1 H    0.999 --    54 C    0.994
   109   1 H    0.999 --    54 C    0.989
   110   1 H    0.999 --    54 C    0.990
   111   1 H    0.999 --    55 C    0.990
   112   1 H    0.999 --    55 C    0.988
   113   1 H    0.999 --    55 C    0.992
   114   1 H    0.999 --    56 C    0.988
   115   1 H    0.999 --    56 C    0.987
   116   1 H    0.997 --    57 C    0.969
   117   1 H    0.996 --    57 C    0.972
 ---------------------------------------------------------------------------

molecular dipole:
                 x           y           z       tot (Debye)
 q only:       -3.002      10.866       0.095
   full:       -3.227      11.072       0.105      29.313

           -------------------------------------------------
          | TOTAL ENERGY             -187.928232269996 Eh   |
          | GRADIENT NORM               0.000363140313 Eh/α |
          | HOMO-LUMO GAP               3.152578701565 eV   |
           -------------------------------------------------

 * finished run on 2024/12/20 at 01:53:56.712
