   * xtb version 6.7.1 (edcfbbe) compiled by 'conda@3ef47c1a292c' on 2024-11-25

   ID    Z sym.   atoms
    1    9 F      1, 3, 4, 6, 7, 9, 10, 12, 13, 15, 16, 18, 19, 34, 35, 37,
                  38, 40, 41, 43, 44, 46, 47, 49-51, 59, 60, 62, 63, 65, 66,
                  68, 69, 71, 72, 74-76, 84, 85, 87, 88, 90, 91, 93, 94, 96,
                  97, 99-101
    2    6 C      2, 5, 8, 11, 14, 17, 20-25, 27-33, 36, 39, 42, 45, 48,
                  52-58, 61, 64, 67, 70, 73, 77-83, 86, 89, 92, 95, 98
    3    5 B      26
    4    1 H      102-117

          program call               : xtb A114.xyz --opt --namespace A114 --charge -1
          :  Hamiltonian                  GFN2-xTB          :
 * total energy  :  -358.1859564 Eh     change       -0.1581503E-07 Eh
 * total energy  :  -358.2772450 Eh     change       -0.9128859E-01 Eh
 * total energy  :  -358.3217265 Eh     change       -0.4448151E-01 Eh
 * total energy  :  -358.3438274 Eh     change       -0.2210087E-01 Eh
 * total energy  :  -358.3599512 Eh     change       -0.1612382E-01 Eh
 * total energy  :  -358.3715864 Eh     change       -0.1163527E-01 Eh
 * total energy  :  -358.3799399 Eh     change       -0.8353492E-02 Eh
 * total energy  :  -358.3858113 Eh     change       -0.5871375E-02 Eh
 * total energy  :  -358.3897720 Eh     change       -0.3960649E-02 Eh
 * total energy  :  -358.3923456 Eh     change       -0.2573657E-02 Eh
 * total energy  :  -358.4234152 Eh     change       -0.1689526E-04 Eh
 * total energy  :  -358.4234248 Eh     change       -0.9570291E-05 Eh
 * total energy  :  -358.4234378 Eh     change       -0.1302781E-04 Eh
 * total energy  :  -358.4234447 Eh     change       -0.6873915E-05 Eh
 * total energy  :  -358.4234600 Eh     change       -0.1527860E-04 Eh
 * total energy  :  -358.4234563 Eh     change        0.3622255E-05 Eh
 * total energy  :  -358.4234642 Eh     change       -0.7883375E-05 Eh
 * total energy  :  -358.4234712 Eh     change       -0.6959675E-05 Eh
 * total energy  :  -358.4234760 Eh     change       -0.4775879E-05 Eh
   *** GEOMETRY OPTIMIZATION CONVERGED AFTER 192 ITERATIONS ***

 final structure:
================
117
 xtb: 6.7.1 (edcfbbe)
F            0.55472435248853       -3.07507940329472        0.10766168693511
C            1.64437575527019       -2.35806938607562       -0.14703812531614
F            1.25754598066003       -1.21625008701843       -0.70270628882235
F            2.22958838912663       -2.08146943836358        1.01157746863385
C            2.59385358519627       -3.14946098908604       -1.09901394662353
F            2.68782541829097       -4.41237714713838       -0.65258789465253
F            2.02187867343965       -3.19419345957596       -2.31315440261313
C            4.01809645484703       -2.51685345345621       -1.16863799630910
F            3.90362056311220       -1.17736392049829       -1.20125125992315
F            4.66348612723691       -2.83183696258612       -0.03517410711424
C            4.82161950020004       -2.99213609353802       -2.42232145421219
F            4.60449503173790       -4.30557482203583       -2.61130184015028
F            4.32220372578249       -2.35131815858924       -3.49105160929069
C            6.35458221022103       -2.74390505310099       -2.27116170638345
F            6.55434071089243       -1.55260504975085       -1.67362594389908
F            6.82788653427174       -3.68408046197767       -1.42942795359312
C            7.15184333160810       -2.77953574199365       -3.62063651721973
F            6.71400683347369       -3.85756057243665       -4.32098728688894
F            6.75343359560772       -1.69567840164448       -4.33596897484290
C            8.62823400939090       -2.79993768775469       -3.36259857267048
C            9.29320737663131       -4.01291647628060       -3.22283524126287
C           10.64175374628520       -4.01307094500855       -2.92955841287192
C           11.36614985689680       -2.83277687527956       -2.74893872977244
C           10.67243583981407       -1.63643665968296       -2.92464232363415
C            9.32225886418000       -1.60539277437809       -3.21817007815813
B           12.95701064861656       -2.90168644511217       -2.44315496051444
C           13.31452250682687       -3.89520751830385       -1.21047462509863
C           14.63791759209571       -4.27656732139036       -0.97943745915495
C           15.00385454011672       -5.05435402257523        0.10044415067560
C           14.03056452825573       -5.46193816032441        1.00550500322116
C           12.70593978371585       -5.08820374705256        0.81742702095139
C           12.36865756459400       -4.31122416826421       -0.27419149218780
C           14.39950842594329       -6.33360739336243        2.16766467679651
F           15.67795628394307       -6.15283189979666        2.58920940892055
F           13.62268763180719       -6.11212754491667        3.26004333591787
C           14.23979121448398       -7.84954184184441        1.80361569446470
F           12.93263219318478       -8.12749248387987        1.63225893417279
F           14.84868646135069       -8.10860776736373        0.62929603662874
C           14.83994535752736       -8.82907181943870        2.85983423857448
F           16.17733288436866       -8.85946139909054        2.72227513373505
F           14.58119153990626       -8.42139897986172        4.11239563614201
C           14.27871268113084      -10.27987587328513        2.71006655064088
F           13.03285991991794      -10.32469656115138        3.21419281711093
F           14.19693861566194      -10.63239152669408        1.41783940772916
C           15.16291062739787      -11.33825329258205        3.43937291494718
F           16.24664866464360      -11.60496793725148        2.69241444165988
F           15.59579664053675      -10.87757617479559        4.62409559811215
C           14.39540672160697      -12.67299592510761        3.69161887587966
F           13.51145912666559      -12.53575342614783        4.67221779811568
F           13.75353225505754      -13.08294022863127        2.60469961379637
F           15.24891271841599      -13.62847352554789        4.04556775585718
C           13.58759419970314       -3.38453728513223       -3.85682715460479
C           14.04408093646126       -4.68230084971715       -4.08403231245176
C           14.53692977855806       -5.08460166537590       -5.31062499729037
C           14.57822793269943       -4.17597604834140       -6.36072230162974
C           14.09589044524938       -2.88433008981616       -6.18235774209448
C           13.61058403937772       -2.51010246475340       -4.94546291915942
C           15.11151661109753       -4.60193539404130       -7.69521733029770
F           15.63240848391196       -3.56995568489768       -8.40844057398687
F           16.11410819989507       -5.51522158142735       -7.59711040144531
C           13.98931637701208       -5.23746971054682       -8.58535426227361
F           13.28871794402805       -6.14443828929859       -7.87709838675849
F           13.12111972388031       -4.27507764851565       -8.95316496877487
C           14.52651742586333       -5.96331269619526       -9.85848484518569
F           15.52003731027557       -5.26989184533386      -10.43725028932881
F           15.03294668754435       -7.15712899291230       -9.50190340473689
C           13.41554298113060       -6.18308979036575      -10.93516877505814
F           12.26154311634654       -6.56317760848279      -10.36626598782737
F           13.18199858202885       -5.02145711261038      -11.57119260202969
C           13.81315518635821       -7.26872933174152      -11.98307731394945
F           15.10796134738879       -7.16415213971820      -12.32427417624732
F           13.63606174084975       -8.48865575706730      -11.45044661651570
C           12.96226131293922       -7.17016758609942      -13.28682019360614
F           11.66772822298826       -7.04992499929834      -13.02103816259684
F           13.33675745731650       -6.12974829808622      -14.02136235800118
F           13.12788791745030       -8.26569861516267      -14.02115258631030
C           13.57314829137848       -1.49376683500961       -1.92237848659547
C           14.76964217429074       -0.96378894617616       -2.40355928223028
C           15.33119717514559        0.18412114073153       -1.87781000468446
C           14.69880557764394        0.83201933901051       -0.82476294259528
C           13.50752618296790        0.32897969825897       -0.31325581200035
C           12.96990008123922       -0.81913256095725       -0.85852157821466
C           15.28527769266609        2.08552676225645       -0.24922529217881
F           15.07249874005715        2.20030388292650        1.08822797342907
F           16.63152186365520        2.16668324384149       -0.41000445325899
C           14.66000772779687        3.36270915771268       -0.90827118373693
F           14.63670410169103        3.23046511785501       -2.24935158987365
F           13.37912176253318        3.48480987117929       -0.50889149852431
C           15.42965466166462        4.68197299717189       -0.58800745513480
F           15.83866912296370        4.71481607696970        0.69007272126253
F           16.53077568719300        4.74488857871824       -1.35753686397354
C           14.56050905681399        5.95667794026129       -0.83643227136008
F           13.83596386651008        5.83493450871155       -1.95931503353437
F           13.69404829137723        6.10398468867179        0.18131920714497
C           15.42589764269334        7.24884882183266       -0.96322815170992
F           16.43917035973824        7.24494171725957       -0.08198064912097
F           15.96348059890745        7.30527326539337       -2.19262728237377
C           14.58875459140982        8.54430654674636       -0.72883239390020
F           13.44655325697433        8.52003006986943       -1.40445844972778
F           14.30935341560057        8.70277589201085        0.55912944159660
F           15.27666243971299        9.60881221044004       -1.12911151555183
H            8.75120957859966       -4.93889815626423       -3.34764383576818
H           11.15316949900602       -4.95908485580516       -2.83189550108848
H           11.19954833688116       -0.69955291867368       -2.82152907321315
H            8.80268914426746       -0.66583963366451       -3.33800149588807
H           15.40291539886869       -3.94962507301164       -1.66794580551614
H           16.03357444739479       -5.34166808106105        0.25529122937689
H           11.95428143904414       -5.40181735609207        1.52716908082014
H           11.33576426225700       -4.02293896569972       -0.40137952169970
H           14.01904514142364       -5.40046582645486       -3.27804037069691
H           14.89716858322800       -6.09221605605649       -5.45931893101133
H           14.11240200694037       -2.18721713074996       -7.00740966220039
H           13.23617228802910       -1.50557543330648       -4.81542431163668
H           15.28014750518790       -1.46265073012267       -3.21387844196845
H           16.25843579791022        0.57642805920748       -2.26935550865044
H           13.02272885112371        0.83313793830290        0.51009007088889
H           12.05413581609266       -1.21268047978949       -0.44308940229705

          :  Hamiltonian                  GFN2-xTB          :
         :: total energy            -358.423475968761 Eh    ::
         :: gradient norm              0.000478225603 Eh/a0 ::
         :: HOMO-LUMO gap              3.380264346525 eV    ::
         :: SCC energy              -360.388014724200 Eh    ::
         :: -> dispersion             -0.150387094401 Eh    ::
         :: repulsion energy           1.964538755439 Eh    ::

    * Orbital Energies and Occupations

         #    Occupation            Energy/Eh            Energy/eV
      -------------------------------------------------------------
         1        2.0000           -0.8980068             -24.4360
       ...           ...                  ...                  ...
       276        2.0000           -0.3569614              -9.7134
       277        2.0000           -0.3542741              -9.6403
       278        2.0000           -0.3492817              -9.5044
       279        2.0000           -0.3439096              -9.3583
       280        2.0000           -0.3426622              -9.3243
       281        2.0000           -0.3424771              -9.3193
       282        2.0000           -0.3421707              -9.3109
       283        2.0000           -0.3401228              -9.2552
       284        2.0000           -0.3363622              -9.1529
       285        2.0000           -0.3354632              -9.1284
       286        2.0000           -0.3083262              -8.3900
       287        2.0000           -0.3015899              -8.2067
       288        2.0000           -0.3013995              -8.2015 (HOMO)
       289                         -0.1771770              -4.8212 (LUMO)
       290                         -0.1759228              -4.7871
       291                         -0.1653718              -4.5000
       292                         -0.1646418              -4.4801
       293                         -0.1600215              -4.3544
       294                         -0.1587693              -4.3203
       295                         -0.1586628              -4.3174
       296                         -0.1556128              -4.2344
       297                         -0.0998041              -2.7158
       298                         -0.0991564              -2.6982
       299                         -0.0987332              -2.6867
       ...                                ...                  ...
       420                          0.7295779              19.8528
      -------------------------------------------------------------
                  HL-Gap            0.1242224 Eh            3.3803 eV

     #   Z          covCN         q      C6AA      α(0)
     1   9 F        0.791    -0.161    10.836     3.889
     2   6 C        3.328     0.490    17.350     6.614
     3   9 F        0.791    -0.163    10.857     3.892
     4   9 F        0.791    -0.165    10.882     3.897
     5   6 C        3.517     0.315    16.980     6.081
     6   9 F        0.789    -0.165    10.877     3.896
     7   9 F        0.788    -0.168    10.915     3.903
     8   6 C        3.516     0.320    16.918     6.071
     9   9 F        0.788    -0.175    10.984     3.915
    10   9 F        0.789    -0.169    10.918     3.903
    11   6 C        3.516     0.325    16.867     6.063
    12   9 F        0.788    -0.175    10.985     3.915
    13   9 F        0.789    -0.171    10.941     3.907
    14   6 C        3.517     0.317    16.957     6.076
    15   9 F        0.788    -0.189    11.126     3.940
    16   9 F        0.789    -0.187    11.097     3.935
    17   6 C        3.524     0.328    16.739     6.025
    18   9 F        0.788    -0.215    11.388     3.986
    19   9 F        0.788    -0.212    11.357     3.981
    20   6 C        2.979    -0.039    28.954     8.827
    21   6 C        2.916    -0.033    28.812     8.802
    22   6 C        2.928    -0.033    28.812     8.803
    23   6 C        2.877    -0.039    28.974     8.824
    24   6 C        2.927    -0.034    28.844     8.808
    25   6 C        2.916    -0.033    28.821     8.803
    26   5 B        3.574     0.132    19.652     7.301
    27   6 C        2.877    -0.039    28.978     8.825
    28   6 C        2.928    -0.033    28.821     8.804
    29   6 C        2.916    -0.033    28.813     8.802
    30   6 C        2.979    -0.039    28.956     8.827
    31   6 C        2.916    -0.033    28.818     8.803
    32   6 C        2.928    -0.034    28.842     8.807
    33   6 C        3.524     0.328    16.739     6.025
    34   9 F        0.788    -0.215    11.389     3.986
    35   9 F        0.788    -0.212    11.359     3.981
    36   6 C        3.517     0.317    16.957     6.076
    37   9 F        0.788    -0.189    11.124     3.940
    38   9 F        0.789    -0.187    11.098     3.935
    39   6 C        3.516     0.324    16.867     6.063
    40   9 F        0.788    -0.176    10.986     3.915
    41   9 F        0.789    -0.171    10.941     3.907
    42   6 C        3.516     0.320    16.917     6.071
    43   9 F        0.788    -0.175    10.984     3.915
    44   9 F        0.789    -0.169    10.919     3.903
    45   6 C        3.517     0.315    16.981     6.081
    46   9 F        0.789    -0.165    10.878     3.896
    47   9 F        0.788    -0.168    10.914     3.902
    48   6 C        3.328     0.490    17.350     6.615
    49   9 F        0.791    -0.163    10.856     3.892
    50   9 F        0.791    -0.165    10.882     3.897
    51   9 F        0.791    -0.161    10.837     3.889
    52   6 C        2.877    -0.039    28.969     8.823
    53   6 C        2.927    -0.034    28.837     8.807
    54   6 C        2.916    -0.032    28.806     8.801
    55   6 C        2.979    -0.039    28.955     8.827
    56   6 C        2.916    -0.033    28.823     8.804
    57   6 C        2.928    -0.033    28.822     8.804
    58   6 C        3.524     0.328    16.746     6.026
    59   9 F        0.788    -0.212    11.355     3.980
    60   9 F        0.788    -0.216    11.401     3.988
    61   6 C        3.517     0.317    16.958     6.077
    62   9 F        0.789    -0.186    11.091     3.934
    63   9 F        0.788    -0.189    11.123     3.940
    64   6 C        3.516     0.324    16.868     6.063
    65   9 F        0.789    -0.171    10.943     3.908
    66   9 F        0.789    -0.176    10.986     3.915
    67   6 C        3.516     0.320    16.917     6.071
    68   9 F        0.789    -0.168    10.915     3.903
    69   9 F        0.788    -0.175    10.985     3.915
    70   6 C        3.517     0.315    16.982     6.081
    71   9 F        0.788    -0.169    10.915     3.903
    72   9 F        0.789    -0.165    10.877     3.896
    73   6 C        3.328     0.490    17.349     6.614
    74   9 F        0.791    -0.165    10.880     3.896
    75   9 F        0.791    -0.163    10.858     3.892
    76   9 F        0.791    -0.161    10.838     3.889
    77   6 C        2.877    -0.039    28.973     8.824
    78   6 C        2.928    -0.034    28.847     8.808
    79   6 C        2.916    -0.032    28.800     8.800
    80   6 C        2.979    -0.039    28.956     8.827
    81   6 C        2.916    -0.033    28.832     8.805
    82   6 C        2.928    -0.033    28.819     8.804
    83   6 C        3.524     0.328    16.743     6.025
    84   9 F        0.788    -0.212    11.359     3.981
    85   9 F        0.788    -0.215    11.392     3.987
    86   6 C        3.517     0.317    16.958     6.076
    87   9 F        0.789    -0.187    11.100     3.936
    88   9 F        0.788    -0.189    11.121     3.939
    89   6 C        3.516     0.325    16.867     6.063
    90   9 F        0.789    -0.171    10.940     3.907
    91   9 F        0.789    -0.176    10.987     3.916
    92   6 C        3.516     0.320    16.917     6.071
    93   9 F        0.789    -0.169    10.918     3.903
    94   9 F        0.788    -0.175    10.984     3.915
    95   6 C        3.517     0.315    16.982     6.081
    96   9 F        0.788    -0.168    10.913     3.902
    97   9 F        0.789    -0.165    10.878     3.896
    98   6 C        3.328     0.490    17.350     6.615
    99   9 F        0.791    -0.165    10.883     3.897
   100   9 F        0.791    -0.163    10.856     3.892
   101   9 F        0.791    -0.161    10.837     3.889
   102   1 H        0.926     0.035     2.516     2.480
   103   1 H        0.926     0.040     2.450     2.448
   104   1 H        0.926     0.038     2.476     2.461
   105   1 H        0.926     0.036     2.509     2.477
   106   1 H        0.926     0.039     2.458     2.452
   107   1 H        0.926     0.035     2.522     2.483
   108   1 H        0.926     0.036     2.508     2.477
   109   1 H        0.926     0.038     2.475     2.460
   110   1 H        0.926     0.039     2.468     2.457
   111   1 H        0.926     0.034     2.529     2.487
   112   1 H        0.926     0.036     2.509     2.477
   113   1 H        0.926     0.040     2.452     2.449
   114   1 H        0.926     0.038     2.478     2.462
   115   1 H        0.926     0.035     2.521     2.483
   116   1 H        0.926     0.035     2.518     2.481
   117   1 H        0.926     0.040     2.454     2.450

Wiberg/Mayer (AO) data.
largest (>0.10) Wiberg bond orders for each atom

     #   Z sym  total        # sym  WBO       # sym  WBO       # sym  WBO
 ---------------------------------------------------------------------------
     1   9 F    1.111 --     2 C    0.976
     2   6 C    3.878 --     3 F    0.977     4 F    0.976     1 F    0.976
                             5 C    0.890
     3   9 F    1.111 --     2 C    0.977
     4   9 F    1.110 --     2 C    0.976
     5   6 C    3.891 --     6 F    0.980     7 F    0.978     8 C    0.907
                             2 C    0.890
     6   9 F    1.096 --     5 C    0.980
     7   9 F    1.094 --     5 C    0.978
     8   6 C    3.885 --    10 F    0.980     9 F    0.974     5 C    0.907
                            11 C    0.903
     9   9 F    1.088 --     8 C    0.974
    10   9 F    1.096 --     8 C    0.980
    11   6 C    3.882 --    13 F    0.978    12 F    0.974    14 C    0.905
                             8 C    0.903
    12   9 F    1.089 --    11 C    0.974
    13   9 F    1.094 --    11 C    0.978
    14   6 C    3.860 --    16 F    0.968    15 F    0.967    11 C    0.905
                            17 C    0.888
    15   9 F    1.078 --    14 C    0.967
    16   9 F    1.080 --    14 C    0.968
    17   6 C    3.831 --    20 C    0.954    19 F    0.947    18 F    0.945
                            14 C    0.888
    18   9 F    1.055 --    17 C    0.945
    19   9 F    1.057 --    17 C    0.947
    20   6 C    3.942 --    25 C    1.395    21 C    1.387    17 C    0.954
                            23 C    0.105
    21   6 C    3.988 --    22 C    1.464    20 C    1.387   102 H    0.969
    22   6 C    3.988 --    21 C    1.464    23 C    1.392   103 H    0.968
                            25 C    0.101
    23   6 C    3.904 --    24 C    1.402    22 C    1.392    26 B    0.887
                            20 C    0.105
    24   6 C    3.988 --    25 C    1.454    23 C    1.402   104 H    0.966
    25   6 C    3.987 --    24 C    1.454    20 C    1.395   105 H    0.969
                            22 C    0.101
    26   5 B    3.662 --    52 C    0.888    23 C    0.887    77 C    0.885
                            27 C    0.884
    27   6 C    3.905 --    32 C    1.400    28 C    1.392    26 B    0.884
                            30 C    0.105
    28   6 C    3.988 --    29 C    1.463    27 C    1.392   106 H    0.968
                            31 C    0.100
    29   6 C    3.988 --    28 C    1.463    30 C    1.387   107 H    0.969
    30   6 C    3.939 --    31 C    1.394    29 C    1.387    33 C    0.954
                            27 C    0.105
    31   6 C    3.987 --    32 C    1.455    30 C    1.394   108 H    0.969
                            28 C    0.100
    32   6 C    3.987 --    31 C    1.455    27 C    1.400   109 H    0.966
    33   6 C    3.831 --    30 C    0.954    35 F    0.946    34 F    0.945
                            36 C    0.889
    34   9 F    1.055 --    33 C    0.945
    35   9 F    1.057 --    33 C    0.946
    36   6 C    3.860 --    38 F    0.968    37 F    0.967    39 C    0.905
                            33 C    0.889
    37   9 F    1.078 --    36 C    0.967
    38   9 F    1.079 --    36 C    0.968
    39   6 C    3.882 --    41 F    0.978    40 F    0.974    36 C    0.905
                            42 C    0.903
    40   9 F    1.088 --    39 C    0.974
    41   9 F    1.094 --    39 C    0.978
    42   6 C    3.885 --    44 F    0.980    43 F    0.974    45 C    0.907
                            39 C    0.903
    43   9 F    1.089 --    42 C    0.974
    44   9 F    1.095 --    42 C    0.980
    45   6 C    3.891 --    46 F    0.980    47 F    0.978    42 C    0.907
                            48 C    0.890
    46   9 F    1.096 --    45 C    0.980
    47   9 F    1.094 --    45 C    0.978
    48   6 C    3.878 --    49 F    0.977    50 F    0.976    51 F    0.976
                            45 C    0.890
    49   9 F    1.111 --    48 C    0.977
    50   9 F    1.109 --    48 C    0.976
    51   9 F    1.111 --    48 C    0.976
    52   6 C    3.904 --    53 C    1.401    57 C    1.392    26 B    0.888
                            55 C    0.105
    53   6 C    3.987 --    54 C    1.455    52 C    1.401   110 H    0.966
    54   6 C    3.988 --    53 C    1.455    55 C    1.394   111 H    0.969
                            57 C    0.100
    55   6 C    3.942 --    54 C    1.394    56 C    1.387    58 C    0.955
                            52 C    0.105
    56   6 C    3.987 --    57 C    1.463    55 C    1.387   112 H    0.969
    57   6 C    3.988 --    56 C    1.463    52 C    1.392   113 H    0.968
                            54 C    0.100
    58   6 C    3.831 --    55 C    0.955    59 F    0.947    60 F    0.944
                            61 C    0.889
    59   9 F    1.057 --    58 C    0.947
    60   9 F    1.053 --    58 C    0.944
    61   6 C    3.861 --    62 F    0.969    63 F    0.967    64 C    0.904
                            58 C    0.889
    62   9 F    1.081 --    61 C    0.969
    63   9 F    1.078 --    61 C    0.967
    64   6 C    3.882 --    65 F    0.978    66 F    0.974    61 C    0.904
                            67 C    0.903
    65   9 F    1.093 --    64 C    0.978
    66   9 F    1.088 --    64 C    0.974
    67   6 C    3.885 --    68 F    0.980    69 F    0.974    70 C    0.907
                            64 C    0.903
    68   9 F    1.096 --    67 C    0.980
    69   9 F    1.088 --    67 C    0.974
    70   6 C    3.891 --    72 F    0.980    71 F    0.978    67 C    0.907
                            73 C    0.890
    71   9 F    1.094 --    70 C    0.978
    72   9 F    1.096 --    70 C    0.980
    73   6 C    3.878 --    75 F    0.977    74 F    0.976    76 F    0.976
                            70 C    0.890
    74   9 F    1.110 --    73 C    0.976
    75   9 F    1.111 --    73 C    0.977
    76   9 F    1.111 --    73 C    0.976
    77   6 C    3.905 --    78 C    1.401    82 C    1.391    26 B    0.885
                            80 C    0.105
    78   6 C    3.987 --    79 C    1.454    77 C    1.401   114 H    0.966
    79   6 C    3.988 --    78 C    1.454    80 C    1.395   115 H    0.969
                            82 C    0.100
    80   6 C    3.939 --    79 C    1.395    81 C    1.386    83 C    0.955
                            77 C    0.105
    81   6 C    3.988 --    82 C    1.465    80 C    1.386   116 H    0.969
    82   6 C    3.988 --    81 C    1.465    77 C    1.391   117 H    0.968
                            79 C    0.100
    83   6 C    3.831 --    80 C    0.955    84 F    0.946    85 F    0.945
                            86 C    0.889
    84   9 F    1.057 --    83 C    0.946
    85   9 F    1.055 --    83 C    0.945
    86   6 C    3.860 --    87 F    0.968    88 F    0.968    89 C    0.905
                            83 C    0.889
    87   9 F    1.079 --    86 C    0.968
    88   9 F    1.078 --    86 C    0.968
    89   6 C    3.882 --    90 F    0.978    91 F    0.974    86 C    0.905
                            92 C    0.903
    90   9 F    1.094 --    89 C    0.978
    91   9 F    1.088 --    89 C    0.974
    92   6 C    3.885 --    93 F    0.980    94 F    0.974    95 C    0.907
                            89 C    0.903
    93   9 F    1.095 --    92 C    0.980
    94   9 F    1.089 --    92 C    0.974
    95   6 C    3.891 --    97 F    0.980    96 F    0.978    92 C    0.907
                            98 C    0.890
    96   9 F    1.094 --    95 C    0.978
    97   9 F    1.096 --    95 C    0.980
    98   6 C    3.878 --   100 F    0.977    99 F    0.976   101 F    0.976
                            95 C    0.890
    99   9 F    1.109 --    98 C    0.976
   100   9 F    1.111 --    98 C    0.977
   101   9 F    1.111 --    98 C    0.976
   102   1 H    0.998 --    21 C    0.969
   103   1 H    0.998 --    22 C    0.968
   104   1 H    0.998 --    24 C    0.966
   105   1 H    0.998 --    25 C    0.969
   106   1 H    0.998 --    28 C    0.968
   107   1 H    0.998 --    29 C    0.969
   108   1 H    0.998 --    31 C    0.969
   109   1 H    0.998 --    32 C    0.966
   110   1 H    0.998 --    53 C    0.966
   111   1 H    0.998 --    54 C    0.969
   112   1 H    0.998 --    56 C    0.969
   113   1 H    0.998 --    57 C    0.968
   114   1 H    0.998 --    78 C    0.966
   115   1 H    0.998 --    79 C    0.969
   116   1 H    0.998 --    81 C    0.969
   117   1 H    0.998 --    82 C    0.968
 ---------------------------------------------------------------------------

molecular dipole:
                 x           y           z       tot (Debye)
 q only:      -23.772       5.790       4.535
   full:      -23.894       5.742       4.542      63.518

           -------------------------------------------------
          | TOTAL ENERGY             -358.423475968761 Eh   |
          | GRADIENT NORM               0.000478225603 Eh/α |
          | HOMO-LUMO GAP               3.380264346525 eV   |
           -------------------------------------------------

 * finished run on 2024/12/20 at 01:54:42.441
