   * xtb version 6.7.1 (edcfbbe) compiled by 'conda@3ef47c1a292c' on 2024-11-25

   ID    Z sym.   atoms
    1    6 C      1-4
    2    7 N      5
    3    5 B      6
    4    9 F      7-9
    5    1 H      10-15

          program call               : xtb A115.xyz --opt --namespace A115 --charge -1
          :  Hamiltonian                  GFN2-xTB          :
 * total energy  :   -30.3016759 Eh     change       -0.2206555E-09 Eh
 * total energy  :   -30.3348224 Eh     change       -0.3314656E-01 Eh
 * total energy  :   -30.3386888 Eh     change       -0.3866347E-02 Eh
 * total energy  :   -30.3395136 Eh     change       -0.8248385E-03 Eh
 * total energy  :   -30.3395654 Eh     change       -0.5181265E-04 Eh
 * total energy  :   -30.3400119 Eh     change       -0.4464722E-03 Eh
 * total energy  :   -30.3401244 Eh     change       -0.1124934E-03 Eh
 * total energy  :   -30.3402413 Eh     change       -0.1169427E-03 Eh
 * total energy  :   -30.3403402 Eh     change       -0.9886400E-04 Eh
 * total energy  :   -30.3403937 Eh     change       -0.5352529E-04 Eh
 * total energy  :   -30.3404235 Eh     change       -0.2977937E-04 Eh
 * total energy  :   -30.3404367 Eh     change       -0.1319266E-04 Eh
 * total energy  :   -30.3404415 Eh     change       -0.4799365E-05 Eh
 * total energy  :   -30.3404430 Eh     change       -0.1536776E-05 Eh
 * total energy  :   -30.3404444 Eh     change       -0.1331267E-05 Eh
   *** GEOMETRY OPTIMIZATION CONVERGED AFTER 15 ITERATIONS ***

 final structure:
================
15
 xtb: 6.7.1 (edcfbbe)
C            1.05746587992508        0.04418306568265        0.13447063238777
C            0.53791917745569       -1.38786591821951        0.22497003478614
C            1.01271475991907       -2.06471658837208        1.52741866703888
C            0.79486179157110       -1.27341826097658        2.70312604620830
N            0.69857031415747       -0.66708621271958        3.67163173279462
B           -1.11017286795374       -1.49138340231644        0.04319537683112
F           -1.48315812745083       -1.07567306007585       -1.24785914589285
F           -1.51983230679869       -2.83537437417993        0.19281838460717
F           -1.81448082756206       -0.72018694720896        0.97177125769565
H            0.62549403512239        0.64580462242006        0.93233080977572
H            0.75782622030325        0.47737547150231       -0.81752624356515
H            2.14873584238269        0.08975958079108        0.21464807519127
H            0.97809209927087       -1.96659241250542       -0.59840249859914
H            0.46986739081755       -3.00704958037861        1.64527859032464
H            2.09086661884047       -2.27892598344294        1.48563828041565

          :  Hamiltonian                  GFN2-xTB          :
         :: total energy             -30.340444375460 Eh    ::
         :: gradient norm              0.000365348968 Eh/a0 ::
         :: HOMO-LUMO gap              4.155122956910 eV    ::
         :: SCC energy               -30.618546628900 Eh    ::
         :: -> dispersion             -0.010712903463 Eh    ::
         :: repulsion energy           0.278102253439 Eh    ::

    * Orbital Energies and Occupations

         #    Occupation            Energy/Eh            Energy/eV
      -------------------------------------------------------------
         1        2.0000           -0.5875361             -15.9877
       ...           ...                  ...                  ...
        14        2.0000           -0.3278643              -8.9216
        15        2.0000           -0.3173553              -8.6357
        16        2.0000           -0.3156449              -8.5891
        17        2.0000           -0.3083934              -8.3918
        18        2.0000           -0.3034306              -8.2568
        19        2.0000           -0.2981712              -8.1137
        20        2.0000           -0.2827621              -7.6943
        21        2.0000           -0.2794073              -7.6031
        22        2.0000           -0.2785097              -7.5786
        23        2.0000           -0.2712571              -7.3813
        24        2.0000           -0.2686046              -7.3091
        25        2.0000           -0.2680806              -7.2948
        26        2.0000           -0.2204992              -6.0001 (HOMO)
        27                         -0.0678012              -1.8450 (LUMO)
        28                         -0.0643533              -1.7511
        29                          0.2303255               6.2675
        30                          0.2429477               6.6109
        31                          0.2751304               7.4867
        32                          0.2940266               8.0009
        33                          0.3098238               8.4307
        34                          0.3175381               8.6407
        35                          0.3335505               9.0764
        36                          0.3733071              10.1582
        37                          0.3817171              10.3871
       ...                                ...                  ...
        42                          1.2696755              34.5496
      -------------------------------------------------------------
                  HL-Gap            0.1526980 Eh            4.1551 eV

     #   Z          covCN         q      C6AA      α(0)
     1   6 C        3.751    -0.086    22.204     6.720
     2   6 C        3.759    -0.103    22.521     6.766
     3   6 C        3.803    -0.048    21.428     6.590
     4   6 C        1.894     0.129    27.956     8.539
     5   7 N        0.911    -0.297    27.638     7.604
     6   5 B        3.043     0.577    13.725     6.179
     7   9 F        0.720    -0.434    13.961     4.412
     8   9 F        0.720    -0.440    14.047     4.426
     9   9 F        0.721    -0.425    13.850     4.395
    10   1 H        0.925     0.027     2.637     2.539
    11   1 H        0.925     0.024     2.672     2.556
    12   1 H        0.924    -0.009     3.213     2.803
    13   1 H        0.923    -0.006     3.159     2.779
    14   1 H        0.924     0.065     2.147     2.291
    15   1 H        0.923     0.026     2.647     2.544

Wiberg/Mayer (AO) data.
largest (>0.10) Wiberg bond orders for each atom

     #   Z sym  total        # sym  WBO       # sym  WBO       # sym  WBO
 ---------------------------------------------------------------------------
     1   6 C    3.997 --     2 C    1.016    11 H    0.988    10 H    0.987
                            12 H    0.986
     2   6 C    3.910 --     1 C    1.016    13 H    0.973     3 C    0.957
                             6 B    0.857
     3   6 C    3.992 --     4 C    1.070     2 C    0.957    15 H    0.942
                            14 H    0.940
     4   6 C    3.936 --     5 N    2.814     3 C    1.070
     5   7 N    2.983 --     4 C    2.814
     6   5 B    3.310 --     2 C    0.857     9 F    0.821     7 F    0.809
                             8 F    0.799
     7   9 F    0.885 --     6 B    0.809
     8   9 F    0.876 --     6 B    0.799
     9   9 F    0.898 --     6 B    0.821
    10   1 H    0.999 --     1 C    0.987
    11   1 H    0.999 --     1 C    0.988
    12   1 H    1.000 --     1 C    0.986
    13   1 H    1.000 --     2 C    0.973
    14   1 H    0.996 --     3 C    0.940
    15   1 H    0.999 --     3 C    0.942
 ---------------------------------------------------------------------------

molecular dipole:
                 x           y           z       tot (Debye)
 q only:        2.340       2.302      -1.189
   full:        2.631       2.052      -1.536       9.336

           -------------------------------------------------
          | TOTAL ENERGY              -30.340444375460 Eh   |
          | GRADIENT NORM               0.000365348968 Eh/α |
          | HOMO-LUMO GAP               4.155122956910 eV   |
           -------------------------------------------------

 * finished run on 2024/12/20 at 01:54:42.542
