   * xtb version 6.7.1 (edcfbbe) compiled by 'conda@3ef47c1a292c' on 2024-11-25

   ID    Z sym.   atoms
    1    9 F      1, 7, 8
    2    6 C      2
    3   16 S      3
    4    8 O      4-6

          program call               : xtb A116.xyz --opt --namespace A116 --charge -1
          :  Hamiltonian                  GFN2-xTB          :
 * total energy  :   -32.0480576 Eh     change       -0.3915090E-11 Eh
 * total energy  :   -32.0528080 Eh     change       -0.4750347E-02 Eh
 * total energy  :   -32.0543918 Eh     change       -0.1583806E-02 Eh
 * total energy  :   -32.0544411 Eh     change       -0.4934696E-04 Eh
 * total energy  :   -32.0544611 Eh     change       -0.1998225E-04 Eh
 * total energy  :   -32.0544613 Eh     change       -0.1465755E-06 Eh
   *** GEOMETRY OPTIMIZATION CONVERGED AFTER 6 ITERATIONS ***

 final structure:
================
8
 xtb: 6.7.1 (edcfbbe)
F            1.02545514134696        0.04052033019433       -0.08263870863564
C            2.36637244447768       -0.01208932025876       -0.03660242701288
S            2.98515084223021       -1.39716188920269        1.07073051724162
O            2.42142781244026       -2.56892464997670        0.43815139872876
O            4.42025874344217       -1.25650759497159        0.96279762663813
O            2.41566866993219       -1.04183308552472        2.35151265314340
F            2.78847261644134       -0.14831954343127       -1.30396846626698
F            2.78339372968920        1.19476575317141        0.37877740616359

          :  Hamiltonian                  GFN2-xTB          :
         :: total energy             -32.054461260502 Eh    ::
         :: gradient norm              0.000116314938 Eh/a0 ::
         :: HOMO-LUMO gap              8.216056209767 eV    ::
         :: SCC energy               -32.153127950380 Eh    ::
         :: -> dispersion             -0.007061023816 Eh    ::
         :: repulsion energy           0.098666689878 Eh    ::

    * Orbital Energies and Occupations

         #    Occupation            Energy/Eh            Energy/eV
      -------------------------------------------------------------
         1        2.0000           -0.7411575             -20.1679
       ...           ...                  ...                  ...
        13        2.0000           -0.4094001             -11.1403
        14        2.0000           -0.3974432             -10.8150
        15        2.0000           -0.3967329             -10.7957
        16        2.0000           -0.3967329             -10.7957
        17        2.0000           -0.3647753              -9.9260
        18        2.0000           -0.3638516              -9.9009
        19        2.0000           -0.3638515              -9.9009
        20        2.0000           -0.2960799              -8.0567
        21        2.0000           -0.2960797              -8.0567
        22        2.0000           -0.2781854              -7.5698
        23        2.0000           -0.2781851              -7.5698
        24        2.0000           -0.2650371              -7.2120
        25        2.0000           -0.2634577              -7.1690 (HOMO)
        26                          0.0384768               1.0470 (LUMO)
        27                          0.0825609               2.2466
        28                          0.1293593               3.5200
        29                          0.1293597               3.5201
        30                          0.2567434               6.9863
        31                          0.2567439               6.9864
        32                          0.2576582               7.0112
        33                          0.3873857              10.5413
        34                          0.3873878              10.5414
        35                          0.7936429              21.5961
        36                          1.3779496              37.4959
        37                          1.3779502              37.4959
      -------------------------------------------------------------
                  HL-Gap            0.3019345 Eh            8.2161 eV

     #   Z          covCN         q      C6AA      α(0)
     1   9 F        0.798    -0.216    11.402     3.989
     2   6 C        3.313     0.364    19.333     7.014
     3  16 S        3.567     1.184   101.536    16.959
     4   8 O        0.860    -0.633    26.950     6.960
     5   8 O        0.860    -0.633    26.950     6.960
     6   8 O        0.860    -0.633    26.950     6.960
     7   9 F        0.798    -0.216    11.402     3.989
     8   9 F        0.798    -0.216    11.402     3.989

Wiberg/Mayer (AO) data.
largest (>0.10) Wiberg bond orders for each atom

     #   Z sym  total        # sym  WBO       # sym  WBO       # sym  WBO
 ---------------------------------------------------------------------------
     1   9 F    1.068 --     2 C    0.950
     2   6 C    3.713 --     7 F    0.950     8 F    0.950     1 F    0.950
                             3 S    0.644
     3  16 S    5.238 --     5 O    1.514     4 O    1.514     6 O    1.514
                             2 C    0.644
     4   8 O    1.829 --     3 S    1.514     5 O    0.113     6 O    0.113
     5   8 O    1.829 --     3 S    1.514     6 O    0.113     4 O    0.113
     6   8 O    1.829 --     3 S    1.514     5 O    0.113     4 O    0.113
     7   9 F    1.068 --     2 C    0.950
     8   9 F    1.068 --     2 C    0.950
 ---------------------------------------------------------------------------

molecular dipole:
                 x           y           z       tot (Debye)
 q only:       -5.465       2.247      -1.709
   full:       -5.527       2.385      -1.819      15.985

           -------------------------------------------------
          | TOTAL ENERGY              -32.054461260502 Eh   |
          | GRADIENT NORM               0.000116314938 Eh/α |
          | HOMO-LUMO GAP               8.216056209767 eV   |
           -------------------------------------------------

 * finished run on 2024/12/20 at 01:54:42.595
