   * xtb version 6.7.1 (edcfbbe) compiled by 'conda@3ef47c1a292c' on 2024-11-25

   ID    Z sym.   atoms
    1    9 F      1, 9, 10
    2    6 C      2, 3
    3    8 O      4, 6-8
    4   16 S      5
    5    1 H      11, 12

          program call               : xtb A117.xyz --opt --namespace A117 --charge -1
          :  Hamiltonian                  GFN2-xTB          :
 * total energy  :   -39.3085999 Eh     change       -0.5783818E-10 Eh
 * total energy  :   -39.3140672 Eh     change       -0.5467316E-02 Eh
 * total energy  :   -39.3168539 Eh     change       -0.2786670E-02 Eh
 * total energy  :   -39.3173839 Eh     change       -0.5300064E-03 Eh
 * total energy  :   -39.3177778 Eh     change       -0.3939233E-03 Eh
 * total energy  :   -39.3179133 Eh     change       -0.1355336E-03 Eh
 * total energy  :   -39.3180410 Eh     change       -0.1276694E-03 Eh
 * total energy  :   -39.3181021 Eh     change       -0.6107266E-04 Eh
 * total energy  :   -39.3181810 Eh     change       -0.7889397E-04 Eh
 * total energy  :   -39.3182682 Eh     change       -0.8727934E-04 Eh
 * total energy  :   -39.3192525 Eh     change       -0.2343074E-03 Eh
 * total energy  :   -39.3192801 Eh     change       -0.2759553E-04 Eh
 * total energy  :   -39.3193021 Eh     change       -0.2193763E-04 Eh
 * total energy  :   -39.3193151 Eh     change       -0.1304487E-04 Eh
 * total energy  :   -39.3193353 Eh     change       -0.2021747E-04 Eh
 * total energy  :   -39.3193514 Eh     change       -0.1608019E-04 Eh
 * total energy  :   -39.3193615 Eh     change       -0.1009818E-04 Eh
 * total energy  :   -39.3193692 Eh     change       -0.7696179E-05 Eh
 * total energy  :   -39.3193728 Eh     change       -0.3610785E-05 Eh
   *** GEOMETRY OPTIMIZATION CONVERGED AFTER 29 ITERATIONS ***

 final structure:
================
12
 xtb: 6.7.1 (edcfbbe)
F            1.51312860266797       -0.81100572475876       -0.52988133934799
C            2.50218782598948       -0.11871057195319        0.04352197411808
C            2.60592620282009        1.34450035137064       -0.41055664114589
O            2.43261577367400        2.22233006329881        0.62574306880975
S            0.75414574916143        2.54513642077793        0.66144704772011
O            0.52151915842501        3.15086337179644       -0.63588080296191
O            0.16893835421389        1.23225554930546        0.80083086822829
O            0.60011352435529        3.42782940899598        1.78672142013499
F            2.42337228687579       -0.29023149336431        1.35505227270243
F            3.63112602159108       -0.80762378032297       -0.32912911543723
H            3.60487540215944        1.48190771724337       -0.84786069255462
H            1.82898109806652        1.52586868761075       -1.16628806026589

          :  Hamiltonian                  GFN2-xTB          :
         :: total energy             -39.319372826098 Eh    ::
         :: gradient norm              0.000723088977 Eh/a0 ::
         :: HOMO-LUMO gap              8.288312586311 eV    ::
         :: SCC energy               -39.470633537884 Eh    ::
         :: -> dispersion             -0.011329011524 Eh    ::
         :: repulsion energy           0.151260711786 Eh    ::

    * Orbital Energies and Occupations

         #    Occupation            Energy/Eh            Energy/eV
      -------------------------------------------------------------
         1        2.0000           -0.7611582             -20.7122
       ...           ...                  ...                  ...
        19        2.0000           -0.4113948             -11.1946
        20        2.0000           -0.4099605             -11.1556
        21        2.0000           -0.3963802             -10.7861
        22        2.0000           -0.3516769              -9.5696
        23        2.0000           -0.3490137              -9.4971
        24        2.0000           -0.3421526              -9.3104
        25        2.0000           -0.3115077              -8.4766
        26        2.0000           -0.2876914              -7.8285
        27        2.0000           -0.2829733              -7.7001
        28        2.0000           -0.2799258              -7.6172
        29        2.0000           -0.2676970              -7.2844
        30        2.0000           -0.2664598              -7.2507
        31        2.0000           -0.2552002              -6.9444 (HOMO)
        32                          0.0493897               1.3440 (LUMO)
        33                          0.1074770               2.9246
        34                          0.1125319               3.0621
        35                          0.1553746               4.2280
        36                          0.1699141               4.6236
        37                          0.1946885               5.2977
        38                          0.2221134               6.0440
        39                          0.2715817               7.3901
        40                          0.2892401               7.8706
        41                          0.3203105               8.7161
        42                          0.3422745               9.3138
       ...                                ...                  ...
        47                          1.4266181              38.8203
      -------------------------------------------------------------
                  HL-Gap            0.3045899 Eh            8.2883 eV

     #   Z          covCN         q      C6AA      α(0)
     1   9 F        0.791    -0.196    11.190     3.951
     2   6 C        3.326     0.473    17.610     6.669
     3   6 C        4.005     0.086    19.079     6.205
     4   8 O        1.705    -0.479    22.418     6.393
     5  16 S        3.760     1.473    94.120    16.328
     6   8 O        0.860    -0.703    28.800     7.195
     7   8 O        0.860    -0.699    28.686     7.181
     8   8 O        0.860    -0.658    27.586     7.042
     9   9 F        0.791    -0.177    10.996     3.917
    10   9 F        0.792    -0.242    11.681     4.037
    11   1 H        0.923     0.052     2.299     2.371
    12   1 H        0.924     0.070     2.081     2.256

Wiberg/Mayer (AO) data.
largest (>0.10) Wiberg bond orders for each atom

     #   Z sym  total        # sym  WBO       # sym  WBO       # sym  WBO
 ---------------------------------------------------------------------------
     1   9 F    1.084 --     2 C    0.961
     2   6 C    3.824 --     9 F    0.983     1 F    0.961     3 C    0.930
                            10 F    0.906
     3   6 C    3.960 --     4 O    1.042    11 H    0.960    12 H    0.949
                             2 C    0.930
     4   8 O    2.011 --     3 C    1.042     5 S    0.714
     5  16 S    5.024 --     8 O    1.468     7 O    1.422     6 O    1.404
                             4 O    0.714
     6   8 O    1.735 --     5 S    1.404     8 O    0.122     7 O    0.122
     7   8 O    1.742 --     5 S    1.422     8 O    0.124     6 O    0.122
     8   8 O    1.782 --     5 S    1.468     7 O    0.124     6 O    0.122
     9   9 F    1.107 --     2 C    0.983
    10   9 F    1.025 --     2 C    0.906
    11   1 H    0.997 --     3 C    0.960
    12   1 H    0.995 --     3 C    0.949
 ---------------------------------------------------------------------------

molecular dipole:
                 x           y           z       tot (Debye)
 q only:       -1.540      -3.778      -1.531
   full:       -1.335      -3.810      -1.638      11.075

           -------------------------------------------------
          | TOTAL ENERGY              -39.319372826098 Eh   |
          | GRADIENT NORM               0.000723088977 Eh/α |
          | HOMO-LUMO GAP               8.288312586311 eV   |
           -------------------------------------------------

 * finished run on 2024/12/20 at 01:54:42.847
