   * xtb version 6.7.1 (edcfbbe) compiled by 'conda@3ef47c1a292c' on 2024-11-25

   ID    Z sym.   atoms
    1    7 N      1, 4, 6, 9
    2    6 C      2, 3, 5, 7, 8, 10
    3    9 F      11-13

          program call               : xtb A118.xyz --opt --namespace A118 --charge -1
          :  Hamiltonian                  GFN2-xTB          :
 * total energy  :   -38.9115541 Eh     change       -0.1478796E-08 Eh
 * total energy  :   -38.9401046 Eh     change       -0.2855051E-01 Eh
 * total energy  :   -38.9471045 Eh     change       -0.6999888E-02 Eh
 * total energy  :   -38.9476415 Eh     change       -0.5370489E-03 Eh
 * total energy  :   -38.9476949 Eh     change       -0.5336269E-04 Eh
 * total energy  :   -38.9477377 Eh     change       -0.4277218E-04 Eh
 * total energy  :   -38.9477435 Eh     change       -0.5768348E-05 Eh
 * total energy  :   -38.9477545 Eh     change       -0.1106928E-04 Eh
 * total energy  :   -38.9477565 Eh     change       -0.1939068E-05 Eh
   *** GEOMETRY OPTIMIZATION CONVERGED AFTER 9 ITERATIONS ***

 final structure:
================
13
 xtb: 6.7.1 (edcfbbe)
N            1.15491847185024       -0.06320451186340       -0.09055037716061
C            2.30626190587860       -0.09487013183025       -0.08540399136433
C            3.69945010020062       -0.08938505617496       -0.08213575103256
N            4.46832690191791       -1.20002622803295       -0.07566716483061
C            5.71179993779821       -0.71661433038356       -0.07328726946293
N            5.83266678546604        0.61097813129287       -0.07760881141398
C            4.55251100440983        1.04326284131534       -0.08340262185027
C            4.17365478760713        2.38377848925878       -0.08877887028190
N            3.82575019613392        3.48179403658146       -0.09409489355373
C            6.88740610121096       -1.61473065257015       -0.06634127065341
F            6.92845501861030       -2.44074837017798        1.00736719271623
F            6.94042180140328       -2.44170656828023       -1.13893007549848
F            8.06206698751295       -0.96236764913499       -0.06014609561342

          :  Hamiltonian                  GFN2-xTB          :
         :: total energy             -38.947756460170 Eh    ::
         :: gradient norm              0.000842602436 Eh/a0 ::
         :: HOMO-LUMO gap              3.117678122057 eV    ::
         :: SCC energy               -39.384926152355 Eh    ::
         :: -> dispersion             -0.013007441120 Eh    ::
         :: repulsion energy           0.437169692184 Eh    ::

    * Orbital Energies and Occupations

         #    Occupation            Energy/Eh            Energy/eV
      -------------------------------------------------------------
         1        2.0000           -0.7556742             -20.5629
       ...           ...                  ...                  ...
        21        2.0000           -0.4027112             -10.9583
        22        2.0000           -0.3911197             -10.6429
        23        2.0000           -0.3638532              -9.9009
        24        2.0000           -0.3613429              -9.8326
        25        2.0000           -0.3560547              -9.6887
        26        2.0000           -0.3512705              -9.5586
        27        2.0000           -0.3471138              -9.4454
        28        2.0000           -0.3068215              -8.3490
        29        2.0000           -0.3041749              -8.2770
        30        2.0000           -0.2949456              -8.0259
        31        2.0000           -0.2749780              -7.4825
        32        2.0000           -0.2637670              -7.1775
        33        2.0000           -0.2561402              -6.9699 (HOMO)
        34                         -0.1415676              -3.8523 (LUMO)
        35                         -0.0947845              -2.5792
        36                         -0.0924226              -2.5149
        37                         -0.0806107              -2.1935
        38                         -0.0322803              -0.8784
        39                          0.0416726               1.1340
        40                          0.1440911               3.9209
        41                          0.1793188               4.8795
        42                          0.1954514               5.3185
        43                          0.2464847               6.7072
        44                          0.2801928               7.6244
       ...                                ...                  ...
        52                          1.3190776              35.8939
      -------------------------------------------------------------
                  HL-Gap            0.1145726 Eh            3.1177 eV

     #   Z          covCN         q      C6AA      α(0)
     1   7 N        0.911    -0.298    27.662     7.607
     2   6 C        1.898     0.106    28.479     8.619
     3   6 C        3.199     0.056    26.205     8.343
     4   7 N        1.892    -0.329    29.383     8.036
     5   6 C        3.359     0.120    22.668     7.477
     6   7 N        1.891    -0.328    29.363     8.033
     7   6 C        3.200     0.056    26.213     8.343
     8   6 C        1.898     0.106    28.482     8.619
     9   7 N        0.911    -0.298    27.672     7.608
    10   6 C        3.334     0.477    17.441     6.619
    11   9 F        0.791    -0.227    11.516     4.009
    12   9 F        0.791    -0.227    11.517     4.009
    13   9 F        0.791    -0.215    11.391     3.987

Wiberg/Mayer (AO) data.
largest (>0.10) Wiberg bond orders for each atom

     #   Z sym  total        # sym  WBO       # sym  WBO       # sym  WBO
 ---------------------------------------------------------------------------
     1   7 N    2.978 --     2 C    2.742
     2   6 C    3.943 --     1 N    2.742     3 C    1.136
     3   6 C    3.969 --     4 N    1.317     7 C    1.258     2 C    1.136
     4   7 N    3.003 --     5 C    1.391     3 C    1.317     6 N    0.103
     5   6 C    3.953 --     6 N    1.393     4 N    1.391    10 C    0.950
     6   7 N    3.003 --     5 C    1.393     7 C    1.315     4 N    0.103
     7   6 C    3.969 --     6 N    1.315     3 C    1.258     8 C    1.136
     8   6 C    3.943 --     9 N    2.742     7 C    1.136
     9   7 N    2.978 --     8 C    2.742
    10   6 C    3.798 --     5 C    0.950    13 F    0.948    11 F    0.928
                            12 F    0.928
    11   9 F    1.049 --    10 C    0.928
    12   9 F    1.049 --    10 C    0.928
    13   9 F    1.063 --    10 C    0.948
 ---------------------------------------------------------------------------

molecular dipole:
                 x           y           z       tot (Debye)
 q only:       -8.745      -0.131       0.151
   full:       -8.318      -0.456       0.154      21.178

           -------------------------------------------------
          | TOTAL ENERGY              -38.947756460170 Eh   |
          | GRADIENT NORM               0.000842602436 Eh/α |
          | HOMO-LUMO GAP               3.117678122057 eV   |
           -------------------------------------------------

 * finished run on 2024/12/20 at 01:54:43.016
