   * xtb version 6.7.1 (edcfbbe) compiled by 'conda@3ef47c1a292c' on 2024-11-25

   ID    Z sym.   atoms
    1    6 C      1-6, 8, 9, 11, 12
    2    8 O      7, 10, 13, 14
    3    1 H      15-23

          program call               : xtb A119.xyz --opt --namespace A119 --charge -1
          :  Hamiltonian                  GFN2-xTB          :
 * total energy  :   -42.4691300 Eh     change       -0.3754081E-09 Eh
 * total energy  :   -42.4726496 Eh     change       -0.3519640E-02 Eh
 * total energy  :   -42.4731106 Eh     change       -0.4609403E-03 Eh
 * total energy  :   -42.4731297 Eh     change       -0.1917140E-04 Eh
 * total energy  :   -42.4734567 Eh     change       -0.3269182E-03 Eh
 * total energy  :   -42.4735402 Eh     change       -0.8358169E-04 Eh
 * total energy  :   -42.4736488 Eh     change       -0.1085881E-03 Eh
 * total energy  :   -42.4737335 Eh     change       -0.8463633E-04 Eh
 * total energy  :   -42.4738375 Eh     change       -0.1040101E-03 Eh
 * total energy  :   -42.4739348 Eh     change       -0.9736266E-04 Eh
 * total energy  :   -42.4741552 Eh     change       -0.1369534E-04 Eh
 * total energy  :   -42.4741636 Eh     change       -0.8327660E-05 Eh
 * total energy  :   -42.4741785 Eh     change       -0.1490954E-04 Eh
 * total energy  :   -42.4741976 Eh     change       -0.1917687E-04 Eh
 * total energy  :   -42.4742062 Eh     change       -0.8528903E-05 Eh
 * total energy  :   -42.4742000 Eh     change        0.6213283E-05 Eh
 * total energy  :   -42.4742149 Eh     change       -0.1493170E-04 Eh
 * total energy  :   -42.4742206 Eh     change       -0.5664243E-05 Eh
 * total energy  :   -42.4742236 Eh     change       -0.3003750E-05 Eh
   *** GEOMETRY OPTIMIZATION CONVERGED AFTER 26 ITERATIONS ***

 final structure:
================
23
 xtb: 6.7.1 (edcfbbe)
C            1.06018005988436        0.04302014591298        0.12404591714115
C            0.26042514442457       -0.76290190452303       -0.93499826572678
C           -0.94326905502607       -0.38053392047943       -1.36093917508419
C           -1.78792575328369       -1.02339314498967       -2.35269124139970
C           -1.43876941729486       -2.24140198912969       -2.94905392259769
C           -2.25603163749452       -2.83279635051695       -3.88811028015959
O           -1.99935340770273       -4.03944429970228       -4.53324681176870
C           -0.81989634054203       -4.71612421926403       -4.19186156263214
C           -3.45801749320119       -2.21795947539980       -4.26451002245621
O           -4.27222601757183       -2.80708873918696       -5.20133029034699
C           -3.81375553238904       -1.01492345669148       -3.68074993200250
C           -2.99030965602376       -0.42915591730422       -2.73753590340385
O            0.47310003943467        1.00686994311197        0.63595562012242
O            2.20809103816614       -0.38269888092165        0.33145074092908
H            0.77070584073427       -1.64263927780523       -1.31044269923539
H           -1.34202553233414        0.52497388668854       -0.91646861522697
H           -0.51409434426043       -2.70955988205908       -2.65447842065145
H            0.06819600984871       -4.12069803711229       -4.42812989589774
H           -0.80233051317136       -4.98196006566761       -3.12974593453650
H           -0.81456740694451       -5.62637450864394       -4.79226018289642
H           -3.83389275861556       -3.62585915585932       -5.46685313913246
H           -4.74268333793938       -0.55285234442022       -3.97914128515210
H           -3.27942992869778        0.50974159396330       -2.28841469788500

          :  Hamiltonian                  GFN2-xTB          :
         :: total energy             -42.474223560385 Eh    ::
         :: gradient norm              0.000639660291 Eh/a0 ::
         :: HOMO-LUMO gap              1.280852135740 eV    ::
         :: SCC energy               -42.996266746321 Eh    ::
         :: -> dispersion             -0.020944771525 Eh    ::
         :: repulsion energy           0.522043185937 Eh    ::

    * Orbital Energies and Occupations

         #    Occupation            Energy/Eh            Energy/eV
      -------------------------------------------------------------
         1        2.0000           -0.6366290             -17.3236
       ...           ...                  ...                  ...
        25        2.0000           -0.3567613              -9.7080
        26        2.0000           -0.3421511              -9.3104
        27        2.0000           -0.3370393              -9.1713
        28        2.0000           -0.3261572              -8.8752
        29        2.0000           -0.3207466              -8.7280
        30        2.0000           -0.3036472              -8.2627
        31        2.0000           -0.3022628              -8.2250
        32        2.0000           -0.2890175              -7.8646
        33        2.0000           -0.2870082              -7.8099
        34        2.0000           -0.2472417              -6.7278
        35        2.0000           -0.2063475              -5.6150
        36        2.0000           -0.1920924              -5.2271
        37        2.0000           -0.1791037              -4.8737 (HOMO)
        38                         -0.1320332              -3.5928 (LUMO)
        39                         -0.1188001              -3.2327
        40                         -0.0542418              -1.4760
        41                          0.0227096               0.6180
        42                          0.0569916               1.5508
        43                          0.0935625               2.5460
        44                          0.1672460               4.5510
        45                          0.1864691               5.0741
        46                          0.1979630               5.3868
        47                          0.2294362               6.2433
        48                          0.2432507               6.6192
       ...                                ...                  ...
        65                          0.9156859              24.9171
      -------------------------------------------------------------
                  HL-Gap            0.0470704 Eh            1.2809 eV

     #   Z          covCN         q      C6AA      α(0)
     1   6 C        2.685     0.366    20.797     7.463
     2   6 C        2.884    -0.069    29.704     8.935
     3   6 C        2.898    -0.049    29.214     8.862
     4   6 C        2.968     0.008    27.837     8.654
     5   6 C        2.923    -0.074    29.838     8.958
     6   6 C        2.861     0.096    25.868     8.337
     7   8 O        1.704    -0.311    19.177     5.913
     8   6 C        3.642     0.049    20.091     6.444
     9   6 C        2.846     0.110    25.574     8.288
    10   8 O        1.658    -0.414    21.112     6.203
    11   6 C        2.915    -0.063    29.569     8.917
    12   6 C        2.927    -0.052    29.294     8.876
    13   8 O        0.856    -0.587    25.791     6.809
    14   8 O        0.857    -0.590    25.867     6.819
    15   1 H        0.925     0.008     2.929     2.676
    16   1 H        0.925     0.044     2.401     2.423
    17   1 H        0.926     0.041     2.434     2.440
    18   1 H        0.924     0.037     2.494     2.470
    19   1 H        0.924     0.036     2.497     2.471
    20   1 H        0.924     0.041     2.430     2.438
    21   1 H        0.805     0.304     0.708     1.322
    22   1 H        0.926     0.034     2.530     2.487
    23   1 H        0.926     0.033     2.546     2.495

Wiberg/Mayer (AO) data.
largest (>0.10) Wiberg bond orders for each atom

     #   Z sym  total        # sym  WBO       # sym  WBO       # sym  WBO
 ---------------------------------------------------------------------------
     1   6 C    3.948 --    13 O    1.517    14 O    1.510     2 C    0.899
     2   6 C    3.940 --     3 C    1.824    15 H    0.966     1 C    0.899
     3   6 C    3.985 --     2 C    1.824     4 C    1.108    16 H    0.957
     4   6 C    3.985 --    12 C    1.371     5 C    1.341     3 C    1.108
     5   6 C    3.986 --     6 C    1.433     4 C    1.341    17 H    0.959
     6   6 C    3.919 --     5 C    1.433     9 C    1.297     7 O    0.999
     7   8 O    2.169 --     6 C    0.999     8 C    0.992
     8   6 C    3.954 --     7 O    0.992    20 H    0.981    19 H    0.977
                            18 H    0.977
     9   6 C    3.930 --    11 C    1.392     6 C    1.297    10 O    1.046
    10   8 O    2.077 --     9 C    1.046    21 H    0.883
    11   6 C    3.986 --    12 C    1.444     9 C    1.392    22 H    0.969
    12   6 C    3.987 --    11 C    1.444     4 C    1.371    23 H    0.969
    13   8 O    1.854 --     1 C    1.517    14 O    0.244
    14   8 O    1.844 --     1 C    1.510    13 O    0.244
    15   1 H    1.000 --     2 C    0.966
    16   1 H    0.998 --     3 C    0.957
    17   1 H    0.998 --     5 C    0.959
    18   1 H    0.999 --     8 C    0.977
    19   1 H    0.999 --     8 C    0.977
    20   1 H    0.998 --     8 C    0.981
    21   1 H    0.907 --    10 O    0.883
    22   1 H    0.998 --    11 C    0.969
    23   1 H    0.999 --    12 C    0.969
 ---------------------------------------------------------------------------

molecular dipole:
                 x           y           z       tot (Debye)
 q only:       -0.934      -0.263       0.348
   full:       -0.846      -0.672       0.123       2.764

           -------------------------------------------------
          | TOTAL ENERGY              -42.474223560385 Eh   |
          | GRADIENT NORM               0.000639660291 Eh/α |
          | HOMO-LUMO GAP               1.280852135740 eV   |
           -------------------------------------------------

 * finished run on 2024/12/20 at 01:54:43.608
