   * xtb version 6.7.1 (edcfbbe) compiled by 'conda@3ef47c1a292c' on 2024-11-25

   ID    Z sym.   atoms
    1    8 O      1, 3, 6, 7
    2    7 N      2, 4, 5

          program call               : xtb A120.xyz --opt --namespace A120 --charge -1
          :  Hamiltonian                  GFN2-xTB          :
 * total energy  :   -25.0887086 Eh     change       -0.2901146E-10 Eh
 * total energy  :   -25.1012570 Eh     change       -0.1254847E-01 Eh
 * total energy  :   -25.1046209 Eh     change       -0.3363842E-02 Eh
 * total energy  :   -25.1049041 Eh     change       -0.2832537E-03 Eh
 * total energy  :   -25.1049397 Eh     change       -0.3556745E-04 Eh
 * total energy  :   -25.1049060 Eh     change        0.3366373E-04 Eh
 * total energy  :   -25.1049458 Eh     change       -0.3976392E-04 Eh
 * total energy  :   -25.1049249 Eh     change        0.2084509E-04 Eh
 * total energy  :   -25.1049439 Eh     change       -0.1899510E-04 Eh
 * total energy  :   -25.1049456 Eh     change       -0.1672473E-05 Eh
   *** GEOMETRY OPTIMIZATION CONVERGED AFTER 10 ITERATIONS ***

 final structure:
================
7
 xtb: 6.7.1 (edcfbbe)
O            1.13296019217959       -0.11486159317039        0.00966575590882
N            2.34861462863597        0.03978440555336        0.07183572694659
O            2.85503037501893        1.07226366728789        0.48238532251658
N            3.04362010976234       -1.00665064449762       -0.34549952140281
N            4.36677026525237       -1.04230628606002       -0.36045998583938
O            5.07584686490136       -0.11912842860080        0.00833463513076
O            4.83021756424943       -2.09826112051242       -0.77971193326057

          :  Hamiltonian                  GFN2-xTB          :
         :: total energy             -25.104945604793 Eh    ::
         :: gradient norm              0.000783628164 Eh/a0 ::
         :: HOMO-LUMO gap              3.220132974626 eV    ::
         :: SCC energy               -25.196737625947 Eh    ::
         :: -> dispersion             -0.004737920450 Eh    ::
         :: repulsion energy           0.091792021153 Eh    ::

    * Orbital Energies and Occupations

         #    Occupation            Energy/Eh            Energy/eV
      -------------------------------------------------------------
         1        2.0000           -0.6071924             -16.5225
       ...           ...                  ...                  ...
         8        2.0000           -0.4674955             -12.7212
         9        2.0000           -0.4571374             -12.4393
        10        2.0000           -0.4487907             -12.2122
        11        2.0000           -0.4309607             -11.7270
        12        2.0000           -0.4181481             -11.3784
        13        2.0000           -0.3267064              -8.8901
        14        2.0000           -0.3032298              -8.2513
        15        2.0000           -0.3006316              -8.1806
        16        2.0000           -0.2892656              -7.8713
        17        2.0000           -0.2785865              -7.5807
        18        2.0000           -0.2754699              -7.4959
        19        2.0000           -0.2711900              -7.3795
        20        2.0000           -0.2673090              -7.2738 (HOMO)
        21                         -0.1489713              -4.0537 (LUMO)
        22                         -0.0763181              -2.0767
        23                          0.1447078               3.9377
        24                          0.2318543               6.3091
        25                          0.4149119              11.2903
        26                          0.4188840              11.3984
        27                          0.5453864              14.8407
        28                          0.6253336              17.0162
      -------------------------------------------------------------
                  HL-Gap            0.1183377 Eh            3.2201 eV

     #   Z          covCN         q      C6AA      α(0)
     1   8 O        0.941    -0.477    23.235     6.465
     2   7 N        2.833     0.614    12.813     5.316
     3   8 O        0.927    -0.465    22.996     6.431
     4   7 N        2.000    -0.343    29.706     8.084
     5   7 N        2.833     0.614    12.813     5.316
     6   8 O        0.927    -0.465    22.997     6.431
     7   8 O        0.941    -0.477    23.235     6.465

Wiberg/Mayer (AO) data.
largest (>0.10) Wiberg bond orders for each atom

     #   Z sym  total        # sym  WBO       # sym  WBO       # sym  WBO
 ---------------------------------------------------------------------------
     1   8 O    1.825 --     2 N    1.352     3 O    0.268     4 N    0.126
     2   7 N    3.937 --     3 O    1.379     1 O    1.352     4 N    1.168
     3   8 O    1.857 --     2 N    1.379     1 O    0.268     4 N    0.154
     4   7 N    2.896 --     5 N    1.168     2 N    1.168     3 O    0.154
                             6 O    0.154     7 O    0.126     1 O    0.126
     5   7 N    3.937 --     6 O    1.379     7 O    1.352     4 N    1.168
     6   8 O    1.857 --     5 N    1.379     7 O    0.268     4 N    0.154
     7   8 O    1.825 --     5 N    1.352     6 O    0.268     4 N    0.126
 ---------------------------------------------------------------------------

molecular dipole:
                 x           y           z       tot (Debye)
 q only:       -6.533       0.646       0.152
   full:       -6.423       0.823       0.222      16.468

           -------------------------------------------------
          | TOTAL ENERGY              -25.104945604793 Eh   |
          | GRADIENT NORM               0.000783628164 Eh/α |
          | HOMO-LUMO GAP               3.220132974626 eV   |
           -------------------------------------------------

 * finished run on 2024/12/20 at 01:54:43.659
