   * xtb version 6.7.1 (edcfbbe) compiled by 'conda@3ef47c1a292c' on 2024-11-25

   ID    Z sym.   atoms
    1    9 F      1, 3, 4, 6, 7, 9, 10, 12, 13, 22, 23, 25, 26, 28, 29, 31-33
    2    6 C      2, 5, 8, 11, 21, 24, 27, 30
    3   16 S      14, 18
    4    8 O      15, 16, 19, 20
    5    7 N      17

          program call               : xtb A121.xyz --opt --namespace A121 --charge -1
          :  Hamiltonian                  GFN2-xTB          :
 * total energy  :  -128.1964445 Eh     change       -0.1904539E-09 Eh
 * total energy  :  -128.2138427 Eh     change       -0.1739822E-01 Eh
 * total energy  :  -128.2222334 Eh     change       -0.8390672E-02 Eh
 * total energy  :  -128.2239311 Eh     change       -0.1697738E-02 Eh
 * total energy  :  -128.2249162 Eh     change       -0.9851074E-03 Eh
 * total energy  :  -128.2250720 Eh     change       -0.1557908E-03 Eh
 * total energy  :  -128.2251278 Eh     change       -0.5579454E-04 Eh
 * total energy  :  -128.2251696 Eh     change       -0.4177700E-04 Eh
 * total energy  :  -128.2251870 Eh     change       -0.1746968E-04 Eh
 * total energy  :  -128.2252128 Eh     change       -0.2574514E-04 Eh
 * total energy  :  -128.2317153 Eh     change       -0.1655910E-04 Eh
 * total energy  :  -128.2317215 Eh     change       -0.6229584E-05 Eh
 * total energy  :  -128.2317321 Eh     change       -0.1059363E-04 Eh
 * total energy  :  -128.2317201 Eh     change        0.1197252E-04 Eh
 * total energy  :  -128.2317343 Eh     change       -0.1422435E-04 Eh
 * total energy  :  -128.2317397 Eh     change       -0.5412044E-05 Eh
 * total energy  :  -128.2317305 Eh     change        0.9225581E-05 Eh
 * total energy  :  -128.2317408 Eh     change       -0.1023839E-04 Eh
 * total energy  :  -128.2317446 Eh     change       -0.3789976E-05 Eh
   *** GEOMETRY OPTIMIZATION CONVERGED AFTER 119 ITERATIONS ***

 final structure:
================
33
 xtb: 6.7.1 (edcfbbe)
F            1.02440809387817        0.87849202129821       -1.35669480112618
C            2.25038965468246        0.58874751271814       -0.91433331084073
F            2.13007896986755        0.21975269616373        0.35664831613975
F            2.68339410030513       -0.45525593244091       -1.60982845194518
C            3.18063817688596        1.82929878296416       -1.06096960891784
F            2.97370044591577        2.36275265386161       -2.27718764302756
F            2.77892495657070        2.74103062485591       -0.15636154961166
C            4.69342390947423        1.47568621810973       -0.87845973052479
F            4.79020847282936        0.57294417249210        0.11751599690528
F            5.08852096076696        0.85419290661154       -2.00401527040309
C            5.59221175152136        2.68334644229622       -0.57084786389771
F            5.18547578662049        3.75367247027318       -1.28580812846259
F            5.43115390463140        3.00653244300890        0.72963894870801
S            7.44532515016415        2.32568161030380       -0.94753770038382
O            7.65217747581617        1.05997221342430       -0.32321423985011
O            7.51845613411329        2.40763013030688       -2.36730303462990
N            8.01032688538671        3.57354240029546       -0.15296492997997
S            9.52333788996006        3.84991126579654       -0.44336964798291
O           10.19611199970095        4.50285131897931        0.63320175915483
O           10.19942417714051        2.79321675910249       -1.12517953851307
C            9.44479489914610        5.26728436670358       -1.75426347163236
F            8.40588092146460        5.11788587128648       -2.59739331124884
F            9.24038026460053        6.44259742139353       -1.11263384144992
C           10.74539060581747        5.34400695112329       -2.56358341143226
F           11.81079289939935        5.14469053316373       -1.76317847729615
F           10.77112103649609        4.37813537572854       -3.49820776469355
C           10.97792680357737        6.71618912886174       -3.27945363501102
F            9.84104234989327        7.19031372894582       -3.81902930736790
F           11.40232360851315        7.63280462896513       -2.39046739528181
C           12.03597385237172        6.63027347057871       -4.41807574209352
F           13.13473306407034        5.98859735627387       -4.03979729034103
F           11.54885124529830        6.02392693054278       -5.49399437622751
F           12.40636955312317        7.85802552602296       -4.79355154673753

          :  Hamiltonian                  GFN2-xTB          :
         :: total energy            -128.231744550833 Eh    ::
         :: gradient norm              0.000665090878 Eh/a0 ::
         :: HOMO-LUMO gap              6.147550319654 eV    ::
         :: SCC energy              -128.630738819142 Eh    ::
         :: -> dispersion             -0.043263606710 Eh    ::
         :: repulsion energy           0.398994268309 Eh    ::

    * Orbital Energies and Occupations

         #    Occupation            Energy/Eh            Energy/eV
      -------------------------------------------------------------
         1        2.0000           -0.8628821             -23.4802
       ...           ...                  ...                  ...
        88        2.0000           -0.4342588             -11.8168
        89        2.0000           -0.4209330             -11.4542
        90        2.0000           -0.4199620             -11.4277
        91        2.0000           -0.4055441             -11.0354
        92        2.0000           -0.3788574             -10.3092
        93        2.0000           -0.3764471             -10.2436
        94        2.0000           -0.3684385             -10.0257
        95        2.0000           -0.3607507              -9.8165
        96        2.0000           -0.3585927              -9.7578
        97        2.0000           -0.3521270              -9.5819
        98        2.0000           -0.3410094              -9.2793
        99        2.0000           -0.3306109              -8.9964
       100        2.0000           -0.3160231              -8.5994 (HOMO)
       101                         -0.0901048              -2.4519 (LUMO)
       102                         -0.0700298              -1.9056
       103                         -0.0495836              -1.3492
       104                         -0.0249747              -0.6796
       105                         -0.0210120              -0.5718
       106                         -0.0193872              -0.5276
       107                         -0.0004657              -0.0127
       108                          0.0040151               0.1093
       109                          0.0245418               0.6678
       110                          0.0333764               0.9082
       111                          0.0350136               0.9528
       ...                                ...                  ...
       142                          1.3848945              37.6849
      -------------------------------------------------------------
                  HL-Gap            0.2259183 Eh            6.1476 eV

     #   Z          covCN         q      C6AA      α(0)
     1   9 F        0.792    -0.170    10.926     3.904
     2   6 C        3.328     0.488    17.365     6.616
     3   9 F        0.791    -0.166    10.893     3.899
     4   9 F        0.791    -0.167    10.903     3.901
     5   6 C        3.517     0.315    16.984     6.082
     6   9 F        0.789    -0.169    10.922     3.904
     7   9 F        0.789    -0.173    10.961     3.911
     8   6 C        3.527     0.319    16.825     6.034
     9   9 F        0.789    -0.182    11.052     3.927
    10   9 F        0.789    -0.182    11.047     3.926
    11   6 C        3.496     0.194    18.957     6.469
    12   9 F        0.796    -0.194    11.174     3.949
    13   9 F        0.795    -0.188    11.113     3.938
    14  16 S        4.243     1.272    99.198    16.763
    15   8 O        0.860    -0.576    25.524     6.774
    16   8 O        0.860    -0.576    25.544     6.776
    17   7 N        1.829    -0.648    39.511     9.314
    18  16 S        4.239     1.249    99.813    16.815
    19   8 O        0.860    -0.554    25.018     6.706
    20   8 O        0.861    -0.606    26.273     6.872
    21   6 C        3.495     0.189    19.056     6.490
    22   9 F        0.793    -0.191    11.140     3.943
    23   9 F        0.796    -0.197    11.205     3.954
    24   6 C        3.529     0.322    16.774     6.022
    25   9 F        0.790    -0.183    11.066     3.929
    26   9 F        0.789    -0.180    11.028     3.923
    27   6 C        3.517     0.315    16.983     6.081
    28   9 F        0.789    -0.173    10.960     3.911
    29   9 F        0.789    -0.171    10.940     3.907
    30   6 C        3.328     0.488    17.361     6.615
    31   9 F        0.791    -0.168    10.910     3.902
    32   9 F        0.791    -0.165    10.883     3.897
    33   9 F        0.792    -0.171    10.941     3.907

Wiberg/Mayer (AO) data.
largest (>0.10) Wiberg bond orders for each atom

     #   Z sym  total        # sym  WBO       # sym  WBO       # sym  WBO
 ---------------------------------------------------------------------------
     1   9 F    1.100 --     2 C    0.967
     2   6 C    3.872 --     4 F    0.977     3 F    0.975     1 F    0.967
                             5 C    0.894
     3   9 F    1.107 --     2 C    0.975
     4   9 F    1.108 --     2 C    0.977
     5   6 C    3.888 --     6 F    0.978     7 F    0.974     8 C    0.900
                             2 C    0.894
     6   9 F    1.092 --     5 C    0.978
     7   9 F    1.088 --     5 C    0.974
     8   6 C    3.876 --    10 F    0.969     9 F    0.968    11 C    0.930
                             5 C    0.900
     9   9 F    1.080 --     8 C    0.968
    10   9 F    1.085 --     8 C    0.969
    11   6 C    3.780 --    13 F    0.969    12 F    0.966     8 C    0.930
                            14 S    0.642
    12   9 F    1.077 --    11 C    0.966
    13   9 F    1.082 --    11 C    0.969
    14  16 S    4.979 --    16 O    1.589    15 O    1.585    17 N    1.059
                            11 C    0.642
    15   8 O    1.906 --    14 S    1.585    16 O    0.117    17 N    0.101
    16   8 O    1.908 --    14 S    1.589    15 O    0.117    17 N    0.105
    17   7 N    2.755 --    18 S    1.139    14 S    1.059    20 O    0.109
                            16 O    0.105    15 O    0.101
    18  16 S    5.031 --    19 O    1.615    20 O    1.560    17 N    1.139
                            21 C    0.618
    19   8 O    1.925 --    18 S    1.615    20 O    0.112
    20   8 O    1.882 --    18 S    1.560    19 O    0.112    17 N    0.109
    21   6 C    3.769 --    22 F    0.971    23 F    0.962    24 C    0.932
                            18 S    0.618
    22   9 F    1.085 --    21 C    0.971
    23   9 F    1.072 --    21 C    0.962
    24   6 C    3.878 --    26 F    0.972    25 F    0.966    21 C    0.932
                            27 C    0.898
    25   9 F    1.081 --    24 C    0.966
    26   9 F    1.084 --    24 C    0.972
    27   6 C    3.884 --    29 F    0.976    28 F    0.975    24 C    0.898
                            30 C    0.895
    28   9 F    1.089 --    27 C    0.975
    29   9 F    1.090 --    27 C    0.976
    30   6 C    3.872 --    32 F    0.977    31 F    0.976    33 F    0.966
                            27 C    0.895
    31   9 F    1.107 --    30 C    0.976
    32   9 F    1.109 --    30 C    0.977
    33   9 F    1.098 --    30 C    0.966
 ---------------------------------------------------------------------------

molecular dipole:
                 x           y           z       tot (Debye)
 q only:      -15.764      -6.088       2.181
   full:      -15.835      -6.030       2.012      43.371

           -------------------------------------------------
          | TOTAL ENERGY             -128.231744550833 Eh   |
          | GRADIENT NORM               0.000665090878 Eh/α |
          | HOMO-LUMO GAP               6.147550319654 eV   |
           -------------------------------------------------

 * finished run on 2024/12/20 at 01:54:47.275
