   * xtb version 6.7.1 (edcfbbe) compiled by 'conda@3ef47c1a292c' on 2024-11-25

   ID    Z sym.   atoms
    1   53 I      1

          program call               : xtb A122.xyz --opt --namespace A122 --charge -1
          :  Hamiltonian                  GFN2-xTB          :

 final structure:
================
1
 xtb: 6.7.1 (edcfbbe)
I            1.00271000000000        0.09986000000000        0.00459000000000

          :  Hamiltonian                  GFN2-xTB          :
         :: total energy              -4.060355599036 Eh    ::
         :: gradient norm              0.000000000000 Eh/a0 ::
         :: HOMO-LUMO gap             15.286539201189 eV    ::
         :: SCC energy                -4.060355599036 Eh    ::
         :: -> dispersion              0.000000000000 Eh    ::
         :: repulsion energy           0.000000000000 Eh    ::

    * Orbital Energies and Occupations

         #    Occupation            Energy/Eh            Energy/eV
      -------------------------------------------------------------
         1        2.0000           -0.3932413             -10.7006
         2        2.0000           -0.1374633              -3.7406
         3        2.0000           -0.1374633              -3.7406
         4        2.0000           -0.1374633              -3.7406 (HOMO)
         5                          0.4243067              11.5460 (LUMO)
         6                          0.4243067              11.5460
         7                          0.4243067              11.5460
         8                          0.4243067              11.5460
         9                          0.4243067              11.5460
      -------------------------------------------------------------
                  HL-Gap            0.5617700 Eh           15.2865 eV

     #   Z          covCN         q      C6AA      α(0)
     1  53 I        0.000    -1.000   432.871    35.991

Wiberg/Mayer (AO) data.
largest (>0.10) Wiberg bond orders for each atom

     #   Z sym  total        # sym  WBO       # sym  WBO       # sym  WBO
 ---------------------------------------------------------------------------
     1  53 I    0.000
 ---------------------------------------------------------------------------

molecular dipole:
                 x           y           z       tot (Debye)
 q only:       -1.895      -0.189      -0.009
   full:       -1.895      -0.189      -0.009       4.840

           -------------------------------------------------
          | TOTAL ENERGY               -4.060355599036 Eh   |
          | GRADIENT NORM               0.000000000000 Eh/α |
          | HOMO-LUMO GAP              15.286539201189 eV   |
           -------------------------------------------------

 * finished run on 2024/12/20 at 01:54:47.300
