   * xtb version 6.7.1 (edcfbbe) compiled by 'conda@3ef47c1a292c' on 2024-11-25

   ID    Z sym.   atoms
    1    6 C      1-4
    2    8 O      5, 7-9
    3   16 S      6
    4    1 H      10-18

          program call               : xtb A123.xyz --opt --namespace A123 --charge -1
          :  Hamiltonian                  GFN2-xTB          :
 * total energy  :   -32.9505479 Eh     change       -0.1159393E-09 Eh
 * total energy  :   -32.9541882 Eh     change       -0.3640358E-02 Eh
 * total energy  :   -32.9564297 Eh     change       -0.2241480E-02 Eh
 * total energy  :   -32.9568219 Eh     change       -0.3921662E-03 Eh
 * total energy  :   -32.9570204 Eh     change       -0.1985527E-03 Eh
 * total energy  :   -32.9570746 Eh     change       -0.5418436E-04 Eh
 * total energy  :   -32.9571095 Eh     change       -0.3483628E-04 Eh
 * total energy  :   -32.9571326 Eh     change       -0.2318614E-04 Eh
 * total energy  :   -32.9571600 Eh     change       -0.2732021E-04 Eh
 * total energy  :   -32.9571915 Eh     change       -0.3149735E-04 Eh
 * total energy  :   -32.9582189 Eh     change       -0.6661597E-04 Eh
 * total energy  :   -32.9582768 Eh     change       -0.5790948E-04 Eh
 * total energy  :   -32.9583315 Eh     change       -0.5468711E-04 Eh
 * total energy  :   -32.9583830 Eh     change       -0.5154741E-04 Eh
 * total energy  :   -32.9584379 Eh     change       -0.5492067E-04 Eh
 * total energy  :   -32.9584662 Eh     change       -0.2823156E-04 Eh
 * total energy  :   -32.9584874 Eh     change       -0.2118291E-04 Eh
 * total energy  :   -32.9585016 Eh     change       -0.1426553E-04 Eh
 * total energy  :   -32.9585060 Eh     change       -0.4401715E-05 Eh
   *** GEOMETRY OPTIMIZATION CONVERGED AFTER 35 ITERATIONS ***

 final structure:
================
18
 xtb: 6.7.1 (edcfbbe)
C            1.42481999789425        0.56741175556355        0.38390401287718
C            0.40501232183764       -0.01818146564842        1.36784816027252
C            0.27322127057390        0.79095982295512        2.65812339279174
C           -0.14508268777582        2.23340870197138        2.40442795849393
O            0.86293849257113        1.58016454684678       -0.38749128149009
S            2.03246060191367        2.74180508224472       -0.62756495083488
O            2.35187224386396        3.23059859452539        0.70646701407428
O            3.13309512756216        2.03165198385998       -1.25418657092902
O            1.37143780098696        3.71025920250761       -1.47312641020160
H            1.79574336498207       -0.22594545831595       -0.28486918183709
H            2.28548454999369        0.98367597463475        0.91930505645229
H           -0.56066317994959       -0.05804637371542        0.85952536500870
H            0.70516672314354       -1.04122772108226        1.61659963603418
H           -0.45996048140877        0.29575372422550        3.30830604893058
H            1.23521399735991        0.78488064318995        3.17703514667808
H           -1.07376913314746        2.26586691902154        1.83864707006512
H           -0.29029146335353        2.75817639814567        3.34889576978564
H            0.62382045295266        2.74630766907033        1.82883376382810

          :  Hamiltonian                  GFN2-xTB          :
         :: total energy             -32.958506018890 Eh    ::
         :: gradient norm              0.000577820704 Eh/a0 ::
         :: HOMO-LUMO gap              8.618874014617 eV    ::
         :: SCC energy               -33.218573267261 Eh    ::
         :: -> dispersion             -0.015881340396 Eh    ::
         :: repulsion energy           0.260067248371 Eh    ::

    * Orbital Energies and Occupations

         #    Occupation            Energy/Eh            Energy/eV
      -------------------------------------------------------------
         1        2.0000           -0.5724116             -15.5761
       ...           ...                  ...                  ...
        16        2.0000           -0.3298161              -8.9748
        17        2.0000           -0.3265715              -8.8865
        18        2.0000           -0.3203664              -8.7176
        19        2.0000           -0.3183388              -8.6624
        20        2.0000           -0.3127316              -8.5099
        21        2.0000           -0.3047377              -8.2923
        22        2.0000           -0.2707866              -7.3685
        23        2.0000           -0.2612932              -7.1101
        24        2.0000           -0.2570046              -6.9935
        25        2.0000           -0.2536602              -6.9024
        26        2.0000           -0.2427699              -6.6061
        27        2.0000           -0.2413822              -6.5683
        28        2.0000           -0.2315802              -6.3016 (HOMO)
        29                          0.0851575               2.3173 (LUMO)
        30                          0.1422447               3.8707
        31                          0.1978130               5.3828
        32                          0.2071876               5.6379
        33                          0.2147834               5.8446
        34                          0.2334042               6.3513
        35                          0.2472208               6.7272
        36                          0.2591046               7.0506
        37                          0.2742968               7.4640
        38                          0.2897570               7.8847
        39                          0.3113748               8.4729
       ...                                ...                  ...
        50                          1.4210122              38.6677
      -------------------------------------------------------------
                  HL-Gap            0.3167378 Eh            8.6189 eV

     #   Z          covCN         q      C6AA      α(0)
     1   6 C        3.971     0.099    18.879     6.173
     2   6 C        3.800    -0.061    21.670     6.628
     3   6 C        3.799    -0.044    21.367     6.581
     4   6 C        3.751    -0.110    22.657     6.788
     5   8 O        1.707    -0.482    22.480     6.402
     6  16 S        3.731     1.455    94.561    16.367
     7   8 O        0.860    -0.715    29.121     7.235
     8   8 O        0.860    -0.714    29.091     7.231
     9   8 O        0.860    -0.682    28.224     7.123
    10   1 H        0.923     0.010     2.898     2.662
    11   1 H        0.924     0.034     2.535     2.490
    12   1 H        0.924     0.040     2.448     2.447
    13   1 H        0.924     0.013     2.842     2.636
    14   1 H        0.923     0.008     2.917     2.671
    15   1 H        0.924     0.025     2.664     2.553
    16   1 H        0.925     0.026     2.640     2.541
    17   1 H        0.925     0.013     2.838     2.635
    18   1 H        0.925     0.084     1.934     2.175

Wiberg/Mayer (AO) data.
largest (>0.10) Wiberg bond orders for each atom

     #   Z sym  total        # sym  WBO       # sym  WBO       # sym  WBO
 ---------------------------------------------------------------------------
     1   6 C    3.952 --     5 O    0.995     2 C    0.994    10 H    0.969
                            11 H    0.964
     2   6 C    3.998 --     3 C    1.008     1 C    0.994    13 H    0.979
                            12 H    0.977
     3   6 C    3.999 --     4 C    1.020     2 C    1.008    15 H    0.979
                            14 H    0.979
     4   6 C    3.990 --     3 C    1.020    17 H    0.988    16 H    0.988
                            18 H    0.968
     5   8 O    2.036 --     1 C    0.995     6 S    0.789
     6  16 S    5.042 --     9 O    1.447     8 O    1.405     7 O    1.382
                             5 O    0.789
     7   8 O    1.725 --     6 S    1.382     8 O    0.119     9 O    0.118
     8   8 O    1.720 --     6 S    1.405     9 O    0.119     7 O    0.119
     9   8 O    1.757 --     6 S    1.447     8 O    0.119     7 O    0.118
    10   1 H    1.000 --     1 C    0.969
    11   1 H    0.999 --     1 C    0.964
    12   1 H    0.998 --     2 C    0.977
    13   1 H    0.999 --     2 C    0.979
    14   1 H    1.000 --     3 C    0.979
    15   1 H    0.999 --     3 C    0.979
    16   1 H    0.999 --     4 C    0.988
    17   1 H    1.000 --     4 C    0.988
    18   1 H    0.993 --     4 C    0.968
 ---------------------------------------------------------------------------

molecular dipole:
                 x           y           z       tot (Debye)
 q only:       -3.901      -5.520       1.284
   full:       -3.968      -5.770       1.336      18.120

           -------------------------------------------------
          | TOTAL ENERGY              -32.958506018890 Eh   |
          | GRADIENT NORM               0.000577820704 Eh/α |
          | HOMO-LUMO GAP               8.618874014617 eV   |
           -------------------------------------------------

 * finished run on 2024/12/20 at 01:54:47.730
