   * xtb version 6.7.1 (edcfbbe) compiled by 'conda@3ef47c1a292c' on 2024-11-25

   ID    Z sym.   atoms
    1    8 O      1, 5
    2   15 P      2
    3    9 F      3, 4

          program call               : xtb A124.xyz --opt --namespace A124 --charge -1
          :  Hamiltonian                  GFN2-xTB          :
 * total energy  :   -20.5293966 Eh     change       -0.2875566E-10 Eh
 * total energy  :   -20.5379710 Eh     change       -0.8574428E-02 Eh
 * total energy  :   -20.5454338 Eh     change       -0.7462764E-02 Eh
 * total energy  :   -20.5456463 Eh     change       -0.2125376E-03 Eh
 * total energy  :   -20.5457012 Eh     change       -0.5489344E-04 Eh
 * total energy  :   -20.5457076 Eh     change       -0.6373475E-05 Eh
 * total energy  :   -20.5457105 Eh     change       -0.2935821E-05 Eh
   *** GEOMETRY OPTIMIZATION CONVERGED AFTER 7 ITERATIONS ***

 final structure:
================
5
 xtb: 6.7.1 (edcfbbe)
O            1.33580386086924       -0.05115078810434       -0.57122570765816
P            2.65065117531438        0.08958353708605        0.05680528378259
F            2.66815926846841        1.50580563518361        0.93228458977446
F            2.66816039335066       -0.81758983881893        1.45293737299978
O            3.94554530199731       -0.05973854534639       -0.60953153889866

          :  Hamiltonian                  GFN2-xTB          :
         :: total energy             -20.545710538789 Eh    ::
         :: gradient norm              0.000265008902 Eh/a0 ::
         :: HOMO-LUMO gap              9.079206832117 eV    ::
         :: SCC energy               -20.612870954823 Eh    ::
         :: -> dispersion             -0.002995881195 Eh    ::
         :: repulsion energy           0.067160416034 Eh    ::

    * Orbital Energies and Occupations

         #    Occupation            Energy/Eh            Energy/eV
      -------------------------------------------------------------
         1        2.0000           -0.6458729             -17.5751
       ...           ...                  ...                  ...
         4        2.0000           -0.4858589             -13.2209
         5        2.0000           -0.4088510             -11.1254
         6        2.0000           -0.3774245             -10.2702
         7        2.0000           -0.3671664              -9.9911
         8        2.0000           -0.3578630              -9.7379
         9        2.0000           -0.3326199              -9.0510
        10        2.0000           -0.3306121              -8.9964
        11        2.0000           -0.3192684              -8.6877
        12        2.0000           -0.3021139              -8.2209
        13        2.0000           -0.2777945              -7.5592
        14        2.0000           -0.2703335              -7.3561
        15        2.0000           -0.2639638              -7.1828
        16        2.0000           -0.2492683              -6.7829 (HOMO)
        17                          0.0843864               2.2963 (LUMO)
        18                          0.1513210               4.1177
        19                          0.1658929               4.5142
        20                          0.3038251               8.2675
        21                          0.4014088              10.9229
        22                          0.4884316              13.2909
        23                          1.0366980              28.2100
        24                          1.2949548              35.2375
        25                          1.4021989              38.1558
      -------------------------------------------------------------
                  HL-Gap            0.3336547 Eh            9.0792 eV

     #   Z          covCN         q      C6AA      α(0)
     1   8 O        0.808    -0.440    22.525     6.362
     2  15 P        3.095     0.395   143.879    21.548
     3   9 F        0.740    -0.257    11.849     4.065
     4   9 F        0.740    -0.257    11.849     4.065
     5   8 O        0.808    -0.440    22.525     6.362

Wiberg/Mayer (AO) data.
largest (>0.10) Wiberg bond orders for each atom

     #   Z sym  total        # sym  WBO       # sym  WBO       # sym  WBO
 ---------------------------------------------------------------------------
     1   8 O    2.141 --     2 P    1.904     5 O    0.104
     2  15 P    5.854 --     5 O    1.904     1 O    1.904     4 F    1.023
                             3 F    1.023
     3   9 F    1.191 --     2 P    1.023
     4   9 F    1.191 --     2 P    1.023
     5   8 O    2.141 --     2 P    1.904     1 O    0.104
 ---------------------------------------------------------------------------

molecular dipole:
                 x           y           z       tot (Debye)
 q only:       -5.009      -0.175      -0.135
   full:       -5.008      -0.149      -0.017      12.734

           -------------------------------------------------
          | TOTAL ENERGY              -20.545710538789 Eh   |
          | GRADIENT NORM               0.000265008902 Eh/α |
          | HOMO-LUMO GAP               9.079206832117 eV   |
           -------------------------------------------------

 * finished run on 2024/12/20 at 01:54:47.803
