   * xtb version 6.7.1 (edcfbbe) compiled by 'conda@3ef47c1a292c' on 2024-11-25

   ID    Z sym.   atoms
    1    9 F      1, 9-16
    2    6 C      2, 3, 6-8
    3    8 O      4, 5

          program call               : xtb A125.xyz --opt --namespace A125 --charge -1
          :  Hamiltonian                  GFN2-xTB          :
 * total energy  :   -61.6686159 Eh     change       -0.3729639E-10 Eh
 * total energy  :   -61.6813818 Eh     change       -0.1276596E-01 Eh
 * total energy  :   -61.6864605 Eh     change       -0.5078638E-02 Eh
 * total energy  :   -61.6884708 Eh     change       -0.2010324E-02 Eh
 * total energy  :   -61.6895353 Eh     change       -0.1064511E-02 Eh
 * total energy  :   -61.6901846 Eh     change       -0.6493103E-03 Eh
 * total energy  :   -61.6903904 Eh     change       -0.2057774E-03 Eh
 * total energy  :   -61.6904563 Eh     change       -0.6595656E-04 Eh
 * total energy  :   -61.6904669 Eh     change       -0.1050404E-04 Eh
 * total energy  :   -61.6904740 Eh     change       -0.7194230E-05 Eh
 * total energy  :   -61.6904772 Eh     change       -0.3179270E-05 Eh
   *** GEOMETRY OPTIMIZATION CONVERGED AFTER 11 ITERATIONS ***

 final structure:
================
16
 xtb: 6.7.1 (edcfbbe)
F            1.32984916688008       -0.41391721637970       -0.37132850576606
C            2.60827596877940        0.00409952436652       -0.10168608589377
C            2.89998976837875        1.69538059616107       -0.61428661922406
O            4.06878778224060        1.94719155128472       -0.51797918901216
O            1.86780196749835        2.21269536582591       -0.93395352888709
C            2.86533412691154       -0.21324289315822        1.39312177705218
C            2.32914326761300       -1.55161169587472        2.00085460587009
C            2.80113007001195       -2.84848488990072        1.29864554852700
F            4.11401496951414       -2.87358586677190        1.09800360447199
F            2.51722379011498       -3.90273918213294        2.08452862082892
F            2.18892376742276       -3.06751845493063        0.14518502829357
F            2.73634964567404       -1.64586452734740        3.29478244457566
F            0.98294009435152       -1.56504500432760        2.04044589305806
F            4.18816265166513       -0.17457554061341        1.66547586873000
F            2.30185651282353        0.77703401559954        2.12684968289949
F            3.41754645012023       -0.88209578180051       -0.77507914552383

          :  Hamiltonian                  GFN2-xTB          :
         :: total energy             -61.690477225709 Eh    ::
         :: gradient norm              0.000621207734 Eh/a0 ::
         :: HOMO-LUMO gap              5.657410189357 eV    ::
         :: SCC energy               -61.896170658594 Eh    ::
         :: -> dispersion             -0.014873136823 Eh    ::
         :: repulsion energy           0.205693432885 Eh    ::

    * Orbital Energies and Occupations

         #    Occupation            Energy/Eh            Energy/eV
      -------------------------------------------------------------
         1        2.0000           -0.8234259             -22.4066
       ...           ...                  ...                  ...
        36        2.0000           -0.4314000             -11.7390
        37        2.0000           -0.4273832             -11.6297
        38        2.0000           -0.4268175             -11.6143
        39        2.0000           -0.4131549             -11.2425
        40        2.0000           -0.3981231             -10.8335
        41        2.0000           -0.3927687             -10.6878
        42        2.0000           -0.3904717             -10.6253
        43        2.0000           -0.3825469             -10.4096
        44        2.0000           -0.3784209             -10.2974
        45        2.0000           -0.3650373              -9.9332
        46        2.0000           -0.2931734              -7.9777
        47        2.0000           -0.2839880              -7.7277
        48        2.0000           -0.2535651              -6.8999 (HOMO)
        49                         -0.0456591              -1.2424 (LUMO)
        50                          0.0120756               0.3286
        51                          0.0318186               0.8658
        52                          0.0372711               1.0142
        53                          0.0740048               2.0138
        54                          0.0865616               2.3555
        55                          0.1100832               2.9955
        56                          0.1449831               3.9452
        57                          0.1818017               4.9471
        58                          0.1943616               5.2888
        59                          0.2207424               6.0067
       ...                                ...                  ...
        64                          1.0191523              27.7325
      -------------------------------------------------------------
                  HL-Gap            0.2079060 Eh            5.6574 eV

     #   Z          covCN         q      C6AA      α(0)
     1   9 F        0.786    -0.245    11.716     4.043
     2   6 C        3.392     0.196    20.674     7.047
     3   6 C        2.560     0.395    20.371     7.378
     4   8 O        0.856    -0.465    23.018     6.432
     5   8 O        0.856    -0.455    22.822     6.405
     6   6 C        3.518     0.323    16.864     6.058
     7   6 C        3.518     0.313    17.002     6.082
     8   6 C        3.330     0.488    17.345     6.610
     9   9 F        0.791    -0.172    10.950     3.909
    10   9 F        0.792    -0.191    11.139     3.942
    11   9 F        0.791    -0.162    10.854     3.892
    12   9 F        0.789    -0.196    11.198     3.953
    13   9 F        0.789    -0.182    11.050     3.927
    14   9 F        0.789    -0.196    11.192     3.952
    15   9 F        0.789    -0.199    11.227     3.958
    16   9 F        0.787    -0.251    11.776     4.054

Wiberg/Mayer (AO) data.
largest (>0.10) Wiberg bond orders for each atom

     #   Z sym  total        # sym  WBO       # sym  WBO       # sym  WBO
 ---------------------------------------------------------------------------
     1   9 F    1.031 --     2 C    0.933
     2   6 C    3.590 --     1 F    0.933     6 C    0.931    16 F    0.927
                             3 C    0.560
     3   6 C    3.945 --     5 O    1.675     4 O    1.666     2 C    0.560
     4   8 O    2.038 --     3 C    1.666     5 O    0.264
     5   8 O    2.049 --     3 C    1.675     4 O    0.264
     6   6 C    3.848 --    14 F    0.962    15 F    0.956     2 C    0.931
                             7 C    0.895
     7   6 C    3.869 --    13 F    0.972    12 F    0.953     8 C    0.904
                             6 C    0.895
     8   6 C    3.866 --    11 F    0.983     9 F    0.974    10 F    0.949
                             7 C    0.904
     9   9 F    1.104 --     8 C    0.974
    10   9 F    1.079 --     8 C    0.949
    11   9 F    1.114 --     8 C    0.983
    12   9 F    1.064 --     7 C    0.953
    13   9 F    1.082 --     7 C    0.972
    14   9 F    1.070 --     6 C    0.962
    15   9 F    1.067 --     6 C    0.956
    16   9 F    1.024 --     2 C    0.927
 ---------------------------------------------------------------------------

molecular dipole:
                 x           y           z       tot (Debye)
 q only:       -5.263      -1.208       0.039
   full:       -5.302      -1.500       0.181      14.013

           -------------------------------------------------
          | TOTAL ENERGY              -61.690477225709 Eh   |
          | GRADIENT NORM               0.000621207734 Eh/α |
          | HOMO-LUMO GAP               5.657410189357 eV   |
           -------------------------------------------------

 * finished run on 2024/12/20 at 01:54:48.143
