   * xtb version 6.7.1 (edcfbbe) compiled by 'conda@3ef47c1a292c' on 2024-11-25

   ID    Z sym.   atoms
    1    6 C      1, 7
    2   16 S      2, 6
    3    8 O      3, 4, 8, 9
    4    7 N      5
    5    1 H      10-15

          program call               : xtb A126.xyz --opt --namespace A126 --charge -1
          :  Hamiltonian                  GFN2-xTB          :
 * total energy  :   -33.2491294 Eh     change       -0.1289635E-10 Eh
 * total energy  :   -33.2551912 Eh     change       -0.6061786E-02 Eh
 * total energy  :   -33.2572204 Eh     change       -0.2029206E-02 Eh
 * total energy  :   -33.2573378 Eh     change       -0.1174090E-03 Eh
 * total energy  :   -33.2574083 Eh     change       -0.7048689E-04 Eh
 * total energy  :   -33.2574310 Eh     change       -0.2270908E-04 Eh
 * total energy  :   -33.2574491 Eh     change       -0.1814614E-04 Eh
 * total energy  :   -33.2574669 Eh     change       -0.1775372E-04 Eh
 * total energy  :   -33.2574911 Eh     change       -0.2426401E-04 Eh
 * total energy  :   -33.2575326 Eh     change       -0.4140676E-04 Eh
 * total energy  :   -33.2691447 Eh     change       -0.4940907E-04 Eh
 * total energy  :   -33.2691878 Eh     change       -0.4304877E-04 Eh
 * total energy  :   -33.2692092 Eh     change       -0.2137578E-04 Eh
 * total energy  :   -33.2692322 Eh     change       -0.2304577E-04 Eh
 * total energy  :   -33.2692589 Eh     change       -0.2667566E-04 Eh
 * total energy  :   -33.2692748 Eh     change       -0.1588033E-04 Eh
 * total energy  :   -33.2692959 Eh     change       -0.2110934E-04 Eh
 * total energy  :   -33.2692990 Eh     change       -0.3145033E-05 Eh
 * total energy  :   -33.2693013 Eh     change       -0.2280698E-05 Eh
   *** GEOMETRY OPTIMIZATION CONVERGED AFTER 52 ITERATIONS ***

 final structure:
================
15
 xtb: 6.7.1 (edcfbbe)
C            0.54606426096533       -0.06535384248709       -0.62269486808183
S            1.34989039291057       -1.67440212138228       -0.91090486438596
O            2.40010707272839       -1.77793150795653        0.08440434808986
O            0.31365038154094       -2.68819897485383       -0.78249674844214
N            2.00374429360195       -1.61347511517330       -2.35488150317014
S            0.95358136863518       -1.70894687644265       -3.54018792102160
C            0.40176095095183       -3.44366465344147       -3.62253846914611
O           -0.23824867188290       -0.90109831711655       -3.33033785474128
O            1.62788279292994       -1.44649529663756       -4.79734447413069
H            0.00901431151507       -0.12468890171893        0.31459321104601
H           -0.11772514136800        0.08446700643510       -1.46362834542639
H            1.32827974732191        0.68041367849511       -0.58854147043817
H            0.05380825727600       -3.68584027880739       -2.62717893778607
H           -0.39099719695924       -3.50542373419724       -4.35673427188157
H            1.25803717983157       -4.03951106471570       -3.90803783048362

          :  Hamiltonian                  GFN2-xTB          :
         :: total energy             -33.269301293296 Eh    ::
         :: gradient norm              0.000712321445 Eh/a0 ::
         :: HOMO-LUMO gap              7.495318625333 eV    ::
         :: SCC energy               -33.501750171415 Eh    ::
         :: -> dispersion             -0.016968042864 Eh    ::
         :: repulsion energy           0.232448878119 Eh    ::

    * Orbital Energies and Occupations

         #    Occupation            Energy/Eh            Energy/eV
      -------------------------------------------------------------
         1        2.0000           -0.6074861             -16.5305
       ...           ...                  ...                  ...
        16        2.0000           -0.3547403              -9.6530
        17        2.0000           -0.3484612              -9.4821
        18        2.0000           -0.3409506              -9.2777
        19        2.0000           -0.3101340              -8.4392
        20        2.0000           -0.2927237              -7.9654
        21        2.0000           -0.2879752              -7.8362
        22        2.0000           -0.2803683              -7.6292
        23        2.0000           -0.2729516              -7.4274
        24        2.0000           -0.2717436              -7.3945
        25        2.0000           -0.2700057              -7.3472
        26        2.0000           -0.2587535              -7.0410
        27        2.0000           -0.2391048              -6.5064
        28        2.0000           -0.2288345              -6.2269 (HOMO)
        29                          0.0466134               1.2684 (LUMO)
        30                          0.0557266               1.5164
        31                          0.0601604               1.6370
        32                          0.1014697               2.7611
        33                          0.1195660               3.2536
        34                          0.1304915               3.5509
        35                          0.1401367               3.8133
        36                          0.1690193               4.5992
        37                          0.2705852               7.3630
        38                          0.2779758               7.5641
        39                          0.3022569               8.2248
       ...                                ...                  ...
        52                          1.3659578              37.1696
      -------------------------------------------------------------
                  HL-Gap            0.2754479 Eh            7.4953 eV

     #   Z          covCN         q      C6AA      α(0)
     1   6 C        3.745    -0.207    24.661     7.084
     2  16 S        4.185     1.096   103.941    17.159
     3   8 O        0.860    -0.611    26.390     6.888
     4   8 O        0.860    -0.651    27.415     7.020
     5   7 N        1.829    -0.638    39.115     9.268
     6  16 S        4.185     1.096   103.941    17.159
     7   6 C        3.745    -0.207    24.662     7.084
     8   8 O        0.860    -0.651    27.409     7.019
     9   8 O        0.860    -0.611    26.388     6.887
    10   1 H        0.926     0.055     2.254     2.348
    11   1 H        0.926     0.084     1.934     2.175
    12   1 H        0.926     0.052     2.293     2.368
    13   1 H        0.926     0.084     1.934     2.175
    14   1 H        0.926     0.055     2.256     2.349
    15   1 H        0.926     0.052     2.294     2.368

Wiberg/Mayer (AO) data.
largest (>0.10) Wiberg bond orders for each atom

     #   Z sym  total        # sym  WBO       # sym  WBO       # sym  WBO
 ---------------------------------------------------------------------------
     1   6 C    3.986 --    12 H    0.989    10 H    0.987    11 H    0.974
                             2 S    0.757
     2  16 S    5.003 --     3 O    1.572     4 O    1.507     5 N    1.118
                             1 C    0.757
     3   8 O    1.857 --     2 S    1.572     4 O    0.102
     4   8 O    1.819 --     2 S    1.507     3 O    0.102
     5   7 N    2.766 --     2 S    1.118     6 S    1.117
     6  16 S    5.003 --     9 O    1.572     8 O    1.508     5 N    1.117
                             7 C    0.757
     7   6 C    3.986 --    15 H    0.989    14 H    0.987    13 H    0.974
                             6 S    0.757
     8   8 O    1.820 --     6 S    1.508     9 O    0.102
     9   8 O    1.857 --     6 S    1.572     8 O    0.102
    10   1 H    0.997 --     1 C    0.987
    11   1 H    0.993 --     1 C    0.974
    12   1 H    0.997 --     1 C    0.989
    13   1 H    0.993 --     7 C    0.974
    14   1 H    0.997 --     7 C    0.987
    15   1 H    0.997 --     7 C    0.989
 ---------------------------------------------------------------------------

molecular dipole:
                 x           y           z       tot (Debye)
 q only:       -2.553       3.164       4.263
   full:       -2.806       3.142       4.301      15.303

           -------------------------------------------------
          | TOTAL ENERGY              -33.269301293296 Eh   |
          | GRADIENT NORM               0.000712321445 Eh/α |
          | HOMO-LUMO GAP               7.495318625333 eV   |
           -------------------------------------------------

 * finished run on 2024/12/20 at 01:54:48.623
