   * xtb version 6.7.1 (edcfbbe) compiled by 'conda@3ef47c1a292c' on 2024-11-25

   ID    Z sym.   atoms
    1    6 C      1-4
    2   16 S      5
    3    8 O      6-8
    4    1 H      9-17

          program call               : xtb A127.xyz --opt --namespace A127 --charge -1
          :  Hamiltonian                  GFN2-xTB          :
 * total energy  :   -28.8427936 Eh     change       -0.9247714E-11 Eh
 * total energy  :   -28.8473027 Eh     change       -0.4509149E-02 Eh
 * total energy  :   -28.8497202 Eh     change       -0.2417442E-02 Eh
 * total energy  :   -28.8504528 Eh     change       -0.7326645E-03 Eh
 * total energy  :   -28.8507520 Eh     change       -0.2992110E-03 Eh
 * total energy  :   -28.8510360 Eh     change       -0.2839306E-03 Eh
 * total energy  :   -28.8512166 Eh     change       -0.1806431E-03 Eh
 * total energy  :   -28.8513466 Eh     change       -0.1300152E-03 Eh
 * total energy  :   -28.8514521 Eh     change       -0.1054606E-03 Eh
 * total energy  :   -28.8515382 Eh     change       -0.8615878E-04 Eh
 * total energy  :   -28.8516139 Eh     change       -0.7569347E-04 Eh
 * total energy  :   -28.8516966 Eh     change       -0.8263609E-04 Eh
 * total energy  :   -28.8517808 Eh     change       -0.8417393E-04 Eh
 * total energy  :   -28.8518401 Eh     change       -0.5939750E-04 Eh
 * total energy  :   -28.8518629 Eh     change       -0.2275059E-04 Eh
 * total energy  :   -28.8518738 Eh     change       -0.1090716E-04 Eh
 * total energy  :   -28.8518797 Eh     change       -0.5870743E-05 Eh
 * total energy  :   -28.8518816 Eh     change       -0.1893414E-05 Eh
   *** GEOMETRY OPTIMIZATION CONVERGED AFTER 18 ITERATIONS ***

 final structure:
================
17
 xtb: 6.7.1 (edcfbbe)
C            1.18124818892160        0.09450188819360        0.00277828550084
C            0.45649976602680        0.37868711660254        1.29881044617950
C            0.95059443281383        1.63794035844199        2.01088036154889
C            0.53028196386342        2.90666007708027        1.28289910292358
S            0.41363083399503        0.97969548504979       -1.42559268613383
O            0.57126966272561        0.03699587888744       -2.53371953258313
O           -0.98124108659908        1.21924058969212       -1.05984982333943
O            1.19631497595677        2.20606973035217       -1.60890071208946
H            1.10266595032250       -0.94992580605104       -0.28345355364799
H            2.22399072507626        0.39686611349572        0.01419458004499
H           -0.59896063794116        0.50259047200586        1.04468675900583
H            0.55352816966752       -0.47600420310217        1.98199939490510
H            0.55118867251188        1.64932951248768        3.03366282797565
H            2.04246115686898        1.60258049961766        2.08829339266951
H           -0.55365240593259        2.99103239690877        1.27534276802774
H            0.94961251820090        3.78871907178329        1.76896423596215
H            0.86202711352207        2.86926081855418        0.24695415304968

          :  Hamiltonian                  GFN2-xTB          :
         :: total energy             -28.851881569522 Eh    ::
         :: gradient norm              0.000474485049 Eh/a0 ::
         :: HOMO-LUMO gap              8.284367654034 eV    ::
         :: SCC energy               -29.104885466202 Eh    ::
         :: -> dispersion             -0.014921980037 Eh    ::
         :: repulsion energy           0.253003896681 Eh    ::

    * Orbital Energies and Occupations

         #    Occupation            Energy/Eh            Energy/eV
      -------------------------------------------------------------
         1        2.0000           -0.5576654             -15.1748
       ...           ...                  ...                  ...
        13        2.0000           -0.3316264              -9.0240
        14        2.0000           -0.3264126              -8.8821
        15        2.0000           -0.3183211              -8.6620
        16        2.0000           -0.3134666              -8.5299
        17        2.0000           -0.3014987              -8.2042
        18        2.0000           -0.2977940              -8.1034
        19        2.0000           -0.2929542              -7.9717
        20        2.0000           -0.2483879              -6.7590
        21        2.0000           -0.2476940              -6.7401
        22        2.0000           -0.2294790              -6.2444
        23        2.0000           -0.2262891              -6.1576
        24        2.0000           -0.2165380              -5.8923
        25        2.0000           -0.2153280              -5.8594 (HOMO)
        26                          0.0891169               2.4250 (LUMO)
        27                          0.1482317               4.0336
        28                          0.1701596               4.6303
        29                          0.1822273               4.9587
        30                          0.2287359               6.2242
        31                          0.2338625               6.3637
        32                          0.2669412               7.2638
        33                          0.2700515               7.3485
        34                          0.2946221               8.0171
        35                          0.3234567               8.8017
        36                          0.3334343               9.0732
       ...                                ...                  ...
        46                          1.3551122              36.8745
      -------------------------------------------------------------
                  HL-Gap            0.3044449 Eh            8.2844 eV

     #   Z          covCN         q      C6AA      α(0)
     1   6 C        3.794    -0.143    23.252     6.867
     2   6 C        3.827    -0.057    21.578     6.610
     3   6 C        3.799    -0.043    21.338     6.577
     4   6 C        3.752    -0.117    22.795     6.809
     5  16 S        3.571     1.120   103.275    17.104
     6   8 O        0.860    -0.673    27.982     7.092
     7   8 O        0.860    -0.668    27.846     7.075
     8   8 O        0.859    -0.674    28.020     7.097
     9   1 H        0.925     0.027     2.636     2.539
    10   1 H        0.925     0.027     2.623     2.533
    11   1 H        0.924     0.058     2.226     2.333
    12   1 H        0.923     0.004     2.994     2.706
    13   1 H        0.923     0.003     3.009     2.713
    14   1 H        0.924     0.014     2.832     2.632
    15   1 H        0.925     0.031     2.569     2.506
    16   1 H        0.924     0.005     2.966     2.693
    17   1 H        0.925     0.086     1.922     2.168

Wiberg/Mayer (AO) data.
largest (>0.10) Wiberg bond orders for each atom

     #   Z sym  total        # sym  WBO       # sym  WBO       # sym  WBO
 ---------------------------------------------------------------------------
     1   6 C    3.986 --     2 C    1.023     9 H    0.983    10 H    0.981
                             5 S    0.727
     2   6 C    3.996 --     1 C    1.023     3 C    1.008    12 H    0.976
                            11 H    0.966
     3   6 C    4.000 --     4 C    1.021     2 C    1.008    13 H    0.980
                            14 H    0.978
     4   6 C    3.988 --     3 C    1.021    16 H    0.989    15 H    0.988
                            17 H    0.962
     5  16 S    5.140 --     6 O    1.477     7 O    1.473     8 O    1.448
                             1 C    0.727
     6   8 O    1.780 --     5 S    1.477     7 O    0.105     8 O    0.104
     7   8 O    1.789 --     5 S    1.473     8 O    0.105     6 O    0.105
     8   8 O    1.787 --     5 S    1.448     7 O    0.105     6 O    0.104
     9   1 H    0.999 --     1 C    0.983
    10   1 H    0.999 --     1 C    0.981
    11   1 H    0.997 --     2 C    0.966
    12   1 H    1.000 --     2 C    0.976
    13   1 H    1.000 --     3 C    0.980
    14   1 H    1.000 --     3 C    0.978
    15   1 H    0.999 --     4 C    0.988
    16   1 H    1.000 --     4 C    0.989
    17   1 H    0.993 --     4 C    0.962
 ---------------------------------------------------------------------------

molecular dipole:
                 x           y           z       tot (Debye)
 q only:       -0.417      -2.409       3.326
   full:       -0.305      -2.550       3.526      11.088

           -------------------------------------------------
          | TOTAL ENERGY              -28.851881569522 Eh   |
          | GRADIENT NORM               0.000474485049 Eh/α |
          | HOMO-LUMO GAP               8.284367654034 eV   |
           -------------------------------------------------

 * finished run on 2024/12/20 at 01:54:48.955
