   * xtb version 6.7.1 (edcfbbe) compiled by 'conda@3ef47c1a292c' on 2024-11-25

   ID    Z sym.   atoms
    1    9 F      1, 9-15
    2    6 C      2-7
    3    5 B      8

          program call               : xtb A128.xyz --opt --namespace A128 --charge -1
          :  Hamiltonian                  GFN2-xTB          :
 * total energy  :   -52.3273870 Eh     change       -0.1099828E-08 Eh
 * total energy  :   -52.3313202 Eh     change       -0.3933207E-02 Eh
 * total energy  :   -52.3323008 Eh     change       -0.9806258E-03 Eh
 * total energy  :   -52.3324877 Eh     change       -0.1869357E-03 Eh
 * total energy  :   -52.3325134 Eh     change       -0.2569670E-04 Eh
 * total energy  :   -52.3325166 Eh     change       -0.3176973E-05 Eh
   *** GEOMETRY OPTIMIZATION CONVERGED AFTER 6 ITERATIONS ***

 final structure:
================
15
 xtb: 6.7.1 (edcfbbe)
F            2.40767851574824       -1.56692138507160       -0.00572900246624
C            1.20399102344873       -0.97896924324306       -0.00396396466780
C            1.20082858527775        0.41423003976091        0.00014224708672
C           -0.00239357249116        1.10159780505111        0.00264539801979
C           -1.18811848223418        0.38290237010545        0.00141629676561
C           -1.15053760321087       -1.00831654942480       -0.00279288314243
C            0.03693030461399       -1.72969157273440       -0.00598466599711
B           -0.02287418482853       -3.41989935547005       -0.01316902467527
F           -0.69534981801761       -3.83954376603347        1.12826371656621
F           -0.70962509432586       -3.82893207540022       -1.14988919859263
F            1.24200952659117       -3.97461640207499       -0.02403205819474
F           -2.33161636417612       -1.63862545526836       -0.00348363618185
F           -2.36420691162970        1.04564907521242        0.00384435647085
F           -0.01977706390618        2.45030713489510        0.00618510009527
F            2.36003113914031        1.10701937969594        0.00170731891363

          :  Hamiltonian                  GFN2-xTB          :
         :: total energy             -52.332516609951 Eh    ::
         :: gradient norm              0.000687457152 Eh/a0 ::
         :: HOMO-LUMO gap              3.290954512847 eV    ::
         :: SCC energy               -52.617178711123 Eh    ::
         :: -> dispersion             -0.013985702842 Eh    ::
         :: repulsion energy           0.284662101172 Eh    ::

    * Orbital Energies and Occupations

         #    Occupation            Energy/Eh            Energy/eV
      -------------------------------------------------------------
         1        2.0000           -0.7508553             -20.4318
       ...           ...                  ...                  ...
        30        2.0000           -0.3701324             -10.0718
        31        2.0000           -0.3625782              -9.8663
        32        2.0000           -0.3560819              -9.6895
        33        2.0000           -0.3529122              -9.6032
        34        2.0000           -0.3487583              -9.4902
        35        2.0000           -0.3231808              -8.7942
        36        2.0000           -0.3192404              -8.6870
        37        2.0000           -0.3111735              -8.4675
        38        2.0000           -0.3101929              -8.4408
        39        2.0000           -0.3034522              -8.2574
        40        2.0000           -0.3013599              -8.2004
        41        2.0000           -0.3006399              -8.1808
        42        2.0000           -0.2781399              -7.5686 (HOMO)
        43                         -0.1571995              -4.2776 (LUMO)
        44                         -0.1567955              -4.2666
        45                         -0.0281532              -0.7661
        46                          0.0749023               2.0382
        47                          0.1093652               2.9760
        48                          0.1367819               3.7220
        49                          0.1778074               4.8384
        50                          0.2169324               5.9030
        51                          0.2450591               6.6684
        52                          0.3870803              10.5330
        53                          0.4377294              11.9112
       ...                                ...                  ...
        60                          0.7105103              19.3340
      -------------------------------------------------------------
                  HL-Gap            0.1209404 Eh            3.2910 eV

     #   Z          covCN         q      C6AA      α(0)
     1   9 F        0.788    -0.178    11.011     3.920
     2   6 C        2.790     0.149    24.760     8.151
     3   6 C        2.777     0.118    25.395     8.254
     4   6 C        2.779     0.123    25.275     8.234
     5   6 C        2.777     0.118    25.387     8.252
     6   6 C        2.791     0.152    24.698     8.141
     7   6 C        2.854    -0.116    30.937     9.116
     8   5 B        3.034     0.598    13.519     6.133
     9   9 F        0.721    -0.401    13.548     4.347
    10   9 F        0.721    -0.401    13.548     4.347
    11   9 F        0.721    -0.396    13.474     4.335
    12   9 F        0.788    -0.176    10.990     3.916
    13   9 F        0.786    -0.196    11.194     3.952
    14   9 F        0.786    -0.196    11.197     3.953
    15   9 F        0.786    -0.197    11.201     3.953

Wiberg/Mayer (AO) data.
largest (>0.10) Wiberg bond orders for each atom

     #   Z sym  total        # sym  WBO       # sym  WBO       # sym  WBO
 ---------------------------------------------------------------------------
     1   9 F    1.136 --     2 C    0.992
     2   6 C    3.898 --     7 C    1.381     3 C    1.337     1 F    0.992
     3   6 C    3.890 --     4 C    1.352     2 C    1.337    15 F    0.972
     4   6 C    3.891 --     3 C    1.352     5 C    1.348    14 F    0.973
     5   6 C    3.890 --     4 C    1.348     6 C    1.342    13 F    0.972
     6   6 C    3.899 --     7 C    1.375     5 C    1.342    12 F    0.994
     7   6 C    3.836 --     2 C    1.381     6 C    1.375     8 B    0.765
     8   5 B    3.324 --    11 F    0.852    10 F    0.838     9 F    0.838
                             7 C    0.765
     9   9 F    0.927 --     8 B    0.838
    10   9 F    0.927 --     8 B    0.838
    11   9 F    0.935 --     8 B    0.852
    12   9 F    1.140 --     6 C    0.994
    13   9 F    1.105 --     5 C    0.972
    14   9 F    1.105 --     4 C    0.973
    15   9 F    1.104 --     3 C    0.972
 ---------------------------------------------------------------------------

molecular dipole:
                 x           y           z       tot (Debye)
 q only:        0.084       4.538       0.019
   full:        0.078       4.866       0.020      12.370

           -------------------------------------------------
          | TOTAL ENERGY              -52.332516609951 Eh   |
          | GRADIENT NORM               0.000687457152 Eh/α |
          | HOMO-LUMO GAP               3.290954512847 eV   |
           -------------------------------------------------

 * finished run on 2024/12/20 at 01:54:49.048
