   * xtb version 6.7.1 (edcfbbe) compiled by 'conda@3ef47c1a292c' on 2024-11-25

   ID    Z sym.   atoms
    1   16 S      1
    2    8 O      2-5
    3    1 H      6

          program call               : xtb A129.xyz --opt --namespace A129 --charge -1
          :  Hamiltonian                  GFN2-xTB          :
 * total energy  :   -20.2907868 Eh     change       -0.6721734E-11 Eh
 * total energy  :   -20.2932218 Eh     change       -0.2435037E-02 Eh
 * total energy  :   -20.2943097 Eh     change       -0.1087866E-02 Eh
 * total energy  :   -20.2944724 Eh     change       -0.1627598E-03 Eh
 * total energy  :   -20.2945962 Eh     change       -0.1238024E-03 Eh
 * total energy  :   -20.2946372 Eh     change       -0.4102179E-04 Eh
 * total energy  :   -20.2946597 Eh     change       -0.2241260E-04 Eh
 * total energy  :   -20.2946671 Eh     change       -0.7443256E-05 Eh
 * total energy  :   -20.2946739 Eh     change       -0.6786967E-05 Eh
 * total energy  :   -20.2946760 Eh     change       -0.2107613E-05 Eh
   *** GEOMETRY OPTIMIZATION CONVERGED AFTER 10 ITERATIONS ***

 final structure:
================
6
 xtb: 6.7.1 (edcfbbe)
S            1.09998328560810       -0.01287012586785       -0.08790894116702
O            0.51204537869358        1.11934593919760        0.61507006000401
O            0.51204247401307       -0.23841905181368       -1.40138378635859
O            0.57101551584150       -1.32349309802933        0.79459055583025
O            2.54349932213359       -0.07895291781027       -0.04341467025265
H           -0.34736597628985       -1.11955074567647        0.65726678194401

          :  Hamiltonian                  GFN2-xTB          :
         :: total energy             -20.294675997060 Eh    ::
         :: gradient norm              0.000601463443 Eh/a0 ::
         :: HOMO-LUMO gap              8.590997660267 eV    ::
         :: SCC energy               -20.375368753046 Eh    ::
         :: -> dispersion             -0.004320851799 Eh    ::
         :: repulsion energy           0.080692755986 Eh    ::

    * Orbital Energies and Occupations

         #    Occupation            Energy/Eh            Energy/eV
      -------------------------------------------------------------
         1        2.0000           -0.5703465             -15.5199
       ...           ...                  ...                  ...
         4        2.0000           -0.4673424             -12.7170
         5        2.0000           -0.4302350             -11.7073
         6        2.0000           -0.3975616             -10.8182
         7        2.0000           -0.3519093              -9.5759
         8        2.0000           -0.3350598              -9.1174
         9        2.0000           -0.3142436              -8.5510
        10        2.0000           -0.2963017              -8.0628
        11        2.0000           -0.2564702              -6.9789
        12        2.0000           -0.2521065              -6.8602
        13        2.0000           -0.2502949              -6.8109
        14        2.0000           -0.2389408              -6.5019
        15        2.0000           -0.2361658              -6.4264
        16        2.0000           -0.2255154              -6.1366 (HOMO)
        17                          0.0901980               2.4544 (LUMO)
        18                          0.1512842               4.1167
        19                          0.2378004               6.4709
        20                          0.2422297               6.5914
        21                          0.3221618               8.7665
        22                          0.4248020              11.5595
        23                          0.4378557              11.9147
        24                          0.9486888              25.8151
        25                          1.3775772              37.4858
        26                          1.4093347              38.3499
      -------------------------------------------------------------
                  HL-Gap            0.3157134 Eh            8.5910 eV

     #   Z          covCN         q      C6AA      α(0)
     1  16 S        3.564     1.413    95.587    16.455
     2   8 O        0.860    -0.715    29.107     7.233
     3   8 O        0.860    -0.715    29.107     7.233
     4   8 O        1.662    -0.608    25.346     6.796
     5   8 O        0.860    -0.680    28.155     7.114
     6   1 H        0.936     0.303     0.698     1.307

Wiberg/Mayer (AO) data.
largest (>0.10) Wiberg bond orders for each atom

     #   Z sym  total        # sym  WBO       # sym  WBO       # sym  WBO
 ---------------------------------------------------------------------------
     1  16 S    5.084 --     5 O    1.453     3 O    1.404     2 O    1.404
                             4 O    0.812
     2   8 O    1.720 --     1 S    1.404     5 O    0.120     3 O    0.118
     3   8 O    1.720 --     1 S    1.404     5 O    0.120     2 O    0.118
     4   8 O    1.923 --     6 H    0.891     1 S    0.812
     5   8 O    1.763 --     1 S    1.453     2 O    0.120     3 O    0.120
     6   1 H    0.908 --     4 O    0.891
 ---------------------------------------------------------------------------

molecular dipole:
                 x           y           z       tot (Debye)
 q only:       -2.566      -0.244       0.347
   full:       -2.756      -0.358       0.423       7.146

           -------------------------------------------------
          | TOTAL ENERGY              -20.294675997060 Eh   |
          | GRADIENT NORM               0.000601463443 Eh/α |
          | HOMO-LUMO GAP               8.590997660267 eV   |
           -------------------------------------------------

 * finished run on 2024/12/20 at 01:54:49.099
