   * xtb version 6.7.1 (edcfbbe) compiled by 'conda@3ef47c1a292c' on 2024-11-25

   ID    Z sym.   atoms
    1    6 C      1-3, 5-10
    2    8 O      4
    3    9 F      11, 12, 14-18
    4    5 B      13
    5    1 H      19-25

          program call               : xtb A130.xyz --opt --namespace A130 --charge -1
          :  Hamiltonian                  GFN2-xTB          :
 * total energy  :   -61.6350874 Eh     change       -0.3419203E-09 Eh
 * total energy  :   -61.6555949 Eh     change       -0.2050754E-01 Eh
 * total energy  :   -61.6619662 Eh     change       -0.6371283E-02 Eh
 * total energy  :   -61.6643518 Eh     change       -0.2385623E-02 Eh
 * total energy  :   -61.6654116 Eh     change       -0.1059773E-02 Eh
 * total energy  :   -61.6659465 Eh     change       -0.5349005E-03 Eh
 * total energy  :   -61.6662452 Eh     change       -0.2987573E-03 Eh
 * total energy  :   -61.6664003 Eh     change       -0.1550099E-03 Eh
 * total energy  :   -61.6664695 Eh     change       -0.6926011E-04 Eh
 * total energy  :   -61.6665086 Eh     change       -0.3913621E-04 Eh
 * total energy  :   -61.6665419 Eh     change       -0.3329507E-04 Eh
 * total energy  :   -61.6665774 Eh     change       -0.3544035E-04 Eh
 * total energy  :   -61.6666107 Eh     change       -0.3336794E-04 Eh
 * total energy  :   -61.6666375 Eh     change       -0.2676642E-04 Eh
 * total energy  :   -61.6666596 Eh     change       -0.2208299E-04 Eh
 * total energy  :   -61.6666746 Eh     change       -0.1504282E-04 Eh
 * total energy  :   -61.6666786 Eh     change       -0.3956412E-05 Eh
   *** GEOMETRY OPTIMIZATION CONVERGED AFTER 17 ITERATIONS ***

 final structure:
================
25
 xtb: 6.7.1 (edcfbbe)
C            1.10408175411095       -0.22700584072083        0.08704883236831
C            0.39403443099537       -1.06029937868147       -0.98564914218147
C            0.87829623723957       -2.50502790039103       -1.05283294607182
O            0.62035484317060       -0.47503714743275        1.39589532648354
C            0.95755240232797       -1.64836453757040        2.01445747344601
C           -0.05381545386446       -2.35693058129988        2.66417485612021
C            0.20409672507795       -3.52632010647282        3.36889041447587
C            1.47515135292111       -4.07653426152678        3.46116434671418
C            2.47484425426656       -3.36103724400692        2.81756574681687
C            2.24208513526533       -2.17568161570744        2.12836221410117
F            3.29559448594802       -1.53583483880393        1.55305801453376
F            3.74597812156912       -3.79199453912560        2.84058772300022
B            1.85412692586874       -5.51407250419846        4.24962162418813
F            2.31763386812559       -6.42439729054454        3.30044219615028
F            2.84748533410689       -5.26962630379052        5.19207776812992
F            0.75474742522611       -6.05762562666384        4.89087679833086
F           -0.85193698311376       -4.11784156523918        3.95000486004306
F           -1.31888993984205       -1.87830394703897        2.58469398915914
H            0.88420618928973        0.83366229142283       -0.06992185539957
H            2.18621300511004       -0.37112895871032        0.01965948187459
H           -0.67894792606791       -1.03908956467409       -0.78383687722483
H            0.56907750859346       -0.57482885184236       -1.94932974470579
H            0.60145055931700       -3.05609260503837       -0.15753530283430
H            0.43540080671737       -3.00773250428939       -1.91029219505557
H            1.96125893763975       -2.54105457765250       -1.15505360246172

          :  Hamiltonian                  GFN2-xTB          :
         :: total energy             -61.666678599111 Eh    ::
         :: gradient norm              0.000758277563 Eh/a0 ::
         :: HOMO-LUMO gap              3.420615908436 eV    ::
         :: SCC energy               -62.098273756645 Eh    ::
         :: -> dispersion             -0.023835514588 Eh    ::
         :: repulsion energy           0.431595157533 Eh    ::

    * Orbital Energies and Occupations

         #    Occupation            Energy/Eh            Energy/eV
      -------------------------------------------------------------
         1        2.0000           -0.7333414             -19.9552
       ...           ...                  ...                  ...
        39        2.0000           -0.3511522              -9.5553
        40        2.0000           -0.3447107              -9.3801
        41        2.0000           -0.3436153              -9.3502
        42        2.0000           -0.3387853              -9.2188
        43        2.0000           -0.3352418              -9.1224
        44        2.0000           -0.3050085              -8.2997
        45        2.0000           -0.3046810              -8.2908
        46        2.0000           -0.3015412              -8.2054
        47        2.0000           -0.2957649              -8.0482
        48        2.0000           -0.2938850              -7.9970
        49        2.0000           -0.2916979              -7.9375
        50        2.0000           -0.2908658              -7.9149
        51        2.0000           -0.2670583              -7.2670 (HOMO)
        52                         -0.1413530              -3.8464 (LUMO)
        53                         -0.1405038              -3.8233
        54                         -0.0146583              -0.3989
        55                          0.0790382               2.1507
        56                          0.1106033               3.0097
        57                          0.1444447               3.9305
        58                          0.1472913               4.0080
        59                          0.1593325               4.3357
        60                          0.1877187               5.1081
        61                          0.2027792               5.5179
        62                          0.2114376               5.7535
       ...                                ...                  ...
        79                          0.7239413              19.6994
      -------------------------------------------------------------
                  HL-Gap            0.1257053 Eh            3.4206 eV

     #   Z          covCN         q      C6AA      α(0)
     1   6 C        3.690     0.077    19.478     6.316
     2   6 C        3.798    -0.062    21.689     6.631
     3   6 C        3.751    -0.101    22.494     6.764
     4   8 O        1.703    -0.269    18.459     5.801
     5   6 C        2.855     0.104    25.690     8.307
     6   6 C        2.784     0.110    25.561     8.281
     7   6 C        2.790     0.146    24.818     8.160
     8   6 C        2.857    -0.121    31.069     9.136
     9   6 C        2.792     0.148    24.763     8.152
    10   6 C        2.782     0.104    25.691     8.302
    11   9 F        0.786    -0.219    11.433     3.994
    12   9 F        0.788    -0.186    11.092     3.934
    13   5 B        3.037     0.596    13.532     6.136
    14   9 F        0.721    -0.408    13.626     4.359
    15   9 F        0.721    -0.405    13.593     4.354
    16   9 F        0.721    -0.400    13.533     4.344
    17   9 F        0.788    -0.187    11.100     3.936
    18   9 F        0.786    -0.207    11.313     3.973
    19   1 H        0.924     0.042     2.418     2.432
    20   1 H        0.924     0.048     2.350     2.398
    21   1 H        0.924     0.048     2.346     2.395
    22   1 H        0.924     0.028     2.618     2.530
    23   1 H        0.925     0.042     2.420     2.433
    24   1 H        0.925     0.033     2.547     2.496
    25   1 H        0.925     0.039     2.460     2.453

Wiberg/Mayer (AO) data.
largest (>0.10) Wiberg bond orders for each atom

     #   Z sym  total        # sym  WBO       # sym  WBO       # sym  WBO
 ---------------------------------------------------------------------------
     1   6 C    3.942 --     2 C    0.996    19 H    0.971    20 H    0.967
                             4 O    0.959
     2   6 C    3.996 --     3 C    1.021     1 C    0.996    22 H    0.977
                            21 H    0.977
     3   6 C    3.996 --     2 C    1.021    24 H    0.987    25 H    0.987
                            23 H    0.985
     4   8 O    2.186 --     5 C    1.049     1 C    0.959
     5   6 C    3.948 --    10 C    1.338     6 C    1.328     4 O    1.049
     6   6 C    3.883 --     7 C    1.353     5 C    1.328    18 F    0.963
     7   6 C    3.896 --     8 C    1.374     6 C    1.353    17 F    0.985
     8   6 C    3.846 --     9 C    1.378     7 C    1.374    13 B    0.778
     9   6 C    3.896 --     8 C    1.378    10 C    1.349    12 F    0.986
    10   6 C    3.877 --     9 C    1.349     5 C    1.338    11 F    0.951
    11   9 F    1.081 --    10 C    0.951
    12   9 F    1.128 --     9 C    0.986
    13   5 B    3.322 --    16 F    0.847    15 F    0.836    14 F    0.830
                             8 C    0.778
    14   9 F    0.919 --    13 B    0.830
    15   9 F    0.922 --    13 B    0.836
    16   9 F    0.929 --    13 B    0.847
    17   9 F    1.126 --     7 C    0.985
    18   9 F    1.091 --     6 C    0.963
    19   1 H    0.998 --     1 C    0.971
    20   1 H    0.998 --     1 C    0.967
    21   1 H    0.998 --     2 C    0.977
    22   1 H    0.999 --     2 C    0.977
    23   1 H    0.998 --     3 C    0.985
    24   1 H    0.999 --     3 C    0.987
    25   1 H    0.998 --     3 C    0.987
 ---------------------------------------------------------------------------

molecular dipole:
                 x           y           z       tot (Debye)
 q only:       -3.191       9.386      -7.954
   full:       -3.151       9.654      -8.182      33.148

           -------------------------------------------------
          | TOTAL ENERGY              -61.666678599111 Eh   |
          | GRADIENT NORM               0.000758277563 Eh/α |
          | HOMO-LUMO GAP               3.420615908436 eV   |
           -------------------------------------------------

 * finished run on 2024/12/20 at 01:54:49.339
