   * xtb version 6.7.1 (edcfbbe) compiled by 'conda@3ef47c1a292c' on 2024-11-25

   ID    Z sym.   atoms
    1    9 F      1, 4-7, 9-11
    2    6 C      2, 3
    3    5 B      8

          program call               : xtb A131.xyz --opt --namespace A131 --charge -1
          :  Hamiltonian                  GFN2-xTB          :
 * total energy  :   -43.7944280 Eh     change       -0.2862777E-10 Eh
 * total energy  :   -43.8025990 Eh     change       -0.8171015E-02 Eh
 * total energy  :   -43.8080653 Eh     change       -0.5466264E-02 Eh
 * total energy  :   -43.8090764 Eh     change       -0.1011122E-02 Eh
 * total energy  :   -43.8097426 Eh     change       -0.6662420E-03 Eh
 * total energy  :   -43.8098036 Eh     change       -0.6095006E-04 Eh
 * total energy  :   -43.8098535 Eh     change       -0.4996217E-04 Eh
 * total energy  :   -43.8098635 Eh     change       -0.9996612E-05 Eh
 * total energy  :   -43.8098750 Eh     change       -0.1148317E-04 Eh
 * total energy  :   -43.8098823 Eh     change       -0.7266661E-05 Eh
 * total energy  :   -43.8098889 Eh     change       -0.6614273E-05 Eh
 * total energy  :   -43.8098896 Eh     change       -0.7102956E-06 Eh
   *** GEOMETRY OPTIMIZATION CONVERGED AFTER 12 ITERATIONS ***

 final structure:
================
11
 xtb: 6.7.1 (edcfbbe)
F            1.02101945047604        0.00585998752695       -0.09190290060749
C            2.39128630906679       -0.10461268830070       -0.05611353548516
C            2.88349639790716        0.40302615891014       -1.41256899756146
F            2.40383818827753        1.63318416894096       -1.71845134935658
F            4.21376512284344        0.51861831371715       -1.47176048699129
F            2.51321344418083       -0.38246355111784       -2.42907628907082
F            2.78189729200315        0.84655213626682        0.85816787922547
B            2.92667913713651       -1.67806228896029        0.33527891257690
F            2.50483920580177       -2.00900048744941        1.60374673012233
F            2.39918002474618       -2.55761040338092       -0.59030710286217
F            4.30708542756060       -1.69571134615286        0.26951714001028

          :  Hamiltonian                  GFN2-xTB          :
         :: total energy             -43.809889618867 Eh    ::
         :: gradient norm              0.000419294038 Eh/a0 ::
         :: HOMO-LUMO gap             10.096798875932 eV    ::
         :: SCC energy               -43.901818879263 Eh    ::
         :: -> dispersion             -0.007586753602 Eh    ::
         :: repulsion energy           0.091929260396 Eh    ::

    * Orbital Energies and Occupations

         #    Occupation            Energy/Eh            Energy/eV
      -------------------------------------------------------------
         1        2.0000           -0.7619240             -20.7330
       ...           ...                  ...                  ...
        22        2.0000           -0.3868283             -10.5261
        23        2.0000           -0.3827731             -10.4158
        24        2.0000           -0.3738998             -10.1743
        25        2.0000           -0.3694924             -10.0544
        26        2.0000           -0.3659501              -9.9580
        27        2.0000           -0.3646070              -9.9215
        28        2.0000           -0.3492548              -9.5037
        29        2.0000           -0.3265421              -8.8857
        30        2.0000           -0.3256828              -8.8623
        31        2.0000           -0.3180739              -8.6552
        32        2.0000           -0.3160555              -8.6003
        33        2.0000           -0.3159296              -8.5969
        34        2.0000           -0.2795635              -7.6073 (HOMO)
        35                          0.0914870               2.4895 (LUMO)
        36                          0.1154895               3.1426
        37                          0.1598313               4.3492
        38                          0.2013602               5.4793
        39                          0.2544033               6.9227
        40                          0.2613508               7.1117
        41                          0.3086399               8.3985
        42                          0.4966715              13.5151
        43                          0.5018513              13.6561
        44                          0.5347581              14.5515
      -------------------------------------------------------------
                  HL-Gap            0.3710505 Eh           10.0968 eV

     #   Z          covCN         q      C6AA      α(0)
     1   9 F        0.788    -0.244    11.694     4.040
     2   6 C        3.407     0.200    20.315     6.941
     3   6 C        3.333     0.482    17.384     6.611
     4   9 F        0.791    -0.217    11.412     3.990
     5   9 F        0.791    -0.200    11.231     3.959
     6   9 F        0.791    -0.200    11.239     3.960
     7   9 F        0.788    -0.244    11.701     4.041
     8   5 B        3.027     0.593    13.565     6.144
     9   9 F        0.721    -0.383    13.314     4.309
    10   9 F        0.721    -0.393    13.447     4.330
    11   9 F        0.721    -0.395    13.467     4.334

Wiberg/Mayer (AO) data.
largest (>0.10) Wiberg bond orders for each atom

     #   Z sym  total        # sym  WBO       # sym  WBO       # sym  WBO
 ---------------------------------------------------------------------------
     1   9 F    1.022 --     2 C    0.934
     2   6 C    3.660 --     1 F    0.934     7 F    0.933     3 C    0.929
                             8 B    0.734
     3   6 C    3.824 --     5 F    0.959     6 F    0.958     4 F    0.932
                             2 C    0.929
     4   9 F    1.057 --     3 C    0.932
     5   9 F    1.079 --     3 C    0.959
     6   9 F    1.078 --     3 C    0.958
     7   9 F    1.022 --     2 C    0.933
     8   5 B    3.335 --     9 F    0.864    10 F    0.851    11 F    0.850
                             2 C    0.734
     9   9 F    0.951 --     8 B    0.864
    10   9 F    0.937 --     8 B    0.851
    11   9 F    0.935 --     8 B    0.850
 ---------------------------------------------------------------------------

molecular dipole:
                 x           y           z       tot (Debye)
 q only:       -5.276       1.953      -0.029
   full:       -5.316       2.129      -0.111      14.557

           -------------------------------------------------
          | TOTAL ENERGY              -43.809889618867 Eh   |
          | GRADIENT NORM               0.000419294038 Eh/α |
          | HOMO-LUMO GAP              10.096798875932 eV   |
           -------------------------------------------------

 * finished run on 2024/12/20 at 01:54:49.421
