   * xtb version 6.7.1 (edcfbbe) compiled by 'conda@3ef47c1a292c' on 2024-11-25

   ID    Z sym.   atoms
    1    7 N      1
    2   16 S      2
    3    8 O      3, 4
    4    6 C      5
    5    9 F      6-8
    6    1 H      9

          program call               : xtb A132.xyz --opt --namespace A132 --charge -1
          :  Hamiltonian                  GFN2-xTB          :
 * total energy  :   -31.3497274 Eh     change       -0.2774669E-11 Eh
 * total energy  :   -31.3555922 Eh     change       -0.5864838E-02 Eh
 * total energy  :   -31.3578078 Eh     change       -0.2215552E-02 Eh
 * total energy  :   -31.3580658 Eh     change       -0.2579991E-03 Eh
 * total energy  :   -31.3582710 Eh     change       -0.2052729E-03 Eh
 * total energy  :   -31.3582936 Eh     change       -0.2258708E-04 Eh
 * total energy  :   -31.3583066 Eh     change       -0.1295975E-04 Eh
 * total energy  :   -31.3583082 Eh     change       -0.1584250E-05 Eh
   *** GEOMETRY OPTIMIZATION CONVERGED AFTER 8 ITERATIONS ***

 final structure:
================
9
 xtb: 6.7.1 (edcfbbe)
N            0.79825644320286        0.00377516137214        0.09935316626591
S            0.56544165060518       -0.74240364342546        1.42356263453177
O            0.85172942326201       -2.16969760040129        1.46384739594327
O            0.85446838497152       -0.04044349936034        2.66613820515698
C           -1.31055909961948       -0.70761892210499        1.36362169370950
F           -1.81616949566601        0.53663725750179        1.34634159730328
F           -1.81865896324917       -1.33667977939246        0.29116674143777
F           -1.84656068830383       -1.31304459682056        2.43972587001519
H            1.77947234479692        0.11440562263115       -0.07679730436367

          :  Hamiltonian                  GFN2-xTB          :
         :: total energy             -31.358308174654 Eh    ::
         :: gradient norm              0.000554544634 Eh/a0 ::
         :: HOMO-LUMO gap              5.915379627051 eV    ::
         :: SCC energy               -31.474973635366 Eh    ::
         :: -> dispersion             -0.007944147282 Eh    ::
         :: repulsion energy           0.116665460712 Eh    ::

    * Orbital Energies and Occupations

         #    Occupation            Energy/Eh            Energy/eV
      -------------------------------------------------------------
         1        2.0000           -0.7315021             -19.9052
       ...           ...                  ...                  ...
        13        2.0000           -0.3993771             -10.8676
        14        2.0000           -0.3876618             -10.5488
        15        2.0000           -0.3869204             -10.5286
        16        2.0000           -0.3867633             -10.5244
        17        2.0000           -0.3603851              -9.8066
        18        2.0000           -0.3508754              -9.5478
        19        2.0000           -0.3419566              -9.3051
        20        2.0000           -0.2902726              -7.8987
        21        2.0000           -0.2842760              -7.7355
        22        2.0000           -0.2629720              -7.1558
        23        2.0000           -0.2612845              -7.1099
        24        2.0000           -0.2345293              -6.3819
        25        2.0000           -0.1943176              -5.2877 (HOMO)
        26                          0.0230686               0.6277 (LUMO)
        27                          0.0693588               1.8873
        28                          0.1174899               3.1971
        29                          0.1248147               3.3964
        30                          0.2394662               6.5162
        31                          0.2526354               6.8746
        32                          0.2695801               7.3356
        33                          0.3225241               8.7763
        34                          0.3623867               9.8610
        35                          0.3997340              10.8773
        36                          0.7553401              20.5539
       ...                                ...                  ...
        38                          1.3419625              36.5167
      -------------------------------------------------------------
                  HL-Gap            0.2173862 Eh            5.9154 eV

     #   Z          covCN         q      C6AA      α(0)
     1   7 N        1.775    -0.627    38.696     9.212
     2  16 S        3.645     1.016   106.178    17.343
     3   8 O        0.860    -0.623    26.696     6.927
     4   8 O        0.860    -0.623    26.692     6.927
     5   6 C        3.314     0.381    19.073     6.966
     6   9 F        0.797    -0.215    11.393     3.987
     7   9 F        0.797    -0.215    11.391     3.987
     8   9 F        0.800    -0.220    11.441     3.996
     9   1 H        0.885     0.126     1.571     1.962

Wiberg/Mayer (AO) data.
largest (>0.10) Wiberg bond orders for each atom

     #   Z sym  total        # sym  WBO       # sym  WBO       # sym  WBO
 ---------------------------------------------------------------------------
     1   7 N    2.636 --     2 S    1.354     9 H    0.940     4 O    0.136
                             3 O    0.136
     2  16 S    5.178 --     4 O    1.528     3 O    1.528     1 N    1.354
                             5 C    0.683
     3   8 O    1.849 --     2 S    1.528     1 N    0.136     4 O    0.108
     4   8 O    1.849 --     2 S    1.528     1 N    0.136     3 O    0.108
     5   6 C    3.723 --     7 F    0.951     6 F    0.951     8 F    0.946
                             2 S    0.683
     6   9 F    1.069 --     5 C    0.951
     7   9 F    1.069 --     5 C    0.951
     8   9 F    1.064 --     5 C    0.946
     9   1 H    0.984 --     1 N    0.940
 ---------------------------------------------------------------------------

molecular dipole:
                 x           y           z       tot (Debye)
 q only:       -0.145       1.560      -2.962
   full:       -0.089       1.496      -2.840       8.163

           -------------------------------------------------
          | TOTAL ENERGY              -31.358308174654 Eh   |
          | GRADIENT NORM               0.000554544634 Eh/α |
          | HOMO-LUMO GAP               5.915379627051 eV   |
           -------------------------------------------------

 * finished run on 2024/12/20 at 01:54:49.485
