   * xtb version 6.7.1 (edcfbbe) compiled by 'conda@3ef47c1a292c' on 2024-11-25

   ID    Z sym.   atoms
    1    7 N      1-3

          program call               : xtb A133.xyz --opt --namespace A133 --charge -1
          :  Hamiltonian                  GFN2-xTB          :
 * total energy  :    -8.8951325 Eh     change       -0.2096101E-12 Eh
 * total energy  :    -8.8966028 Eh     change       -0.1470327E-02 Eh
 * total energy  :    -8.8966072 Eh     change       -0.4362319E-05 Eh
   *** GEOMETRY OPTIMIZATION CONVERGED AFTER 3 ITERATIONS ***

 final structure:
================
3
 xtb: 6.7.1 (edcfbbe)
N            1.19529406670617       -0.05549999999938        0.00231999999997
N            2.35405991147664       -0.05550000000124        0.00232000000005
N            3.51282602181719       -0.05549999999938        0.00231999999997

          :  Hamiltonian                  GFN2-xTB          :
         :: total energy              -8.896607173170 Eh    ::
         :: gradient norm              0.000213114363 Eh/a0 ::
         :: HOMO-LUMO gap              4.971436373176 eV    ::
         :: SCC energy                -9.004189632784 Eh    ::
         :: -> dispersion             -0.001057375888 Eh    ::
         :: repulsion energy           0.107582459614 Eh    ::

    * Orbital Energies and Occupations

         #    Occupation            Energy/Eh            Energy/eV
      -------------------------------------------------------------
         1        2.0000           -0.4005223             -10.8988
         2        2.0000           -0.3575882              -9.7305
         3        2.0000           -0.2695036              -7.3336
         4        2.0000           -0.2695036              -7.3336
         5        2.0000           -0.2031159              -5.5271
         6        2.0000           -0.1539009              -4.1879
         7        2.0000           -0.0913605              -2.4860
         8        2.0000           -0.0913605              -2.4860 (HOMO)
         9                          0.0913364               2.4854 (LUMO)
        10                          0.0913364               2.4854
        11                          0.4961266              13.5003
        12                          1.3514308              36.7743
      -------------------------------------------------------------
                  HL-Gap            0.1826969 Eh            4.9714 eV

     #   Z          covCN         q      C6AA      α(0)
     1   7 N        0.989    -0.604    36.074     8.635
     2   7 N        1.962     0.208    18.374     6.357
     3   7 N        0.989    -0.604    36.074     8.635

Wiberg/Mayer (AO) data.
largest (>0.10) Wiberg bond orders for each atom

     #   Z sym  total        # sym  WBO       # sym  WBO       # sym  WBO
 ---------------------------------------------------------------------------
     1   7 N    2.740 --     2 N    1.893     3 N    0.847
     2   7 N    3.786 --     1 N    1.893     3 N    1.893
     3   7 N    2.740 --     2 N    1.893     1 N    0.847
 ---------------------------------------------------------------------------

molecular dipole:
                 x           y           z       tot (Debye)
 q only:       -4.449       0.105      -0.004
   full:       -4.449       0.105      -0.004      11.310

           -------------------------------------------------
          | TOTAL ENERGY               -8.896607173170 Eh   |
          | GRADIENT NORM               0.000213114363 Eh/α |
          | HOMO-LUMO GAP               4.971436373176 eV   |
           -------------------------------------------------

 * finished run on 2024/12/20 at 01:54:49.511
