   * xtb version 6.7.1 (edcfbbe) compiled by 'conda@3ef47c1a292c' on 2024-11-25

   ID    Z sym.   atoms
    1    8 O      1, 3-5
    2   16 S      2
    3    6 C      6, 9
    4    9 F      7, 8, 10-12

          program call               : xtb A134.xyz --opt --namespace A134 --charge -1
          :  Hamiltonian                  GFN2-xTB          :
 * total energy  :   -47.7636477 Eh     change       -0.3900880E-10 Eh
 * total energy  :   -47.7742582 Eh     change       -0.1061055E-01 Eh
 * total energy  :   -47.7812271 Eh     change       -0.6968913E-02 Eh
 * total energy  :   -47.7827566 Eh     change       -0.1529522E-02 Eh
 * total energy  :   -47.7840533 Eh     change       -0.1296641E-02 Eh
 * total energy  :   -47.7842413 Eh     change       -0.1880327E-03 Eh
 * total energy  :   -47.7843007 Eh     change       -0.5942274E-04 Eh
 * total energy  :   -47.7843093 Eh     change       -0.8579203E-05 Eh
 * total energy  :   -47.7843130 Eh     change       -0.3732844E-05 Eh
   *** GEOMETRY OPTIMIZATION CONVERGED AFTER 9 ITERATIONS ***

 final structure:
================
12
 xtb: 6.7.1 (edcfbbe)
O            1.20457226162034        0.00973966834803       -0.12550078512472
S            2.60121936463893       -0.13834042581773        0.16726902941891
O            3.10492945542249        0.66774641215760        1.24119640187662
O            3.12166131822196       -1.47170985725955        0.07832472758874
O            3.29117082573189        0.66269493876370       -1.29495002867820
C            4.57022039899724        0.67518632279717       -1.30833982789328
F            5.17237585854226        1.33246758247734       -0.26596413261264
F            5.18010041808963       -0.55283101532356       -1.29544817167478
C            5.10706055214231        1.38013256466515       -2.59385074311175
F            4.67793181357574        0.77859995937966       -3.70570605246751
F            4.71410044085985        2.65417509518245       -2.66177460768357
F            6.44595729215738        1.39071875462974       -2.65833580963781

          :  Hamiltonian                  GFN2-xTB          :
         :: total energy             -47.784313049514 Eh    ::
         :: gradient norm              0.000923531967 Eh/a0 ::
         :: HOMO-LUMO gap              7.213067627955 eV    ::
         :: SCC energy               -47.935348713447 Eh    ::
         :: -> dispersion             -0.011615587132 Eh    ::
         :: repulsion energy           0.151035663932 Eh    ::

    * Orbital Energies and Occupations

         #    Occupation            Energy/Eh            Energy/eV
      -------------------------------------------------------------
         1        2.0000           -0.8011879             -21.8014
       ...           ...                  ...                  ...
        25        2.0000           -0.4182067             -11.3800
        26        2.0000           -0.4090407             -11.1306
        27        2.0000           -0.4021501             -10.9431
        28        2.0000           -0.3930426             -10.6952
        29        2.0000           -0.3767820             -10.2528
        30        2.0000           -0.3699326             -10.0664
        31        2.0000           -0.3627577              -9.8711
        32        2.0000           -0.3168827              -8.6228
        33        2.0000           -0.3067017              -8.3458
        34        2.0000           -0.3059462              -8.3252
        35        2.0000           -0.2924920              -7.9591
        36        2.0000           -0.2923846              -7.9562
        37        2.0000           -0.2781352              -7.5684 (HOMO)
        38                         -0.0130599              -0.3554 (LUMO)
        39                          0.0661293               1.7995
        40                          0.0816159               2.2209
        41                          0.1078089               2.9336
        42                          0.1250622               3.4031
        43                          0.1912633               5.2045
        44                          0.2020526               5.4981
        45                          0.2021099               5.4997
        46                          0.2251841               6.1276
        47                          0.2465965               6.7102
        48                          0.3576369               9.7318
       ...                                ...                  ...
        53                          1.4359857              39.0752
      -------------------------------------------------------------
                  HL-Gap            0.2650754 Eh            7.2131 eV

     #   Z          covCN         q      C6AA      α(0)
     1   8 O        0.860    -0.646    27.273     7.002
     2  16 S        3.560     1.514    93.122    16.242
     3   8 O        0.860    -0.653    27.464     7.026
     4   8 O        0.860    -0.653    27.464     7.026
     5   8 O        1.693    -0.484    22.542     6.410
     6   6 C        3.539     0.486    14.675     5.616
     7   9 F        0.789    -0.234    11.592     4.022
     8   9 F        0.789    -0.234    11.589     4.021
     9   6 C        3.330     0.469    17.603     6.659
    10   9 F        0.791    -0.187    11.101     3.936
    11   9 F        0.791    -0.187    11.101     3.936
    12   9 F        0.791    -0.191    11.140     3.943

Wiberg/Mayer (AO) data.
largest (>0.10) Wiberg bond orders for each atom

     #   Z sym  total        # sym  WBO       # sym  WBO       # sym  WBO
 ---------------------------------------------------------------------------
     1   8 O    1.796 --     2 S    1.476     3 O    0.131     4 O    0.131
     2  16 S    4.989 --     1 O    1.476     4 O    1.473     3 O    1.473
                             5 O    0.542
     3   8 O    1.794 --     2 S    1.473     4 O    0.132     1 O    0.131
     4   8 O    1.794 --     2 S    1.473     3 O    0.132     1 O    0.131
     5   8 O    2.029 --     6 C    1.179     2 S    0.542
     6   6 C    3.906 --     5 O    1.179     8 F    0.897     7 F    0.896
                             9 C    0.865
     7   9 F    1.038 --     6 C    0.896
     8   9 F    1.039 --     6 C    0.897
     9   6 C    3.842 --    10 F    0.964    11 F    0.964    12 F    0.957
                             6 C    0.865
    10   9 F    1.087 --     9 C    0.964
    11   9 F    1.087 --     9 C    0.964
    12   9 F    1.081 --     9 C    0.957
 ---------------------------------------------------------------------------

molecular dipole:
                 x           y           z       tot (Debye)
 q only:       -6.218      -0.237       0.584
   full:       -6.080      -0.113       0.358      15.482

           -------------------------------------------------
          | TOTAL ENERGY              -47.784313049514 Eh   |
          | GRADIENT NORM               0.000923531967 Eh/α |
          | HOMO-LUMO GAP               7.213067627955 eV   |
           -------------------------------------------------

 * finished run on 2024/12/20 at 01:54:49.619
