   * xtb version 6.7.1 (edcfbbe) compiled by 'conda@3ef47c1a292c' on 2024-11-25

   ID    Z sym.   atoms
    1   35 Br     1
    2    6 C      2-6, 8, 10
    3    7 N      7, 9
    4    1 H      11-14

          program call               : xtb A135.xyz --opt --namespace A135 --charge -1
          :  Hamiltonian                  GFN2-xTB          :
 * total energy  :   -27.1928904 Eh     change       -0.1839631E-09 Eh
 * total energy  :   -27.2008436 Eh     change       -0.7953245E-02 Eh
 * total energy  :   -27.2016237 Eh     change       -0.7800586E-03 Eh
 * total energy  :   -27.2016995 Eh     change       -0.7582757E-04 Eh
 * total energy  :   -27.2017103 Eh     change       -0.1072375E-04 Eh
 * total energy  :   -27.2017110 Eh     change       -0.7740279E-06 Eh
   *** GEOMETRY OPTIMIZATION CONVERGED AFTER 6 ITERATIONS ***

 final structure:
================
14
 xtb: 6.7.1 (edcfbbe)
Br           1.00578167003018        0.04392965079127        0.06330716422725
C            2.93750630784556        0.03439665718456        0.07276484480629
C            3.58268303716522        1.26828722475342        0.07555808389031
C            4.96269441359750        1.31910880417494        0.08230746723800
C            5.67044131452636        0.12456256620216        0.08613369212590
C            4.97335963345650       -1.13708097016325        0.08310180765881
N            5.89618335968617       -2.13365346274161        0.08793780717815
C            7.04874860138966       -1.46414196760727        0.09335095832686
N            7.00489712913505       -0.13267924929400        0.09275136638780
C            3.58459963666969       -1.17909967997729        0.07630469337470
H            2.99764600105949        2.17882725765521        0.07241873190076
H            5.47593636091729        2.27199606613011        0.08453579479815
H            7.99422978495900       -1.98889318764661        0.09816169895471
H            3.04622274956234       -2.11653970946165        0.07395588913232

          :  Hamiltonian                  GFN2-xTB          :
         :: total energy             -27.201711026208 Eh    ::
         :: gradient norm              0.000328684890 Eh/a0 ::
         :: HOMO-LUMO gap              3.184510258460 eV    ::
         :: SCC energy               -27.574814110576 Eh    ::
         :: -> dispersion             -0.015696455901 Eh    ::
         :: repulsion energy           0.373103084368 Eh    ::

    * Orbital Energies and Occupations

         #    Occupation            Energy/Eh            Energy/eV
      -------------------------------------------------------------
         1        2.0000           -0.7094528             -19.3052
       ...           ...                  ...                  ...
        13        2.0000           -0.3484933              -9.4830
        14        2.0000           -0.3410506              -9.2805
        15        2.0000           -0.3185164              -8.6673
        16        2.0000           -0.3088109              -8.4032
        17        2.0000           -0.2956388              -8.0447
        18        2.0000           -0.2849719              -7.7545
        19        2.0000           -0.2821054              -7.6765
        20        2.0000           -0.2775947              -7.5537
        21        2.0000           -0.2693436              -7.3292
        22        2.0000           -0.2192810              -5.9669
        23        2.0000           -0.2152689              -5.8578
        24        2.0000           -0.2131151              -5.7992
        25        2.0000           -0.1998413              -5.4380 (HOMO)
        26                         -0.0828127              -2.2534 (LUMO)
        27                         -0.0699913              -1.9046
        28                         -0.0550288              -1.4974
        29                          0.0056042               0.1525
        30                          0.0728928               1.9835
        31                          0.1728078               4.7023
        32                          0.1741901               4.7400
        33                          0.1766775               4.8076
        34                          0.2135666               5.8114
        35                          0.2601102               7.0780
        36                          0.2794679               7.6047
       ...                                ...                  ...
        49                          0.8431453              22.9432
      -------------------------------------------------------------
                  HL-Gap            0.1170286 Eh            3.1845 eV

     #   Z          covCN         q      C6AA      α(0)
     1  35 Br       1.063    -0.278   192.850    22.391
     2   6 C        2.925     0.051    26.864     8.500
     3   6 C        2.990    -0.066    29.630     8.929
     4   6 C        2.912    -0.064    29.604     8.922
     5   6 C        3.220     0.051    26.156     8.315
     6   6 C        3.236     0.053    25.954     8.265
     7   7 N        1.870    -0.386    30.947     8.246
     8   6 C        3.322     0.136    23.064     7.639
     9   7 N        1.872    -0.386    30.947     8.246
    10   6 C        2.977    -0.068    29.679     8.936
    11   1 H        0.925    -0.002     3.095     2.751
    12   1 H        0.925    -0.004     3.136     2.769
    13   1 H        0.925    -0.045     3.979     3.119
    14   1 H        0.926     0.009     2.914     2.669

Wiberg/Mayer (AO) data.
largest (>0.10) Wiberg bond orders for each atom

     #   Z sym  total        # sym  WBO       # sym  WBO       # sym  WBO
 ---------------------------------------------------------------------------
     1  35 Br   1.009 --     2 C    0.907
     2   6 C    3.885 --    10 C    1.454     3 C    1.357     1 Br   0.907
     3   6 C    3.981 --     4 C    1.464     2 C    1.357    11 H    0.971
     4   6 C    3.987 --     3 C    1.464     5 C    1.345    12 H    0.968
     5   6 C    3.980 --     4 C    1.345     9 N    1.280     6 C    1.154
     6   6 C    3.979 --    10 C    1.331     7 N    1.280     5 C    1.154
     7   7 N    2.954 --     8 C    1.421     6 C    1.280     9 N    0.117
     8   6 C    3.973 --     9 N    1.425     7 N    1.421    13 H    0.962
     9   7 N    2.959 --     8 C    1.425     5 C    1.280     7 N    0.117
    10   6 C    3.986 --     2 C    1.454     6 C    1.331    14 H    0.968
    11   1 H    1.000 --     3 C    0.971
    12   1 H    1.000 --     4 C    0.968
    13   1 H    0.997 --     8 C    0.962
    14   1 H    1.000 --    10 C    0.968
 ---------------------------------------------------------------------------

molecular dipole:
                 x           y           z       tot (Debye)
 q only:       -8.996       1.094      -0.155
   full:       -8.407       1.201      -0.152      21.590

           -------------------------------------------------
          | TOTAL ENERGY              -27.201711026208 Eh   |
          | GRADIENT NORM               0.000328684890 Eh/α |
          | HOMO-LUMO GAP               3.184510258460 eV   |
           -------------------------------------------------

 * finished run on 2024/12/20 at 01:54:49.712
