   * xtb version 6.7.1 (edcfbbe) compiled by 'conda@3ef47c1a292c' on 2024-11-25

   ID    Z sym.   atoms
    1    8 O      1, 3, 5, 7, 8, 10, 12, 13
    2    6 C      2, 6, 9, 11
    3    5 B      4

          program call               : xtb A136.xyz --opt --namespace A136 --charge -1
          :  Hamiltonian                  GFN2-xTB          :
 * total energy  :   -42.6746647 Eh     change       -0.2612879E-09 Eh
 * total energy  :   -42.7431064 Eh     change       -0.6844167E-01 Eh
 * total energy  :   -42.7651307 Eh     change       -0.2202425E-01 Eh
 * total energy  :   -42.7739004 Eh     change       -0.8769766E-02 Eh
 * total energy  :   -42.7769040 Eh     change       -0.3003543E-02 Eh
 * total energy  :   -42.7784413 Eh     change       -0.1537292E-02 Eh
 * total energy  :   -42.7794602 Eh     change       -0.1018924E-02 Eh
 * total energy  :   -42.7799315 Eh     change       -0.4712816E-03 Eh
 * total energy  :   -42.7799188 Eh     change        0.1269224E-04 Eh
 * total energy  :   -42.7801243 Eh     change       -0.2055760E-03 Eh
 * total energy  :   -42.7801265 Eh     change       -0.2188183E-05 Eh
 * total energy  :   -42.7801533 Eh     change       -0.2680664E-04 Eh
 * total energy  :   -42.7801576 Eh     change       -0.4288404E-05 Eh
 * total energy  :   -42.7801676 Eh     change       -0.9997591E-05 Eh
 * total energy  :   -42.7801765 Eh     change       -0.8915108E-05 Eh
 * total energy  :   -42.7801817 Eh     change       -0.5181500E-05 Eh
 * total energy  :   -42.7801887 Eh     change       -0.6987027E-05 Eh
 * total energy  :   -42.7801908 Eh     change       -0.2047692E-05 Eh
 * total energy  :   -42.7801916 Eh     change       -0.8725174E-06 Eh
   *** GEOMETRY OPTIMIZATION CONVERGED AFTER 19 ITERATIONS ***

 final structure:
================
13
 xtb: 6.7.1 (edcfbbe)
O            1.14612430924527        0.00710498600407        0.24622694332361
C            2.33061088092971       -0.03623774359675        0.04653161727454
O            3.02059249015146       -1.11061533814094       -0.27427608341856
B            4.45020610206591       -0.77163777459347       -0.43766019330051
O            4.52097952315469        0.67896317029440       -0.16571581646537
C            3.32444216414456        1.14919915908952        0.11851741178017
O            3.06145012117026        2.29175033061301        0.38301570156060
O            4.94700770022617       -1.10684220814181       -1.78902904624646
C            5.95166271486671       -1.95423378044520       -1.70877101936493
O            6.56376393888359       -2.41124628565451       -2.63663051011139
C            6.19303635593369       -2.24711399143199       -0.20743944565735
O            7.02900340785969       -2.97517753914573        0.25688792334189
O            5.31106029136833       -1.54930298485061        0.47720251728378

          :  Hamiltonian                  GFN2-xTB          :
         :: total energy             -42.780191631192 Eh    ::
         :: gradient norm              0.000468702363 Eh/a0 ::
         :: HOMO-LUMO gap              2.893409003669 eV    ::
         :: SCC energy               -43.040418866077 Eh    ::
         :: -> dispersion             -0.012267845610 Eh    ::
         :: repulsion energy           0.260227234885 Eh    ::

    * Orbital Energies and Occupations

         #    Occupation            Energy/Eh            Energy/eV
      -------------------------------------------------------------
         1        2.0000           -0.6420355             -17.4707
       ...           ...                  ...                  ...
        22        2.0000           -0.4478736             -12.1873
        23        2.0000           -0.4145703             -11.2810
        24        2.0000           -0.4050590             -11.0222
        25        2.0000           -0.4050133             -11.0210
        26        2.0000           -0.3900856             -10.6148
        27        2.0000           -0.3765497             -10.2464
        28        2.0000           -0.3765414             -10.2462
        29        2.0000           -0.3725026             -10.1363
        30        2.0000           -0.3604959              -9.8096
        31        2.0000           -0.3492332              -9.5031
        32        2.0000           -0.3492140              -9.5026
        33        2.0000           -0.2926879              -7.9644
        34        2.0000           -0.2887159              -7.8564 (HOMO)
        35                         -0.1823851              -4.9630 (LUMO)
        36                         -0.1823652              -4.9624
        37                         -0.0728654              -1.9828
        38                         -0.0685144              -1.8644
        39                          0.1882174               5.1217
        40                          0.1882215               5.1218
        41                          0.2094148               5.6985
        42                          0.2094868               5.7004
        43                          0.2226936               6.0598
        44                          0.2805084               7.6330
        45                          0.3933127              10.7026
       ...                                ...                  ...
        52                          0.8531358              23.2150
      -------------------------------------------------------------
                  HL-Gap            0.1063308 Eh            2.8934 eV

     #   Z          covCN         q      C6AA      α(0)
     1   8 O        0.856    -0.367    21.040     6.150
     2   6 C        2.758     0.327    21.444     7.583
     3   8 O        1.636    -0.358    20.059     6.046
     4   5 B        3.404     0.592    13.590     6.144
     5   8 O        1.636    -0.358    20.057     6.045
     6   6 C        2.758     0.327    21.444     7.583
     7   8 O        0.856    -0.367    21.037     6.149
     8   8 O        1.636    -0.358    20.061     6.046
     9   6 C        2.758     0.327    21.444     7.583
    10   8 O        0.856    -0.367    21.037     6.149
    11   6 C        2.758     0.327    21.444     7.583
    12   8 O        0.856    -0.367    21.036     6.149
    13   8 O        1.636    -0.358    20.057     6.045

Wiberg/Mayer (AO) data.
largest (>0.10) Wiberg bond orders for each atom

     #   Z sym  total        # sym  WBO       # sym  WBO       # sym  WBO
 ---------------------------------------------------------------------------
     1   8 O    2.059 --     2 C    1.760     3 O    0.183
     2   6 C    3.915 --     1 O    1.760     3 O    1.192     6 C    0.866
     3   8 O    2.296 --     2 C    1.192     4 B    0.815     1 O    0.183
     4   5 B    3.339 --    13 O    0.816     5 O    0.816     8 O    0.815
                             3 O    0.815
     5   8 O    2.296 --     6 C    1.192     4 B    0.816     7 O    0.183
     6   6 C    3.915 --     7 O    1.760     5 O    1.192     2 C    0.866
     7   8 O    2.059 --     6 C    1.760     5 O    0.183
     8   8 O    2.296 --     9 C    1.192     4 B    0.815    10 O    0.183
     9   6 C    3.915 --    10 O    1.760     8 O    1.192    11 C    0.866
    10   8 O    2.059 --     9 C    1.760     8 O    0.183
    11   6 C    3.915 --    12 O    1.760    13 O    1.192     9 C    0.866
    12   8 O    2.059 --    11 C    1.760    13 O    0.183
    13   8 O    2.296 --    11 C    1.192     4 B    0.816    12 O    0.183
 ---------------------------------------------------------------------------

molecular dipole:
                 x           y           z       tot (Debye)
 q only:       -8.408       1.458       0.828
   full:       -8.408       1.458       0.828      21.793

           -------------------------------------------------
          | TOTAL ENERGY              -42.780191631192 Eh   |
          | GRADIENT NORM               0.000468702363 Eh/α |
          | HOMO-LUMO GAP               2.893409003669 eV   |
           -------------------------------------------------

 * finished run on 2024/12/20 at 01:54:49.895
