   * xtb version 6.7.1 (edcfbbe) compiled by 'conda@3ef47c1a292c' on 2024-11-25

   ID    Z sym.   atoms
    1    6 C      1, 3-8
    2    8 O      2
    3    9 F      9, 10, 12-16
    4    5 B      11
    5    1 H      17-19

          program call               : xtb A137.xyz --opt --namespace A137 --charge -1
          :  Hamiltonian                  GFN2-xTB          :
 * total energy  :   -55.3227147 Eh     change       -0.2610534E-09 Eh
 * total energy  :   -55.3318850 Eh     change       -0.9170337E-02 Eh
 * total energy  :   -55.3337466 Eh     change       -0.1861550E-02 Eh
 * total energy  :   -55.3340668 Eh     change       -0.3202080E-03 Eh
 * total energy  :   -55.3342104 Eh     change       -0.1436774E-03 Eh
 * total energy  :   -55.3342573 Eh     change       -0.4681868E-04 Eh
 * total energy  :   -55.3343206 Eh     change       -0.6336555E-04 Eh
 * total energy  :   -55.3343917 Eh     change       -0.7110912E-04 Eh
 * total energy  :   -55.3345067 Eh     change       -0.1150082E-03 Eh
 * total energy  :   -55.3346256 Eh     change       -0.1188099E-03 Eh
 * total energy  :   -55.3359482 Eh     change       -0.1000579E-04 Eh
 * total energy  :   -55.3359652 Eh     change       -0.1707048E-04 Eh
 * total energy  :   -55.3359731 Eh     change       -0.7875995E-05 Eh
 * total energy  :   -55.3359865 Eh     change       -0.1334884E-04 Eh
 * total energy  :   -55.3360001 Eh     change       -0.1363148E-04 Eh
 * total energy  :   -55.3360132 Eh     change       -0.1311267E-04 Eh
 * total energy  :   -55.3360249 Eh     change       -0.1168133E-04 Eh
 * total energy  :   -55.3360309 Eh     change       -0.6050205E-05 Eh
 * total energy  :   -55.3360345 Eh     change       -0.3526122E-05 Eh
   *** GEOMETRY OPTIMIZATION CONVERGED AFTER 32 ITERATIONS ***

 final structure:
================
19
 xtb: 6.7.1 (edcfbbe)
C            1.18945534065460       -0.05645602041068        0.16440849245060
O            0.31124387173271       -1.14419008170702        0.32926851660425
C            0.76561522423784       -2.41169000388247        0.10980742258451
C           -0.17058208215256       -3.43562557070368        0.27917976087082
C            0.15092983672587       -4.77154731372859        0.08459658915436
C            1.42125314059761       -5.18728029666934       -0.29248558800844
C            2.34269047888325       -4.16515637407881       -0.45319687457951
C            2.04294825966820       -2.81743685977341       -0.26266999285470
F            3.04335554808440       -1.91056853062375       -0.45376844288490
F            3.60824322530868       -4.43501166938505       -0.81047792393277
B            1.88552135713846       -6.78174399200082       -0.55458237698123
F            2.38184886429705       -6.89703653499165       -1.85136078163229
F            2.88138711372552       -7.11615670551379        0.36106063352085
F            0.82629027893260       -7.66065375946225       -0.40483807533110
F           -0.83899272343204       -5.65620440671096        0.28156583554185
F           -1.42880681585388       -3.08768523942719        0.64496042782649
H            0.59155172380595        0.82867328585811        0.37986551033725
H            1.57262777029566        0.00623530108236       -0.85793936790174
H            2.03042958735024       -0.10370522787130        0.86165623521551

          :  Hamiltonian                  GFN2-xTB          :
         :: total energy             -55.336034467442 Eh    ::
         :: gradient norm              0.000483897944 Eh/a0 ::
         :: HOMO-LUMO gap              3.414058278232 eV    ::
         :: SCC energy               -55.673885185376 Eh    ::
         :: -> dispersion             -0.017416481562 Eh    ::
         :: repulsion energy           0.337850717934 Eh    ::

    * Orbital Energies and Occupations

         #    Occupation            Energy/Eh            Energy/eV
      -------------------------------------------------------------
         1        2.0000           -0.7328853             -19.9428
       ...           ...                  ...                  ...
        33        2.0000           -0.3491228              -9.5001
        34        2.0000           -0.3472818              -9.4500
        35        2.0000           -0.3428752              -9.3301
        36        2.0000           -0.3380916              -9.1999
        37        2.0000           -0.3369632              -9.1692
        38        2.0000           -0.3040358              -8.2732
        39        2.0000           -0.3028101              -8.2399
        40        2.0000           -0.3000564              -8.1649
        41        2.0000           -0.2928343              -7.9684
        42        2.0000           -0.2922979              -7.9538
        43        2.0000           -0.2901450              -7.8952
        44        2.0000           -0.2894288              -7.8758
        45        2.0000           -0.2656631              -7.2291 (HOMO)
        46                         -0.1401988              -3.8150 (LUMO)
        47                         -0.1352718              -3.6809
        48                         -0.0107195              -0.2917
        49                          0.0753179               2.0495
        50                          0.1096278               2.9831
        51                          0.1455279               3.9600
        52                          0.1526050               4.1526
        53                          0.1956697               5.3244
        54                          0.2122071               5.7744
        55                          0.2369616               6.4481
        56                          0.2610574               7.1037
       ...                                ...                  ...
        67                          0.7326168              19.9355
      -------------------------------------------------------------
                  HL-Gap            0.1254643 Eh            3.4141 eV

     #   Z          covCN         q      C6AA      α(0)
     1   6 C        3.641     0.040    20.255     6.472
     2   8 O        1.705    -0.248    18.105     5.745
     3   6 C        2.855     0.102    25.736     8.315
     4   6 C        2.786     0.109    25.588     8.286
     5   6 C        2.792     0.147    24.783     8.155
     6   6 C        2.857    -0.123    31.112     9.142
     7   6 C        2.795     0.149    24.753     8.150
     8   6 C        2.782     0.097    25.830     8.325
     9   9 F        0.785    -0.225    11.500     4.006
    10   9 F        0.788    -0.186    11.091     3.934
    11   5 B        3.037     0.596    13.536     6.137
    12   9 F        0.721    -0.407    13.615     4.357
    13   9 F        0.721    -0.407    13.617     4.358
    14   9 F        0.721    -0.401    13.538     4.345
    15   9 F        0.788    -0.186    11.091     3.934
    16   9 F        0.786    -0.208    11.320     3.974
    17   1 H        0.925     0.053     2.286     2.364
    18   1 H        0.924     0.049     2.337     2.391
    19   1 H        0.924     0.049     2.337     2.391

Wiberg/Mayer (AO) data.
largest (>0.10) Wiberg bond orders for each atom

     #   Z sym  total        # sym  WBO       # sym  WBO       # sym  WBO
 ---------------------------------------------------------------------------
     1   6 C    3.942 --     2 O    0.981    17 H    0.981    18 H    0.978
                            19 H    0.978
     2   8 O    2.233 --     3 C    1.065     1 C    0.981
     3   6 C    3.944 --     8 C    1.343     4 C    1.313     2 O    1.065
     4   6 C    3.880 --     5 C    1.362     3 C    1.313    16 F    0.962
     5   6 C    3.896 --     6 C    1.366     4 C    1.362    15 F    0.986
     6   6 C    3.849 --     7 C    1.387     5 C    1.366    11 B    0.780
     7   6 C    3.896 --     6 C    1.387     8 C    1.338    10 F    0.986
     8   6 C    3.872 --     3 C    1.343     7 C    1.338     9 F    0.946
     9   9 F    1.069 --     8 C    0.946
    10   9 F    1.128 --     7 C    0.986
    11   5 B    3.323 --    14 F    0.847    12 F    0.833    13 F    0.832
                             6 C    0.780
    12   9 F    0.920 --    11 B    0.833
    13   9 F    0.920 --    11 B    0.832
    14   9 F    0.929 --    11 B    0.847
    15   9 F    1.126 --     5 C    0.986
    16   9 F    1.089 --     4 C    0.962
    17   1 H    0.997 --     1 C    0.981
    18   1 H    0.998 --     1 C    0.978
    19   1 H    0.998 --     1 C    0.978
 ---------------------------------------------------------------------------

molecular dipole:
                 x           y           z       tot (Debye)
 q only:       -3.061      12.125       0.843
   full:       -3.003      12.515       0.859      32.785

           -------------------------------------------------
          | TOTAL ENERGY              -55.336034467442 Eh   |
          | GRADIENT NORM               0.000483897944 Eh/α |
          | HOMO-LUMO GAP               3.414058278232 eV   |
           -------------------------------------------------

 * finished run on 2024/12/20 at 01:54:50.193
