   * xtb version 6.7.1 (edcfbbe) compiled by 'conda@3ef47c1a292c' on 2024-11-25

   ID    Z sym.   atoms
    1   16 S      1
    2    7 N      2
    3    8 O      3-5
    4    1 H      6, 7

          program call               : xtb A138.xyz --opt --namespace A138 --charge -1
          :  Hamiltonian                  GFN2-xTB          :
 * total energy  :   -19.6284719 Eh     change       -0.1369216E-10 Eh
 * total energy  :   -19.6316782 Eh     change       -0.3206303E-02 Eh
 * total energy  :   -19.6325658 Eh     change       -0.8876311E-03 Eh
 * total energy  :   -19.6326661 Eh     change       -0.1003160E-03 Eh
 * total energy  :   -19.6327517 Eh     change       -0.8562064E-04 Eh
 * total energy  :   -19.6327707 Eh     change       -0.1892750E-04 Eh
 * total energy  :   -19.6327772 Eh     change       -0.6579648E-05 Eh
 * total energy  :   -19.6327783 Eh     change       -0.1113380E-05 Eh
   *** GEOMETRY OPTIMIZATION CONVERGED AFTER 8 ITERATIONS ***

 final structure:
================
7
 xtb: 6.7.1 (edcfbbe)
S            1.09775723932756       -0.05913006219665        0.01431457554292
N            0.54460690312883        0.11736661877582       -1.62429207035315
O            0.53904890071565       -1.32945051036273        0.44618942797271
O            0.52583062649079        1.10251864044629        0.69822890424591
O            2.54692777320581       -0.02419885476007       -0.09202283020168
H           -0.45488230487395        0.17931892289680       -1.50200745669306
H            0.88652086200530        1.03630524520053       -1.86186055051365

          :  Hamiltonian                  GFN2-xTB          :
         :: total energy             -19.632778347185 Eh    ::
         :: gradient norm              0.000494101300 Eh/a0 ::
         :: HOMO-LUMO gap              8.499970026515 eV    ::
         :: SCC energy               -19.733052759937 Eh    ::
         :: -> dispersion             -0.005112803817 Eh    ::
         :: repulsion energy           0.100274412752 Eh    ::

    * Orbital Energies and Occupations

         #    Occupation            Energy/Eh            Energy/eV
      -------------------------------------------------------------
         1        2.0000           -0.5593768             -15.2214
       ...           ...                  ...                  ...
         4        2.0000           -0.4487875             -12.2121
         5        2.0000           -0.4170144             -11.3475
         6        2.0000           -0.3654294              -9.9438
         7        2.0000           -0.3348533              -9.1118
         8        2.0000           -0.3184348              -8.6651
         9        2.0000           -0.3095616              -8.4236
        10        2.0000           -0.2692609              -7.3270
        11        2.0000           -0.2482070              -6.7541
        12        2.0000           -0.2448615              -6.6630
        13        2.0000           -0.2309596              -6.2847
        14        2.0000           -0.2304126              -6.2698
        15        2.0000           -0.2226266              -6.0580
        16        2.0000           -0.2179423              -5.9305 (HOMO)
        17                          0.0944258               2.5695 (LUMO)
        18                          0.1482436               4.0339
        19                          0.2176892               5.9236
        20                          0.2252317               6.1289
        21                          0.2598387               7.0706
        22                          0.3420837               9.3086
        23                          0.4215426              11.4708
        24                          0.4419740              12.0267
        25                          0.8754150              23.8213
        26                          1.3619367              37.0602
        27                          1.3928429              37.9012
      -------------------------------------------------------------
                  HL-Gap            0.3123682 Eh            8.5000 eV

     #   Z          covCN         q      C6AA      α(0)
     1  16 S        3.506     1.261    99.489    16.788
     2   7 N        2.631    -0.498    33.242     8.563
     3   8 O        0.860    -0.677    28.096     7.107
     4   8 O        0.860    -0.706    28.863     7.203
     5   8 O        0.860    -0.678    28.103     7.108
     6   1 H        0.869     0.149     1.408     1.858
     7   1 H        0.869     0.149     1.408     1.858

Wiberg/Mayer (AO) data.
largest (>0.10) Wiberg bond orders for each atom

     #   Z sym  total        # sym  WBO       # sym  WBO       # sym  WBO
 ---------------------------------------------------------------------------
     1  16 S    5.153 --     3 O    1.463     5 O    1.463     4 O    1.419
                             2 N    0.794
     2   7 N    2.975 --     6 H    0.966     7 H    0.966     1 S    0.794
     3   8 O    1.771 --     1 S    1.463     5 O    0.112     4 O    0.112
     4   8 O    1.735 --     1 S    1.419     3 O    0.112     5 O    0.112
     5   8 O    1.771 --     1 S    1.463     3 O    0.112     4 O    0.112
     6   1 H    0.978 --     2 N    0.966
     7   1 H    0.978 --     2 N    0.966
 ---------------------------------------------------------------------------

molecular dipole:
                 x           y           z       tot (Debye)
 q only:       -2.428       0.353      -0.768
   full:       -2.617       0.633      -0.804       7.142

           -------------------------------------------------
          | TOTAL ENERGY              -19.632778347185 Eh   |
          | GRADIENT NORM               0.000494101300 Eh/α |
          | HOMO-LUMO GAP               8.499970026515 eV   |
           -------------------------------------------------

 * finished run on 2024/12/20 at 01:54:50.243
