   * xtb version 6.7.1 (edcfbbe) compiled by 'conda@3ef47c1a292c' on 2024-11-25

   ID    Z sym.   atoms
    1    6 C      1, 4, 6, 8
    2    7 N      2, 5, 7, 9
    3    5 B      3

          program call               : xtb A139.xyz --opt --namespace A139 --charge -1
          :  Hamiltonian                  GFN2-xTB          :
 * total energy  :   -21.4962189 Eh     change       -0.4468959E-10 Eh
 * total energy  :   -21.5859954 Eh     change       -0.8977647E-01 Eh
 * total energy  :   -21.5900914 Eh     change       -0.4096032E-02 Eh
 * total energy  :   -21.5906481 Eh     change       -0.5566284E-03 Eh
 * total energy  :   -21.5906963 Eh     change       -0.4821533E-04 Eh
 * total energy  :   -21.5906963 Eh     change       -0.4498150E-07 Eh
   *** GEOMETRY OPTIMIZATION CONVERGED AFTER 6 ITERATIONS ***

 final structure:
================
9
 xtb: 6.7.1 (edcfbbe)
C            0.96841120848445       -0.06816445572952        0.00723301364238
N           -0.18132941872326       -0.06815885369569        0.00723278708493
B            2.52719247611419       -0.06817184989910        0.00723381680517
C            3.04676809509866        0.05974498658911       -1.45682857604107
N            3.43005884865203        0.15409897728682       -2.53668491968631
C            3.04680650503920        1.13577764150838        0.85003129348189
N            3.43002480016649        2.02379449959838        1.47170150311540
C            3.04676041194070       -1.40005163838292        0.62847874915692
N            3.43004707322753       -2.38240930727547        1.08670233244070

          :  Hamiltonian                  GFN2-xTB          :
         :: total energy             -21.590696333844 Eh    ::
         :: gradient norm              0.000116212050 Eh/a0 ::
         :: HOMO-LUMO gap              5.014343040421 eV    ::
         :: SCC energy               -22.040167763018 Eh    ::
         :: -> dispersion             -0.008225049277 Eh    ::
         :: repulsion energy           0.449471429174 Eh    ::

    * Orbital Energies and Occupations

         #    Occupation            Energy/Eh            Energy/eV
      -------------------------------------------------------------
         1        2.0000           -0.4875796             -13.2677
       ...           ...                  ...                  ...
         8        2.0000           -0.3683527             -10.0234
         9        2.0000           -0.3305532              -8.9948
        10        2.0000           -0.3305529              -8.9948
        11        2.0000           -0.3247928              -8.8381
        12        2.0000           -0.3247924              -8.8381
        13        2.0000           -0.3247921              -8.8380
        14        2.0000           -0.3195196              -8.6946
        15        2.0000           -0.3195194              -8.6946
        16        2.0000           -0.3195191              -8.6946
        17        2.0000           -0.2844033              -7.7390
        18        2.0000           -0.2554171              -6.9503
        19        2.0000           -0.2554163              -6.9502
        20        2.0000           -0.2554149              -6.9502 (HOMO)
        21                         -0.0711412              -1.9359 (LUMO)
        22                         -0.0711400              -1.9358
        23                         -0.0699614              -1.9037
        24                         -0.0699591              -1.9037
        25                         -0.0699578              -1.9036
        26                         -0.0318510              -0.8667
        27                         -0.0318506              -0.8667
        28                         -0.0318499              -0.8667
        29                          0.4089311              11.1276
        30                          0.4089317              11.1276
        31                          0.4089328              11.1276
       ...                                ...                  ...
        36                          1.3253129              36.0636
      -------------------------------------------------------------
                  HL-Gap            0.1842737 Eh            5.0143 eV

     #   Z          covCN         q      C6AA      α(0)
     1   6 C        1.817     0.046    30.013     8.852
     2   7 N        0.911    -0.332    28.533     7.726
     3   5 B        3.605     0.144    19.632     7.260
     4   6 C        1.817     0.046    30.013     8.852
     5   7 N        0.911    -0.332    28.533     7.726
     6   6 C        1.817     0.046    30.013     8.852
     7   7 N        0.911    -0.332    28.533     7.726
     8   6 C        1.817     0.046    30.013     8.852
     9   7 N        0.911    -0.332    28.533     7.726

Wiberg/Mayer (AO) data.
largest (>0.10) Wiberg bond orders for each atom

     #   Z sym  total        # sym  WBO       # sym  WBO       # sym  WBO
 ---------------------------------------------------------------------------
     1   6 C    3.853 --     2 N    2.852     3 B    0.877
     2   7 N    2.995 --     1 C    2.852
     3   5 B    3.662 --     8 C    0.877     6 C    0.877     1 C    0.877
                             4 C    0.877
     4   6 C    3.853 --     5 N    2.852     3 B    0.877
     5   7 N    2.995 --     4 C    2.852
     6   6 C    3.853 --     7 N    2.852     3 B    0.877
     7   7 N    2.995 --     6 C    2.852
     8   6 C    3.853 --     9 N    2.852     3 B    0.877
     9   7 N    2.995 --     8 C    2.852
 ---------------------------------------------------------------------------

molecular dipole:
                 x           y           z       tot (Debye)
 q only:       -4.776       0.129      -0.014
   full:       -4.776       0.129      -0.014      12.143

           -------------------------------------------------
          | TOTAL ENERGY              -21.590696333844 Eh   |
          | GRADIENT NORM               0.000116212050 Eh/α |
          | HOMO-LUMO GAP               5.014343040421 eV   |
           -------------------------------------------------

 * finished run on 2024/12/20 at 01:54:50.292
