   * xtb version 6.7.1 (edcfbbe) compiled by 'conda@3ef47c1a292c' on 2024-11-25

   ID    Z sym.   atoms
    1    8 O      1
    2    6 C      2-13
    3    9 F      14, 15, 17-21
    4    5 B      16
    5    1 H      22-26

          program call               : xtb A140.xyz --opt --namespace A140 --charge -1
          :  Hamiltonian                  GFN2-xTB          :
 * total energy  :   -66.9844194 Eh     change       -0.2263931E-09 Eh
 * total energy  :   -67.0274104 Eh     change       -0.4299096E-01 Eh
 * total energy  :   -67.0457590 Eh     change       -0.1834863E-01 Eh
 * total energy  :   -67.0525181 Eh     change       -0.6759131E-02 Eh
 * total energy  :   -67.0554795 Eh     change       -0.2961370E-02 Eh
 * total energy  :   -67.0566802 Eh     change       -0.1200702E-02 Eh
 * total energy  :   -67.0573178 Eh     change       -0.6375642E-03 Eh
 * total energy  :   -67.0578243 Eh     change       -0.5065102E-03 Eh
 * total energy  :   -67.0582707 Eh     change       -0.4464633E-03 Eh
 * total energy  :   -67.0587500 Eh     change       -0.4792434E-03 Eh
 * total energy  :   -67.0618289 Eh     change       -0.7342114E-05 Eh
 * total energy  :   -67.0618363 Eh     change       -0.7373682E-05 Eh
 * total energy  :   -67.0618451 Eh     change       -0.8823319E-05 Eh
 * total energy  :   -67.0618532 Eh     change       -0.8049422E-05 Eh
 * total energy  :   -67.0618598 Eh     change       -0.6595399E-05 Eh
 * total energy  :   -67.0618664 Eh     change       -0.6597648E-05 Eh
 * total energy  :   -67.0618735 Eh     change       -0.7166430E-05 Eh
 * total energy  :   -67.0618801 Eh     change       -0.6569494E-05 Eh
 * total energy  :   -67.0618841 Eh     change       -0.4008244E-05 Eh
   *** GEOMETRY OPTIMIZATION CONVERGED AFTER 38 ITERATIONS ***

 final structure:
================
26
 xtb: 6.7.1 (edcfbbe)
O            1.03217010881923        0.37388342438066        0.97215054799538
C            0.26340315703131        1.37362250443214        0.44301642970667
C           -0.97343890740706        1.58615668794293        1.04640165135939
C           -1.82822598833516        2.54764498222290        0.54605652581060
C           -1.46172892033553        3.30588768241398       -0.55416109826384
C           -0.23548988058034        3.08714786240394       -1.15658777274475
C            0.62798867472815        2.12304091334700       -0.66923590961077
C            2.37610906102819        0.33902013163346        0.68907643307279
C            2.95040691567852       -0.83591344065389        0.21369525097430
C            4.31909435359061       -0.91883893116903       -0.01623181682619
C            5.18355600869288        0.14798532793085        0.19530989937877
C            4.59553750632242        1.30981273493343        0.67601196307488
C            3.23172953393557        1.41095858063400        0.92850533673615
F            2.71169173541413        2.56654761886328        1.41166393835151
F            5.32748367121978        2.40503816516032        0.92968389319298
B            6.82554988788552       -0.03291409465148       -0.14273824330058
F            7.34329694176132       -1.02869736813968        0.67893799577315
F            6.96196903111843       -0.39990036508134       -1.47846705751918
F            7.52589417880671        1.14005085629156        0.07199389963260
F            4.78201391603565       -2.09182741837002       -0.47032220755412
F            2.14773860193018       -1.89777633370122       -0.02387800752250
H           -1.24041295267174        0.98727517269677        1.90308684821944
H           -2.78505784790810        2.70983886563288        1.02136508223467
H           -2.12934871019095        4.06232411689439       -0.93991723246775
H            0.05675424055297        3.66955909481431       -2.01815024328904
H            1.57940568287855        1.95167322913699       -1.15108610641677

          :  Hamiltonian                  GFN2-xTB          :
         :: total energy             -67.061884123152 Eh    ::
         :: gradient norm              0.000380634294 Eh/a0 ::
         :: HOMO-LUMO gap              3.106596028377 eV    ::
         :: SCC energy               -67.651447582457 Eh    ::
         :: -> dispersion             -0.027905909770 Eh    ::
         :: repulsion energy           0.589563459305 Eh    ::

    * Orbital Energies and Occupations

         #    Occupation            Energy/Eh            Energy/eV
      -------------------------------------------------------------
         1        2.0000           -0.7389764             -20.1086
       ...           ...                  ...                  ...
        44        2.0000           -0.3501531              -9.5282
        45        2.0000           -0.3478550              -9.4656
        46        2.0000           -0.3440406              -9.3618
        47        2.0000           -0.3406176              -9.2687
        48        2.0000           -0.3255605              -8.8590
        49        2.0000           -0.3124256              -8.5015
        50        2.0000           -0.3097837              -8.4296
        51        2.0000           -0.3067137              -8.3461
        52        2.0000           -0.3028827              -8.2419
        53        2.0000           -0.2989754              -8.1355
        54        2.0000           -0.2968956              -8.0789
        55        2.0000           -0.2961273              -8.0580
        56        2.0000           -0.2730667              -7.4305 (HOMO)
        57                         -0.1589014              -4.3239 (LUMO)
        58                         -0.1584924              -4.3128
        59                         -0.1493089              -4.0629
        60                         -0.1424021              -3.8750
        61                         -0.0270816              -0.7369
        62                         -0.0198646              -0.5405
        63                          0.0760760               2.0701
        64                          0.1092678               2.9733
        65                          0.1398617               3.8058
        66                          0.1559401               4.2433
        67                          0.1881815               5.1207
       ...                                ...                  ...
        89                          0.7384498              20.0942
      -------------------------------------------------------------
                  HL-Gap            0.1141653 Eh            3.1066 eV

     #   Z          covCN         q      C6AA      α(0)
     1   8 O        1.708    -0.234    17.886     5.710
     2   6 C        2.873     0.153    24.680     8.144
     3   6 C        2.920    -0.052    29.290     8.875
     4   6 C        2.921    -0.031    28.769     8.796
     5   6 C        2.919    -0.042    29.051     8.839
     6   6 C        2.922    -0.029    28.713     8.787
     7   6 C        2.917    -0.052    29.290     8.875
     8   6 C        2.867     0.098    25.823     8.330
     9   6 C        2.780     0.114    25.467     8.266
    10   6 C        2.790     0.150    24.723     8.145
    11   6 C        2.856    -0.118    30.978     9.123
    12   6 C        2.789     0.147    24.795     8.157
    13   6 C        2.780     0.109    25.568     8.282
    14   9 F        0.786    -0.211    11.346     3.979
    15   9 F        0.788    -0.183    11.066     3.929
    16   5 B        3.036     0.597    13.526     6.134
    17   9 F        0.721    -0.403    13.573     4.351
    18   9 F        0.721    -0.404    13.584     4.352
    19   9 F        0.721    -0.398    13.505     4.340
    20   9 F        0.788    -0.180    11.035     3.924
    21   9 F        0.786    -0.203    11.263     3.964
    22   1 H        0.926     0.045     2.379     2.412
    23   1 H        0.926     0.028     2.611     2.527
    24   1 H        0.926     0.025     2.658     2.549
    25   1 H        0.926     0.033     2.545     2.495
    26   1 H        0.926     0.040     2.454     2.450

Wiberg/Mayer (AO) data.
largest (>0.10) Wiberg bond orders for each atom

     #   Z sym  total        # sym  WBO       # sym  WBO       # sym  WBO
 ---------------------------------------------------------------------------
     1   8 O    2.297 --     2 C    1.030     8 C    1.021
     2   6 C    3.929 --     7 C    1.377     3 C    1.361     1 O    1.030
     3   6 C    3.987 --     4 C    1.460     2 C    1.361    22 H    0.969
                             6 C    0.108
     4   6 C    3.992 --     3 C    1.460     5 C    1.427    23 H    0.971
                             7 C    0.106
     5   6 C    3.989 --     6 C    1.439     4 C    1.427    24 H    0.972
     6   6 C    3.992 --     7 C    1.446     5 C    1.439    25 H    0.971
                             3 C    0.108
     7   6 C    3.990 --     6 C    1.446     2 C    1.377    26 H    0.966
                             4 C    0.106
     8   6 C    3.939 --     9 C    1.339    13 C    1.338     1 O    1.021
     9   6 C    3.884 --    10 C    1.348     8 C    1.339    21 F    0.967
    10   6 C    3.897 --    11 C    1.374     9 C    1.348    20 F    0.991
    11   6 C    3.839 --    12 C    1.377    10 C    1.374    16 B    0.772
    12   6 C    3.896 --    11 C    1.377    13 C    1.347    15 F    0.988
    13   6 C    3.882 --    12 C    1.347     8 C    1.338    14 F    0.960
    14   9 F    1.090 --    13 C    0.960
    15   9 F    1.130 --    12 C    0.988
    16   5 B    3.323 --    19 F    0.849    17 F    0.836    18 F    0.835
                            11 C    0.772
    17   9 F    0.925 --    16 B    0.836
    18   9 F    0.923 --    16 B    0.835
    19   9 F    0.932 --    16 B    0.849
    20   9 F    1.134 --    10 C    0.991
    21   9 F    1.098 --     9 C    0.967
    22   1 H    0.998 --     3 C    0.969
    23   1 H    0.999 --     4 C    0.971
    24   1 H    0.999 --     5 C    0.972
    25   1 H    0.999 --     6 C    0.971
    26   1 H    0.998 --     7 C    0.966
 ---------------------------------------------------------------------------

molecular dipole:
                 x           y           z       tot (Debye)
 q only:      -11.502       0.108      -0.116
   full:      -11.768       0.172      -0.078      29.916

           -------------------------------------------------
          | TOTAL ENERGY              -67.061884123152 Eh   |
          | GRADIENT NORM               0.000380634294 Eh/α |
          | HOMO-LUMO GAP               3.106596028377 eV   |
           -------------------------------------------------

 * finished run on 2024/12/20 at 01:54:50.825
