   * xtb version 6.7.1 (edcfbbe) compiled by 'conda@3ef47c1a292c' on 2024-11-25

   ID    Z sym.   atoms
    1    9 F      1, 12-23
    2    6 C      2-7
    3   16 S      8
    4    8 O      9-11

          program call               : xtb A141.xyz --opt --namespace A141 --charge -1
          :  Hamiltonian                  GFN2-xTB          :
 * total energy  :   -90.0306909 Eh     change       -0.1074625E-09 Eh
 * total energy  :   -90.0430648 Eh     change       -0.1237390E-01 Eh
 * total energy  :   -90.0486236 Eh     change       -0.5558710E-02 Eh
 * total energy  :   -90.0494028 Eh     change       -0.7792363E-03 Eh
 * total energy  :   -90.0497498 Eh     change       -0.3469703E-03 Eh
 * total energy  :   -90.0498460 Eh     change       -0.9625017E-04 Eh
 * total energy  :   -90.0499363 Eh     change       -0.9025879E-04 Eh
 * total energy  :   -90.0500093 Eh     change       -0.7298920E-04 Eh
 * total energy  :   -90.0500903 Eh     change       -0.8104119E-04 Eh
 * total energy  :   -90.0501648 Eh     change       -0.7446978E-04 Eh
 * total energy  :   -90.0502223 Eh     change       -0.5749515E-04 Eh
 * total energy  :   -90.0502708 Eh     change       -0.4849425E-04 Eh
 * total energy  :   -90.0503056 Eh     change       -0.3489148E-04 Eh
 * total energy  :   -90.0503158 Eh     change       -0.1018261E-04 Eh
 * total energy  :   -90.0503359 Eh     change       -0.2011198E-04 Eh
 * total energy  :   -90.0503451 Eh     change       -0.9122077E-05 Eh
 * total energy  :   -90.0503509 Eh     change       -0.5797104E-05 Eh
 * total energy  :   -90.0503554 Eh     change       -0.4562982E-05 Eh
   *** GEOMETRY OPTIMIZATION CONVERGED AFTER 18 ITERATIONS ***

 final structure:
================
23
 xtb: 6.7.1 (edcfbbe)
F            1.17596230208552       -0.14497596648192        0.51130251435504
C            2.33159471029405       -0.36457485434702       -0.10557314118289
C            2.63144193133294        0.69414490207897       -1.21158498583612
C            2.27584980140633        2.19156332428743       -0.92280229149445
C            2.91159383752989        2.84111594546926        0.34621712212161
C            4.45093287752431        3.02069296060782        0.41755350107889
C            5.10978808964843        3.89649500376914       -0.63594050636616
S            4.31472586669301        5.63565633321858       -0.72429253197492
O            4.22732043293122        5.97447362874055        0.67223908306887
O            5.26381064592300        6.37963326499068       -1.50571795244191
O            3.07027969620332        5.30593093336018       -1.37428352403014
F            6.42882612714135        3.98767410878130       -0.34348160399145
F            5.03581468293626        3.28450406121573       -1.84441817518445
F            4.73751060698784        3.48411414323880        1.64319221399164
F            4.96496830640810        1.74233544086249        0.40778123723589
F            2.25354058128821        3.95436349143326        0.64347685319480
F            2.59465319877414        1.97350835092057        1.36347889135571
F            2.51347587491130        2.84922022593463       -2.05418878491422
F            0.93317330382501        2.22427204638118       -0.73331056196194
F            3.90873259929420        0.55676433488735       -1.59142485992319
F            1.88104884012988        0.33395709315223       -2.27979009768080
F            3.28915388614175       -0.44714434011822        0.80323994473747
F            2.23892180059023       -1.56702443238278       -0.68252234415724

          :  Hamiltonian                  GFN2-xTB          :
         :: total energy             -90.050355423782 Eh    ::
         :: gradient norm              0.000778579128 Eh/a0 ::
         :: HOMO-LUMO gap              6.826103028768 eV    ::
         :: SCC energy               -90.311408634987 Eh    ::
         :: -> dispersion             -0.028509511674 Eh    ::
         :: repulsion energy           0.261053211205 Eh    ::

    * Orbital Energies and Occupations

         #    Occupation            Energy/Eh            Energy/eV
      -------------------------------------------------------------
         1        2.0000           -0.8585787             -23.3631
       ...           ...                  ...                  ...
        58        2.0000           -0.4287487             -11.6668
        59        2.0000           -0.4215251             -11.4703
        60        2.0000           -0.4196653             -11.4197
        61        2.0000           -0.4048093             -11.0154
        62        2.0000           -0.3932332             -10.7004
        63        2.0000           -0.3922968             -10.6749
        64        2.0000           -0.3868540             -10.5268
        65        2.0000           -0.3267789              -8.8921
        66        2.0000           -0.3256443              -8.8612
        67        2.0000           -0.3089905              -8.4081
        68        2.0000           -0.3087950              -8.4027
        69        2.0000           -0.2970577              -8.0834
        70        2.0000           -0.2938078              -7.9949 (HOMO)
        71                         -0.0429532              -1.1688 (LUMO)
        72                         -0.0251353              -0.6840
        73                         -0.0152945              -0.4162
        74                         -0.0131331              -0.3574
        75                          0.0078570               0.2138
        76                          0.0254597               0.6928
        77                          0.0365439               0.9944
        78                          0.0454113               1.2357
        79                          0.0760989               2.0708
        80                          0.0833476               2.2680
        81                          0.0976770               2.6579
       ...                                ...                  ...
        97                          1.3901382              37.8276
      -------------------------------------------------------------
                  HL-Gap            0.2508547 Eh            6.8261 eV

     #   Z          covCN         q      C6AA      α(0)
     1   9 F        0.791    -0.166    10.891     3.898
     2   6 C        3.328     0.486    17.399     6.623
     3   6 C        3.517     0.310    17.049     6.092
     4   6 C        3.517     0.320    16.918     6.070
     5   6 C        3.519     0.314    16.985     6.078
     6   6 C        3.534     0.317    16.784     6.014
     7   6 C        3.500     0.188    19.016     6.471
     8  16 S        3.560     1.226   100.415    16.866
     9   8 O        0.860    -0.629    26.829     6.945
    10   8 O        0.860    -0.600    26.109     6.851
    11   8 O        0.860    -0.643    27.201     6.993
    12   9 F        0.795    -0.199    11.226     3.958
    13   9 F        0.795    -0.219    11.431     3.994
    14   9 F        0.791    -0.164    10.874     3.895
    15   9 F        0.789    -0.217    11.415     3.991
    16   9 F        0.790    -0.138    10.618     3.849
    17   9 F        0.792    -0.207    11.309     3.972
    18   9 F        0.790    -0.142    10.649     3.855
    19   9 F        0.791    -0.176    10.985     3.915
    20   9 F        0.789    -0.164    10.868     3.894
    21   9 F        0.791    -0.171    10.939     3.907
    22   9 F        0.791    -0.157    10.804     3.883
    23   9 F        0.793    -0.168    10.910     3.902

Wiberg/Mayer (AO) data.
largest (>0.10) Wiberg bond orders for each atom

     #   Z sym  total        # sym  WBO       # sym  WBO       # sym  WBO
 ---------------------------------------------------------------------------
     1   9 F    1.108 --     2 C    0.975
     2   6 C    3.878 --    22 F    0.985     1 F    0.975    23 F    0.965
                             3 C    0.894
     3   6 C    3.891 --    20 F    0.984    21 F    0.968     4 C    0.906
                             2 C    0.894
     4   6 C    3.896 --    18 F    1.001    19 F    0.962     5 C    0.910
                             3 C    0.906
     5   6 C    3.885 --    16 F    1.008    17 F    0.935     6 C    0.917
                             4 C    0.910
     6   6 C    3.875 --    14 F    0.984     7 C    0.944    15 F    0.925
                             5 C    0.917
     7   6 C    3.729 --    12 F    0.960    13 F    0.948     6 C    0.944
                             8 S    0.609
     8  16 S    5.210 --    10 O    1.537     9 O    1.516    11 O    1.503
                             7 C    0.609
     9   8 O    1.835 --     8 S    1.516    10 O    0.119    11 O    0.114
    10   8 O    1.861 --     8 S    1.537     9 O    0.119    11 O    0.117
    11   8 O    1.821 --     8 S    1.503    10 O    0.117     9 O    0.114
    12   9 F    1.071 --     7 C    0.960
    13   9 F    1.053 --     7 C    0.948
    14   9 F    1.099 --     6 C    0.984
    15   9 F    1.042 --     6 C    0.925
    16   9 F    1.133 --     5 C    1.008
    17   9 F    1.048 --     5 C    0.935
    18   9 F    1.129 --     4 C    1.001
    19   9 F    1.080 --     4 C    0.962
    20   9 F    1.101 --     3 C    0.984
    21   9 F    1.084 --     3 C    0.968
    22   9 F    1.119 --     2 C    0.985
    23   9 F    1.100 --     2 C    0.965
 ---------------------------------------------------------------------------

molecular dipole:
                 x           y           z       tot (Debye)
 q only:       -7.934      -9.014       1.117
   full:       -7.853      -9.138       1.127      30.759

           -------------------------------------------------
          | TOTAL ENERGY              -90.050355423782 Eh   |
          | GRADIENT NORM               0.000778579128 Eh/α |
          | HOMO-LUMO GAP               6.826103028768 eV   |
           -------------------------------------------------

 * finished run on 2024/12/20 at 01:54:51.347
