   * xtb version 6.7.1 (edcfbbe) compiled by 'conda@3ef47c1a292c' on 2024-11-25

   ID    Z sym.   atoms
    1    6 C      1-10, 13, 14, 16-24
    2    8 O      11, 12
    3    7 N      15
    4    1 H      25-60

          program call               : xtb C0004.xyz --opt --namespace C0004 --charge +1
          :  Hamiltonian                  GFN2-xTB          :
 * total energy  :   -73.9863945 Eh     change       -0.4505722E-08 Eh
 * total energy  :   -73.9989112 Eh     change       -0.1251671E-01 Eh
 * total energy  :   -74.0028275 Eh     change       -0.3916242E-02 Eh
 * total energy  :   -74.0036279 Eh     change       -0.8004632E-03 Eh
 * total energy  :   -74.0042171 Eh     change       -0.5891135E-03 Eh
 * total energy  :   -74.0046450 Eh     change       -0.4279338E-03 Eh
 * total energy  :   -74.0050599 Eh     change       -0.4149085E-03 Eh
 * total energy  :   -74.0054060 Eh     change       -0.3460666E-03 Eh
 * total energy  :   -74.0056425 Eh     change       -0.2365543E-03 Eh
 * total energy  :   -74.0058072 Eh     change       -0.1646764E-03 Eh
 * total energy  :   -74.0066344 Eh     change       -0.1705587E-04 Eh
 * total energy  :   -74.0066660 Eh     change       -0.3166122E-04 Eh
 * total energy  :   -74.0066753 Eh     change       -0.9284952E-05 Eh
 * total energy  :   -74.0066841 Eh     change       -0.8789182E-05 Eh
 * total energy  :   -74.0066931 Eh     change       -0.9015863E-05 Eh
 * total energy  :   -74.0067009 Eh     change       -0.7754432E-05 Eh
 * total energy  :   -74.0067075 Eh     change       -0.6646599E-05 Eh
 * total energy  :   -74.0067131 Eh     change       -0.5585838E-05 Eh
 * total energy  :   -74.0067177 Eh     change       -0.4624899E-05 Eh
   *** GEOMETRY OPTIMIZATION CONVERGED AFTER 30 ITERATIONS ***

 final structure:
================
60
 xtb: 6.7.1 (edcfbbe)
C            0.81654603276238        0.18464940290621        0.42150434932023
C            0.45775477336546       -0.34504286523057       -0.96498010228254
C            1.17615658931833       -1.64815995498744       -1.36694419710252
C            0.57468345769801       -2.89080476303521       -0.67547416952638
C           -0.45991313323431       -2.81797206534481        0.24901933634779
C           -0.94404749828051       -3.96399779607393        0.85916793821072
C           -0.42432039744236       -5.20545220305040        0.54333633897310
C            0.58335537812472       -5.29428234426495       -0.40119040009090
C            1.07280552379506       -4.15049539276739       -1.00411993001097
C            0.86166306907486       -1.98965953724462       -2.79900304081130
O            1.54247546084968       -2.64708582303833       -3.55233720302856
O           -0.34570812367537       -1.51971921104775       -3.19809646465650
C           -0.87785761108809       -2.03659991580002       -4.40623189489344
C           -0.88224676206681       -1.03049658281104       -5.56289028850731
N            0.41056870440314       -0.73220988166742       -6.24826525121390
C            1.16101730555139       -1.97731190916544       -6.61860886797181
C            0.42274736145679       -2.95139084697193       -7.52269510504461
C            0.12169830375513        0.04572394232401       -7.49549279165391
C           -0.48755207152976        1.42480166977919       -7.29383100003015
C            1.29120478875375        0.06386380175152       -5.37007683235848
C            2.70114476199337       -1.62300070541980       -1.10273971141921
C            3.62119446658598       -0.92604966712632       -2.11780526549310
C            3.45170106175742        0.58973596882905       -2.18393134228702
C            5.06852767695904       -1.24512112161609       -1.73730153618692
H            0.84613610610677       -0.61161260413667        1.15971033472409
H            0.07284382606441        0.91395116953351        0.73408613637921
H            1.78161145541547        0.68270197993360        0.41466317841994
H           -0.61754109979614       -0.51518554352891       -1.02690759611889
H            0.68792292153275        0.42769172405725       -1.69935287334109
H           -0.90132237375106       -1.87595979027673        0.52541706762760
H           -1.73550207493839       -3.87767837220731        1.58813977383519
H           -0.80381476889273       -6.09455767264367        1.02218138493303
H            0.99168925081274       -6.25589482037680       -0.67244974138343
H            1.84570088920694       -4.24922093659568       -1.75227234782092
H           -0.35793999856894       -2.96513758634625       -4.65924762990146
H           -1.92584195482111       -2.26716730536807       -4.18958900641304
H           -1.57607137823254       -1.40983601320940       -6.31453481785150
H           -1.27483572738909       -0.08974129380082       -5.17316165111431
H            2.08053219809435       -1.65779708528225       -7.11326799832300
H            1.44617751160115       -2.47977595508476       -5.69058826297421
H            0.23480244796662       -2.54437955780049       -8.51226863603339
H            1.05807569594974       -3.82451451498665       -7.64948331934498
H           -0.51464734257211       -3.29246002268636       -7.09333124708098
H            1.06693795682899        0.15297782681569       -8.03194960818523
H           -0.55338569223832       -0.55010805144987       -8.11035209593198
H            0.17095055896134        2.09446380769716       -6.74924864278843
H           -0.64835958714596        1.85963676124881       -8.27740440681033
H           -1.45244055156736        1.38661481872825       -6.79717559072660
H            0.74072035854430        0.88589798838034       -4.91961598375817
H            1.69739425514494       -0.56015439974978       -4.57894053948536
H            2.12409294559840        0.46437806752474       -5.94514186926360
H            2.85989864068883       -1.17900102251904       -0.12149144098725
H            3.04528436008728       -2.65487724620003       -1.03891664685073
H            3.44026146439929       -1.35065548798726       -3.11060233662896
H            3.59252667861597        1.02933170475079       -1.20004000715845
H            4.19990107860280        1.01571310069238       -2.84929485138503
H            2.47251571404411        0.88052626501522       -2.55562006765150
H            5.24317165330848       -2.31789474347938       -1.73973330364176
H            5.75772807886290       -0.78708007451055       -2.44239500884213
H            5.29277738456942       -0.86307731307707       -0.74434291644031

          :  Hamiltonian                  GFN2-xTB          :
         :: total energy             -74.006717725048 Eh    ::
         :: gradient norm              0.000268359922 Eh/a0 ::
         :: HOMO-LUMO gap              3.508222947073 eV    ::
         :: SCC energy               -75.068487542752 Eh    ::
         :: -> dispersion             -0.060480762122 Eh    ::
         :: repulsion energy           1.061769817703 Eh    ::

    * Orbital Energies and Occupations

         #    Occupation            Energy/Eh            Energy/eV
      -------------------------------------------------------------
         1        2.0000           -0.8654314             -23.5496
       ...           ...                  ...                  ...
        56        2.0000           -0.5520526             -15.0221
        57        2.0000           -0.5418448             -14.7443
        58        2.0000           -0.5342476             -14.5376
        59        2.0000           -0.5284030             -14.3786
        60        2.0000           -0.5261302             -14.3167
        61        2.0000           -0.5226830             -14.2229
        62        2.0000           -0.5168070             -14.0630
        63        2.0000           -0.5133799             -13.9698
        64        2.0000           -0.5045509             -13.7295
        65        2.0000           -0.4979383             -13.5496
        66        2.0000           -0.4948830             -13.4665
        67        2.0000           -0.4835204             -13.1573
        68        2.0000           -0.4793058             -13.0426 (HOMO)
        69                         -0.3503810              -9.5344 (LUMO)
        70                         -0.3031151              -8.2482
        71                         -0.2991384              -8.1400
        72                         -0.2305401              -6.2733
        73                         -0.1745380              -4.7494
        74                         -0.1657445              -4.5101
        75                         -0.1573648              -4.2821
        76                         -0.1414945              -3.8503
        77                         -0.1250569              -3.4030
        78                         -0.0606294              -1.6498
        79                         -0.0585608              -1.5935
       ...                                ...                  ...
       132                          0.5843821              15.9018
      -------------------------------------------------------------
                  HL-Gap            0.1289248 Eh            3.5082 eV

     #   Z          covCN         q      C6AA      α(0)
     1   6 C        3.751    -0.107    22.607     6.781
     2   6 C        3.804    -0.058    21.622     6.620
     3   6 C        3.902    -0.007    20.640     6.458
     4   6 C        3.007     0.006    27.864     8.659
     5   6 C        2.923    -0.038    28.937     8.822
     6   6 C        2.921    -0.028    28.694     8.784
     7   6 C        2.919    -0.026    28.655     8.778
     8   6 C        2.919    -0.027    28.685     8.783
     9   6 C        2.926    -0.040    28.995     8.831
    10   6 C        2.759     0.356    20.956     7.496
    11   8 O        0.856    -0.436    22.423     6.349
    12   8 O        1.704    -0.277    18.595     5.822
    13   6 C        3.697     0.065    19.646     6.340
    14   6 C        3.753    -0.042    21.379     6.593
    15   7 N        3.619     0.119    19.203     6.508
    16   6 C        3.760    -0.044    21.415     6.597
    17   6 C        3.751    -0.129    23.050     6.847
    18   6 C        3.761    -0.035    21.240     6.570
    19   6 C        3.751    -0.131    23.074     6.850
    20   6 C        3.719    -0.087    22.275     6.741
    21   6 C        3.809    -0.074    21.910     6.663
    22   6 C        3.848    -0.010    20.728     6.476
    23   6 C        3.755    -0.109    22.632     6.783
    24   6 C        3.759    -0.113    22.704     6.793
    25   1 H        0.925     0.049     2.336     2.390
    26   1 H        0.925     0.044     2.397     2.421
    27   1 H        0.925     0.045     2.382     2.414
    28   1 H        0.924     0.047     2.354     2.400
    29   1 H        0.924     0.032     2.558     2.501
    30   1 H        0.926     0.050     2.320     2.382
    31   1 H        0.926     0.045     2.383     2.414
    32   1 H        0.926     0.046     2.365     2.405
    33   1 H        0.926     0.043     2.403     2.424
    34   1 H        0.926     0.044     2.391     2.418
    35   1 H        0.924     0.084     1.937     2.176
    36   1 H        0.924     0.086     1.914     2.163
    37   1 H        0.924     0.091     1.870     2.138
    38   1 H        0.924     0.101     1.779     2.086
    39   1 H        0.924     0.082     1.955     2.187
    40   1 H        0.924     0.118     1.627     1.994
    41   1 H        0.925     0.062     2.175     2.307
    42   1 H        0.925     0.088     1.899     2.155
    43   1 H        0.925     0.060     2.195     2.317
    44   1 H        0.924     0.086     1.921     2.167
    45   1 H        0.924     0.086     1.918     2.166
    46   1 H        0.925     0.069     2.098     2.265
    47   1 H        0.925     0.086     1.923     2.168
    48   1 H        0.925     0.064     2.157     2.297
    49   1 H        0.925     0.092     1.859     2.132
    50   1 H        0.925     0.107     1.725     2.054
    51   1 H        0.925     0.090     1.874     2.141
    52   1 H        0.925     0.061     2.192     2.316
    53   1 H        0.925     0.058     2.221     2.331
    54   1 H        0.924     0.025     2.654     2.548
    55   1 H        0.925     0.047     2.356     2.400
    56   1 H        0.925     0.037     2.483     2.464
    57   1 H        0.925     0.017     2.773     2.604
    58   1 H        0.925     0.041     2.436     2.441
    59   1 H        0.925     0.041     2.431     2.438
    60   1 H        0.925     0.044     2.397     2.421

Wiberg/Mayer (AO) data.
largest (>0.10) Wiberg bond orders for each atom

     #   Z sym  total        # sym  WBO       # sym  WBO       # sym  WBO
 ---------------------------------------------------------------------------
     1   6 C    3.993 --     2 C    1.018    26 H    0.985    27 H    0.983
                            25 H    0.983
     2   6 C    3.994 --     1 C    1.018     3 C    0.980    28 H    0.970
                            29 H    0.969
     3   6 C    3.979 --     2 C    0.980    21 C    0.966    10 C    0.964
                             4 C    0.921
     4   6 C    3.979 --     5 C    1.415     9 C    1.401     3 C    0.921
                             7 C    0.108
     5   6 C    3.990 --     6 C    1.436     4 C    1.415    30 H    0.962
                             8 C    0.109
     6   6 C    3.991 --     7 C    1.443     5 C    1.436    31 H    0.970
                             9 C    0.111
     7   6 C    3.990 --     6 C    1.443     8 C    1.433    32 H    0.970
                             4 C    0.108
     8   6 C    3.991 --     9 C    1.450     7 C    1.433    33 H    0.970
                             5 C    0.109
     9   6 C    3.991 --     8 C    1.450     4 C    1.401    34 H    0.963
                             6 C    0.111
    10   6 C    3.893 --    11 O    1.707    12 O    1.083     3 C    0.964
    11   8 O    2.027 --    10 C    1.707    12 O    0.149
    12   8 O    2.275 --    10 C    1.083    13 C    0.964    11 O    0.149
    13   6 C    3.937 --    14 C    1.000    12 O    0.964    36 H    0.958
                            35 H    0.955
    14   6 C    3.943 --    13 C    1.000    37 H    0.964    38 H    0.960
                            15 N    0.940
    15   7 N    3.805 --    20 C    0.958    14 C    0.940    18 C    0.927
                            16 C    0.920
    16   6 C    3.921 --    17 C    1.024    39 H    0.967    40 H    0.947
                            15 N    0.920
    17   6 C    3.984 --    16 C    1.024    41 H    0.981    43 H    0.981
                            42 H    0.972
    18   6 C    3.935 --    19 C    1.023    44 H    0.967    45 H    0.965
                            15 N    0.927
    19   6 C    3.982 --    18 C    1.023    46 H    0.981    48 H    0.981
                            47 H    0.973
    20   6 C    3.926 --    51 H    0.976    49 H    0.974    50 H    0.963
                            15 N    0.958
    21   6 C    3.986 --    22 C    0.995    52 H    0.968     3 C    0.966
                            53 H    0.966
    22   6 C    3.995 --    23 C    1.010    24 C    1.006    21 C    0.995
                            54 H    0.965
    23   6 C    3.996 --    22 C    1.010    56 H    0.985    55 H    0.984
                            57 H    0.979
    24   6 C    3.993 --    22 C    1.006    60 H    0.986    58 H    0.986
                            59 H    0.985
    25   1 H    0.998 --     1 C    0.983
    26   1 H    0.998 --     1 C    0.985
    27   1 H    0.998 --     1 C    0.983
    28   1 H    0.997 --     2 C    0.970
    29   1 H    0.999 --     2 C    0.969
    30   1 H    0.997 --     5 C    0.962
    31   1 H    0.997 --     6 C    0.970
    32   1 H    0.997 --     7 C    0.970
    33   1 H    0.998 --     8 C    0.970
    34   1 H    0.998 --     9 C    0.963
    35   1 H    0.993 --    13 C    0.955
    36   1 H    0.992 --    13 C    0.958
    37   1 H    0.991 --    14 C    0.964
    38   1 H    0.990 --    14 C    0.960
    39   1 H    0.993 --    16 C    0.967
    40   1 H    0.986 --    16 C    0.947
    41   1 H    0.996 --    17 C    0.981
    42   1 H    0.992 --    17 C    0.972
    43   1 H    0.996 --    17 C    0.981
    44   1 H    0.992 --    18 C    0.967
    45   1 H    0.993 --    18 C    0.965
    46   1 H    0.995 --    19 C    0.981
    47   1 H    0.992 --    19 C    0.973
    48   1 H    0.996 --    19 C    0.981
    49   1 H    0.991 --    20 C    0.974
    50   1 H    0.989 --    20 C    0.963
    51   1 H    0.992 --    20 C    0.976
    52   1 H    0.996 --    21 C    0.968
    53   1 H    0.997 --    21 C    0.966
    54   1 H    0.999 --    22 C    0.965
    55   1 H    0.998 --    23 C    0.984
    56   1 H    0.998 --    23 C    0.985
    57   1 H    1.000 --    23 C    0.979
    58   1 H    0.998 --    24 C    0.986
    59   1 H    0.998 --    24 C    0.985
    60   1 H    0.998 --    24 C    0.986
 ---------------------------------------------------------------------------

molecular dipole:
                 x           y           z       tot (Debye)
 q only:        0.318      -1.435     -10.550
   full:        0.207      -1.437     -10.596      27.184

           -------------------------------------------------
          | TOTAL ENERGY              -74.006717725048 Eh   |
          | GRADIENT NORM               0.000268359922 Eh/α |
          | HOMO-LUMO GAP               3.508222947073 eV   |
           -------------------------------------------------

 * finished run on 2024/12/20 at 02:02:49.889
