   * xtb version 6.7.1 (edcfbbe) compiled by 'conda@3ef47c1a292c' on 2024-11-25

   ID    Z sym.   atoms
    1    6 C      1, 4, 5, 7-11, 13-16, 18, 20
    2    8 O      2, 12, 17, 19
    3    7 N      3, 6
    4    1 H      21-39

          program call               : xtb C0009.xyz --opt --namespace C0009 --charge +1
          :  Hamiltonian                  GFN2-xTB          :
 * total energy  :   -61.3241034 Eh     change       -0.2305143E-09 Eh
 * total energy  :   -61.3315321 Eh     change       -0.7428742E-02 Eh
 * total energy  :   -61.3341177 Eh     change       -0.2585609E-02 Eh
 * total energy  :   -61.3350387 Eh     change       -0.9209471E-03 Eh
 * total energy  :   -61.3361444 Eh     change       -0.1105771E-02 Eh
 * total energy  :   -61.3368463 Eh     change       -0.7018827E-03 Eh
 * total energy  :   -61.3375596 Eh     change       -0.7132224E-03 Eh
 * total energy  :   -61.3380836 Eh     change       -0.5240333E-03 Eh
 * total energy  :   -61.3384452 Eh     change       -0.3616613E-03 Eh
 * total energy  :   -61.3386395 Eh     change       -0.1942280E-03 Eh
 * total energy  :   -61.3405454 Eh     change       -0.1371198E-04 Eh
 * total energy  :   -61.3405587 Eh     change       -0.1330395E-04 Eh
 * total energy  :   -61.3405708 Eh     change       -0.1204981E-04 Eh
 * total energy  :   -61.3405813 Eh     change       -0.1058021E-04 Eh
 * total energy  :   -61.3405922 Eh     change       -0.1082570E-04 Eh
 * total energy  :   -61.3406040 Eh     change       -0.1181008E-04 Eh
 * total energy  :   -61.3406150 Eh     change       -0.1101801E-04 Eh
 * total energy  :   -61.3406225 Eh     change       -0.7552845E-05 Eh
 * total energy  :   -61.3406269 Eh     change       -0.4326129E-05 Eh
   *** GEOMETRY OPTIMIZATION CONVERGED AFTER 56 ITERATIONS ***

 final structure:
================
39
 xtb: 6.7.1 (edcfbbe)
C            2.19410028448883        0.28337859531179       -0.24806510078885
O            0.99591059068715        0.76859807137279       -0.83109257925216
N            1.07931978190442        1.15519518718630       -2.13169253842413
C            2.13573175881637        1.10029249505516       -2.98258208248084
C            1.69631460074686        1.61061541000759       -4.17130558752303
N            0.39736581669677        1.96684998532376       -4.01803210643557
C            0.03328150251039        1.67846927749575       -2.77068501196843
C           -0.47025304834787        2.46089695400415       -5.07348850325224
C           -0.84216684178360        1.31664214366052       -5.98625649018521
C           -0.03655303008953        0.99990193486384       -7.05943306495061
C           -0.33295371833854       -0.07857811829374       -7.89541573265280
O            0.56738933434942       -0.24808595184582       -8.88755854226986
C            0.32403611708616       -1.09031942224812      -10.00001275924429
C           -1.46549849944631       -0.87099260125912       -7.63123830610369
C           -2.27784126356616       -0.54349388186717       -6.52231327060280
C           -1.96106599899976        0.54152849269529       -5.71456264346666
O           -3.34016706694694       -1.35796961011793       -6.28417757461629
C           -4.24782303057731       -1.03206766687912       -5.25800890391340
O           -1.68044272031081       -1.95195295471194       -8.43086906043172
C           -2.99776568973656       -2.37065752774195       -8.74491515469544
H            1.90974407084092        0.06077975044727        0.77825371973394
H            2.97898713712654        1.04330302714148       -0.25022476457453
H            2.53764175030916       -0.63191562891549       -0.73561403977353
H            3.10120070072216        0.72171458391524       -2.71877423027898
H            2.22304939176125        1.73003136061882       -5.09593417838391
H           -0.92896701326386        1.83752696661427       -2.32638299507872
H           -1.35530586837476        2.90044183205765       -4.61225308434788
H            0.06914060739369        3.22920998208344       -5.63036785184825
H            0.82838793858830        1.59060868990848       -7.31405418027439
H            0.28910317803110       -2.14106474146259       -9.71127248987423
H           -0.60080100229076       -0.81867725252634      -10.51198597855121
H            1.16916028936956       -0.91903806822848      -10.66582345315044
H           -2.58497201533086        0.78559616083354       -4.87061432575536
H           -3.77892001457514       -1.09397831524249       -4.27082163364887
H           -4.67996205498360       -0.03752041486558       -5.40212095902148
H           -5.03755125718458       -1.77836921599221       -5.32365868514209
H           -3.41886463664967       -2.99587173230274       -7.95677958956427
H           -3.65602982062274       -1.51927362251143       -8.92723703929460
H           -2.89848026000511       -2.95555417358610       -9.65917922791803

          :  Hamiltonian                  GFN2-xTB          :
         :: total energy             -61.340626867085 Eh    ::
         :: gradient norm              0.000309698641 Eh/a0 ::
         :: HOMO-LUMO gap              1.612413794140 eV    ::
         :: SCC energy               -62.096363831785 Eh    ::
         :: -> dispersion             -0.035486813384 Eh    ::
         :: repulsion energy           0.755736964700 Eh    ::

    * Orbital Energies and Occupations

         #    Occupation            Energy/Eh            Energy/eV
      -------------------------------------------------------------
         1        2.0000           -0.9170026             -24.9529
       ...           ...                  ...                  ...
        42        2.0000           -0.5816137             -15.8265
        43        2.0000           -0.5785352             -15.7427
        44        2.0000           -0.5715621             -15.5530
        45        2.0000           -0.5663602             -15.4114
        46        2.0000           -0.5567588             -15.1502
        47        2.0000           -0.5549701             -15.1015
        48        2.0000           -0.5543029             -15.0834
        49        2.0000           -0.5408969             -14.7186
        50        2.0000           -0.5353203             -14.5668
        51        2.0000           -0.5321013             -14.4792
        52        2.0000           -0.5052305             -13.7480
        53        2.0000           -0.4762085             -12.9583
        54        2.0000           -0.4596553             -12.5079 (HOMO)
        55                         -0.4004002             -10.8954 (LUMO)
        56                         -0.3687236             -10.0335
        57                         -0.3276690              -8.9163
        58                         -0.3149258              -8.5696
        59                         -0.2516537              -6.8478
        60                         -0.2008175              -5.4645
        61                         -0.1302968              -3.5456
        62                         -0.1107262              -3.0130
        63                         -0.0890275              -2.4226
        64                         -0.0658686              -1.7924
        65                         -0.0568316              -1.5465
       ...                                ...                  ...
        99                          0.5512050              14.9991
      -------------------------------------------------------------
                  HL-Gap            0.0592551 Eh            1.6124 eV

     #   Z          covCN         q      C6AA      α(0)
     1   6 C        3.634     0.006    20.871     6.575
     2   8 O        1.769    -0.192    17.201     5.600
     3   7 N        2.907     0.206    17.839     6.273
     4   6 C        3.045    -0.030    28.704     8.787
     5   6 C        3.087    -0.007    28.097     8.689
     6   7 N        2.871     0.076    19.918     6.628
     7   6 C        3.079     0.026    27.330     8.571
     8   6 C        3.748    -0.031    21.184     6.565
     9   6 C        2.969    -0.015    28.391     8.740
    10   6 C        2.925    -0.084    30.091     8.996
    11   6 C        2.851     0.129    25.164     8.222
    12   8 O        1.707    -0.246    18.069     5.739
    13   6 C        3.635     0.025    20.535     6.521
    14   6 C        2.851     0.097    25.834     8.330
    15   6 C        2.859     0.120    25.360     8.254
    16   6 C        2.919    -0.096    30.411     9.043
    17   8 O        1.705    -0.253    18.192     5.759
    18   6 C        3.641     0.030    20.412     6.496
    19   8 O        1.704    -0.260    18.311     5.777
    20   6 C        3.636     0.029    20.455     6.507
    21   1 H        0.925     0.121     1.609     1.984
    22   1 H        0.924     0.077     2.005     2.215
    23   1 H        0.924     0.078     2.003     2.213
    24   1 H        0.927     0.115     1.653     2.011
    25   1 H        0.926     0.120     1.611     1.985
    26   1 H        0.926     0.128     1.553     1.949
    27   1 H        0.924     0.088     1.895     2.153
    28   1 H        0.924     0.097     1.809     2.103
    29   1 H        0.926     0.061     2.193     2.316
    30   1 H        0.924     0.067     2.122     2.278
    31   1 H        0.924     0.054     2.267     2.355
    32   1 H        0.925     0.072     2.062     2.246
    33   1 H        0.926     0.044     2.399     2.422
    34   1 H        0.924     0.042     2.425     2.435
    35   1 H        0.924     0.048     2.347     2.396
    36   1 H        0.925     0.077     2.011     2.218
    37   1 H        0.924     0.064     2.155     2.296
    38   1 H        0.924     0.047     2.359     2.402
    39   1 H        0.925     0.068     2.102     2.267

Wiberg/Mayer (AO) data.
largest (>0.10) Wiberg bond orders for each atom

     #   Z sym  total        # sym  WBO       # sym  WBO       # sym  WBO
 ---------------------------------------------------------------------------
     1   6 C    3.894 --    22 H    0.975    23 H    0.975    21 H    0.960
                             2 O    0.956
     2   8 O    2.152 --     3 N    1.010     1 C    0.956
     3   7 N    3.728 --     7 C    1.327     4 C    1.218     2 O    1.010
     4   6 C    3.936 --     5 C    1.557     3 N    1.218    24 H    0.958
     5   6 C    3.947 --     4 C    1.557     6 N    1.250    25 H    0.957
     6   7 N    3.718 --     7 C    1.349     5 C    1.250     8 C    0.950
     7   6 C    3.929 --     6 N    1.349     3 N    1.327    26 H    0.952
     8   6 C    3.928 --     9 C    0.979    27 H    0.965    28 H    0.957
                             6 N    0.950
     9   6 C    3.970 --    10 C    1.430    16 C    1.382     8 C    0.979
    10   6 C    3.980 --     9 C    1.430    11 C    1.339    29 H    0.964
    11   6 C    3.946 --    10 C    1.339    14 C    1.310    12 O    1.101
    12   8 O    2.265 --    11 C    1.101    13 C    0.965
    13   6 C    3.928 --    31 H    0.979    32 H    0.978    30 H    0.975
                            12 O    0.965
    14   6 C    3.940 --    11 C    1.310    15 C    1.289    19 O    1.071
    15   6 C    3.941 --    16 C    1.377    14 C    1.289    17 O    1.074
    16   6 C    3.977 --     9 C    1.382    15 C    1.377    33 H    0.963
    17   8 O    2.249 --    15 C    1.074    18 C    0.979
    18   6 C    3.939 --    17 O    0.979    36 H    0.977    35 H    0.976
                            34 H    0.976
    19   8 O    2.221 --    14 C    1.071    20 C    0.963
    20   6 C    3.932 --    38 H    0.981    39 H    0.977    37 H    0.975
                            19 O    0.963
    21   1 H    0.985 --     1 C    0.960
    22   1 H    0.994 --     1 C    0.975
    23   1 H    0.994 --     1 C    0.975
    24   1 H    0.986 --     4 C    0.958
    25   1 H    0.985 --     5 C    0.957
    26   1 H    0.984 --     7 C    0.952
    27   1 H    0.991 --     8 C    0.965
    28   1 H    0.989 --     8 C    0.957
    29   1 H    0.996 --    10 C    0.964
    30   1 H    0.994 --    13 C    0.975
    31   1 H    0.997 --    13 C    0.979
    32   1 H    0.994 --    13 C    0.978
    33   1 H    0.998 --    16 C    0.963
    34   1 H    0.998 --    18 C    0.976
    35   1 H    0.998 --    18 C    0.976
    36   1 H    0.994 --    18 C    0.977
    37   1 H    0.994 --    20 C    0.975
    38   1 H    0.998 --    20 C    0.981
    39   1 H    0.994 --    20 C    0.977
 ---------------------------------------------------------------------------

molecular dipole:
                 x           y           z       tot (Debye)
 q only:        0.744       1.885      -6.884
   full:        0.535       1.957      -6.709      17.816

           -------------------------------------------------
          | TOTAL ENERGY              -61.340626867085 Eh   |
          | GRADIENT NORM               0.000309698641 Eh/α |
          | HOMO-LUMO GAP               1.612413794140 eV   |
           -------------------------------------------------

 * finished run on 2024/12/20 at 02:03:01.137
