   * xtb version 6.7.1 (edcfbbe) compiled by 'conda@3ef47c1a292c' on 2024-11-25

   ID    Z sym.   atoms
    1    6 C      1-4, 6, 8, 10, 11, 13, 14
    2    7 N      5, 9, 12
    3    8 O      7
    4    1 H      15-32

          program call               : xtb C0001.xyz --opt --namespace C0001 --charge +1
          :  Hamiltonian                  GFN2-xTB          :
 * total energy  :   -43.0586837 Eh     change       -0.1490221E-09 Eh
 * total energy  :   -43.0636643 Eh     change       -0.4980616E-02 Eh
 * total energy  :   -43.0649376 Eh     change       -0.1273259E-02 Eh
 * total energy  :   -43.0651821 Eh     change       -0.2445234E-03 Eh
 * total energy  :   -43.0653023 Eh     change       -0.1201813E-03 Eh
 * total energy  :   -43.0653410 Eh     change       -0.3872789E-04 Eh
 * total energy  :   -43.0654023 Eh     change       -0.6122985E-04 Eh
 * total energy  :   -43.0654718 Eh     change       -0.6949552E-04 Eh
 * total energy  :   -43.0655626 Eh     change       -0.9085473E-04 Eh
 * total energy  :   -43.0657107 Eh     change       -0.1480771E-03 Eh
 * total energy  :   -43.0796608 Eh     change       -0.3174039E-04 Eh
 * total energy  :   -43.0796885 Eh     change       -0.2774153E-04 Eh
 * total energy  :   -43.0797057 Eh     change       -0.1714835E-04 Eh
 * total energy  :   -43.0797100 Eh     change       -0.4318032E-05 Eh
 * total energy  :   -43.0797207 Eh     change       -0.1072750E-04 Eh
 * total energy  :   -43.0797077 Eh     change        0.1301006E-04 Eh
 * total energy  :   -43.0797237 Eh     change       -0.1592785E-04 Eh
 * total energy  :   -43.0797295 Eh     change       -0.5798663E-05 Eh
 * total energy  :   -43.0797331 Eh     change       -0.3661194E-05 Eh
   *** GEOMETRY OPTIMIZATION CONVERGED AFTER 113 ITERATIONS ***

 final structure:
================
32
 xtb: 6.7.1 (edcfbbe)
C            0.70164291349658       -0.73775546511083       -0.53384670109691
C            1.62969416218073        0.43950081562136       -0.25958690231297
C            1.18306797945385        1.73545680337696       -0.93972966389074
C           -0.19753533823550        2.22661961121494       -0.48750732997216
N           -0.26082916777999        2.44955657124336        0.94201156616782
C            0.00082718478574        3.54775651529145        1.64203772621656
O            0.05698736540510        3.58813397176561        2.85429652421935
C            0.22455153161261        4.86353785472016        0.83347214794122
N            0.17968428547521        5.94884947593908        1.76782679089249
C           -0.76294081160892        6.93144117711478        1.83715571733234
C           -0.54944527835426        7.61414111522826        2.99373081328395
N            0.51039578443978        7.02958485275775        3.62100809462302
C            0.93041417469581        6.01941782460803        2.86760813762333
C            1.05357284157008        7.43675345073495        4.88812329231651
H           -0.26920242987218       -0.60727731626527       -0.06215849693533
H            1.13903140391298       -1.65218996679224       -0.14306422257958
H            0.55261261878857       -0.86446198276312       -1.60293855009923
H            1.71987718026880        0.59728383525562        0.81728338893717
H            2.62518286449587        0.19470679859954       -0.63291403646390
H            1.92614571588747        2.51157179134001       -0.74335682874297
H            1.14198692308348        1.57917668743059       -2.01819004270156
H           -0.45063956816447        3.14485875873745       -1.01866760938167
H           -0.95060093751902        1.47753837030629       -0.73653419897816
H           -0.36752004921958        1.61480513463600        1.50571596574571
H            1.20100857976685        4.81165441276379        0.34469300288121
H           -0.55361094241979        5.00355031192279        0.08353162797492
H           -1.50137747817845        7.07958922188804        1.07607868759809
H           -1.07023805777443        8.45475113405592        3.40458769624282
H            1.75016381652382        5.37002273266412        3.10242498847551
H            1.91082363492154        6.81648661465634        5.13834440788043
H            1.36414295183109        8.48117142886216        4.84564237228768
H            0.29985614653096        7.32951745822949        5.66910163451255

          :  Hamiltonian                  GFN2-xTB          :
         :: total energy             -43.079733117489 Eh    ::
         :: gradient norm              0.000565900715 Eh/a0 ::
         :: HOMO-LUMO gap              3.464218285728 eV    ::
         :: SCC energy               -43.682146607877 Eh    ::
         :: -> dispersion             -0.024451844643 Eh    ::
         :: repulsion energy           0.602413490388 Eh    ::

    * Orbital Energies and Occupations

         #    Occupation            Energy/Eh            Energy/eV
      -------------------------------------------------------------
         1        2.0000           -0.8844258             -24.0665
       ...           ...                  ...                  ...
        27        2.0000           -0.6281981             -17.0941
        28        2.0000           -0.6210483             -16.8996
        29        2.0000           -0.6151165             -16.7382
        30        2.0000           -0.5974888             -16.2585
        31        2.0000           -0.5913791             -16.0922
        32        2.0000           -0.5776915             -15.7198
        33        2.0000           -0.5746063             -15.6358
        34        2.0000           -0.5678282             -15.4514
        35        2.0000           -0.5439781             -14.8024
        36        2.0000           -0.5411353             -14.7250
        37        2.0000           -0.5352567             -14.5651
        38        2.0000           -0.5288331             -14.3903
        39        2.0000           -0.5209657             -14.1762 (HOMO)
        40                         -0.3936580             -10.7120 (LUMO)
        41                         -0.3616487              -9.8410
        42                         -0.3440664              -9.3625
        43                         -0.1731714              -4.7122
        44                         -0.1296979              -3.5293
        45                         -0.1107795              -3.0145
        46                         -0.0846314              -2.3029
        47                         -0.0506417              -1.3780
        48                         -0.0391093              -1.0642
        49                         -0.0246532              -0.6708
        50                         -0.0128378              -0.3493
       ...                                ...                  ...
        74                          0.4932552              13.4222
      -------------------------------------------------------------
                  HL-Gap            0.1273077 Eh            3.4642 eV

     #   Z          covCN         q      C6AA      α(0)
     1   6 C        3.752    -0.112    22.698     6.794
     2   6 C        3.800    -0.060    21.650     6.625
     3   6 C        3.801    -0.070    21.847     6.655
     4   6 C        3.735    -0.012    20.885     6.522
     5   7 N        2.684    -0.149    24.231     7.311
     6   6 C        2.745     0.270    22.442     7.757
     7   8 O        0.859    -0.432    22.328     6.335
     8   6 C        3.744    -0.051    21.566     6.625
     9   7 N        2.874     0.073    19.963     6.636
    10   6 C        3.066    -0.008    28.143     8.699
    11   6 C        3.071    -0.009    28.166     8.702
    12   7 N        2.868     0.080    19.848     6.617
    13   6 C        3.094     0.060    26.557     8.446
    14   6 C        3.693    -0.086    22.339     6.763
    15   1 H        0.925     0.033     2.544     2.494
    16   1 H        0.925     0.051     2.307     2.375
    17   1 H        0.925     0.046     2.364     2.405
    18   1 H        0.924     0.034     2.531     2.488
    19   1 H        0.924     0.050     2.316     2.380
    20   1 H        0.924     0.035     2.520     2.482
    21   1 H        0.924     0.062     2.179     2.308
    22   1 H        0.924     0.053     2.281     2.362
    23   1 H        0.924     0.080     1.982     2.202
    24   1 H        0.860     0.216     1.026     1.587
    25   1 H        0.924     0.098     1.808     2.103
    26   1 H        0.925     0.096     1.818     2.108
    27   1 H        0.926     0.104     1.752     2.070
    28   1 H        0.926     0.109     1.706     2.042
    29   1 H        0.926     0.126     1.564     1.955
    30   1 H        0.925     0.101     1.778     2.085
    31   1 H        0.924     0.104     1.748     2.067
    32   1 H        0.924     0.109     1.709     2.044

Wiberg/Mayer (AO) data.
largest (>0.10) Wiberg bond orders for each atom

     #   Z sym  total        # sym  WBO       # sym  WBO       # sym  WBO
 ---------------------------------------------------------------------------
     1   6 C    3.994 --     2 C    1.021    17 H    0.986    15 H    0.986
                            16 H    0.985
     2   6 C    3.995 --     1 C    1.021     3 C    1.007    18 H    0.977
                            19 H    0.976
     3   6 C    3.991 --     2 C    1.007     4 C    0.990    20 H    0.977
                            21 H    0.971
     4   6 C    3.955 --     3 C    0.990     5 N    0.985    22 H    0.967
                            23 H    0.965
     5   7 N    3.495 --     6 C    1.329     4 C    0.985    24 H    0.918
                             7 O    0.208
     6   6 C    3.963 --     7 O    1.660     5 N    1.329     8 C    0.905
     7   8 O    2.032 --     6 C    1.660     5 N    0.208
     8   6 C    3.948 --     9 N    0.997    26 H    0.958    25 H    0.948
                             6 C    0.905
     9   7 N    3.708 --    13 C    1.342    10 C    1.214     8 C    0.997
    10   6 C    3.947 --    11 C    1.602     9 N    1.214    27 H    0.962
    11   6 C    3.948 --    10 C    1.602    12 N    1.219    28 H    0.961
    12   7 N    3.719 --    13 C    1.366    11 C    1.219    14 C    0.991
    13   6 C    3.945 --    12 N    1.366     9 N    1.342    29 H    0.951
    14   6 C    3.934 --    12 N    0.991    30 H    0.975    31 H    0.964
                            32 H    0.961
    15   1 H    0.999 --     1 C    0.986
    16   1 H    0.997 --     1 C    0.985
    17   1 H    0.998 --     1 C    0.986
    18   1 H    0.999 --     2 C    0.977
    19   1 H    0.997 --     2 C    0.976
    20   1 H    0.999 --     3 C    0.977
    21   1 H    0.995 --     3 C    0.971
    22   1 H    0.997 --     4 C    0.967
    23   1 H    0.993 --     4 C    0.965
    24   1 H    0.952 --     5 N    0.918
    25   1 H    0.990 --     8 C    0.948
    26   1 H    0.990 --     8 C    0.958
    27   1 H    0.989 --    10 C    0.962
    28   1 H    0.988 --    11 C    0.961
    29   1 H    0.984 --    13 C    0.951
    30   1 H    0.989 --    14 C    0.975
    31   1 H    0.988 --    14 C    0.964
    32   1 H    0.988 --    14 C    0.961
 ---------------------------------------------------------------------------

molecular dipole:
                 x           y           z       tot (Debye)
 q only:        0.717      10.674       3.459
   full:        0.731      10.652       3.311      28.413

           -------------------------------------------------
          | TOTAL ENERGY              -43.079733117489 Eh   |
          | GRADIENT NORM               0.000565900715 Eh/α |
          | HOMO-LUMO GAP               3.464218285728 eV   |
           -------------------------------------------------

 * finished run on 2024/12/20 at 02:02:42.300
