   * xtb version 6.7.1 (edcfbbe) compiled by 'conda@3ef47c1a292c' on 2024-11-25

   ID    Z sym.   atoms
    1    6 C      1-10, 12-19, 21, 22
    2    7 N      11, 20
    3    1 H      23-51

          program call               : xtb C0003.xyz --opt --namespace C0003 --charge +1
          :  Hamiltonian                  GFN2-xTB          :
 * total energy  :   -63.0645361 Eh     change       -0.1474731E-08 Eh
 * total energy  :   -63.0688322 Eh     change       -0.4296151E-02 Eh
 * total energy  :   -63.0696380 Eh     change       -0.8057662E-03 Eh
 * total energy  :   -63.0698053 Eh     change       -0.1673048E-03 Eh
 * total energy  :   -63.0699767 Eh     change       -0.1713884E-03 Eh
 * total energy  :   -63.0700899 Eh     change       -0.1131945E-03 Eh
 * total energy  :   -63.0702364 Eh     change       -0.1465262E-03 Eh
 * total energy  :   -63.0703372 Eh     change       -0.1007629E-03 Eh
 * total energy  :   -63.0703831 Eh     change       -0.4591399E-04 Eh
 * total energy  :   -63.0704242 Eh     change       -0.4115889E-04 Eh
 * total energy  :   -63.0711628 Eh     change       -0.1301618E-04 Eh
 * total energy  :   -63.0711738 Eh     change       -0.1104788E-04 Eh
 * total energy  :   -63.0711843 Eh     change       -0.1054223E-04 Eh
 * total energy  :   -63.0711940 Eh     change       -0.9668698E-05 Eh
 * total energy  :   -63.0712035 Eh     change       -0.9447083E-05 Eh
 * total energy  :   -63.0712130 Eh     change       -0.9545008E-05 Eh
 * total energy  :   -63.0712221 Eh     change       -0.9092414E-05 Eh
 * total energy  :   -63.0712276 Eh     change       -0.5531340E-05 Eh
 * total energy  :   -63.0712304 Eh     change       -0.2819205E-05 Eh
   *** GEOMETRY OPTIMIZATION CONVERGED AFTER 39 ITERATIONS ***

 final structure:
================
51
 xtb: 6.7.1 (edcfbbe)
C            0.97271192626911       -0.10505838953606       -0.58906762227260
C            0.51766055958785       -1.42314388211992        0.02552316092062
C            0.98402209542775       -1.60681674443554        1.47047161946558
C            0.44773998017361       -0.56789364186744        2.45768363574139
C           -1.07687081764851       -0.51600522460627        2.57740868109333
C           -1.73695155485094       -1.83211189570377        2.99385461461007
C           -1.22831767347493       -2.42135359967312        4.31197891663434
C           -1.36457162683121       -1.49667751034209        5.52436188491547
C           -2.79966235961673       -1.10859842816673        5.87801583217570
C           -3.65652986906346       -2.28005780885707        6.38145978384179
N           -3.14947119685814       -2.77310203228545        7.64746786016627
C           -3.49585381898946       -2.15705842098764        8.78674808401579
C           -2.97096835115456       -2.53560036719386        9.99713935550504
C           -2.03603883160334       -3.57894320411180       10.06397183529725
C           -1.69474725756050       -4.19950933587830        8.85535236322643
C           -2.26495875494456       -3.77884493890831        7.67769460878131
C           -1.44709290422530       -3.99593140268973       11.33319376816270
C           -0.11591539331082       -4.41441123914159       11.40576271317534
C            0.39300019447292       -4.78595509205404       12.64141119876632
N           -0.32140783669402       -4.77693571130667       13.75058508229873
C           -1.58157844914219       -4.39137597241133       13.68861214160667
C           -2.19530814510702       -3.98438524229758       12.51325891216199
H            0.49590409566364        0.74293310201015       -0.10388566939694
H            0.71646883434808       -0.07554960488801       -1.64520337844213
H            2.05086288477739        0.00542923051478       -0.49636209679612
H           -0.57022233665181       -1.49492440614357       -0.02923656206651
H            0.92590253917747       -2.24586058262546       -0.56600831309372
H            0.70340461305307       -2.60843190904692        1.80447197797703
H            2.07529820922529       -1.55525644976167        1.49050915126821
H            0.88552842233490       -0.76893179199872        3.43868892590697
H            0.79528393642128        0.42066872908995        2.15453811792000
H           -1.34029592018189        0.26930302654919        3.29035936709419
H           -1.49902644846516       -0.22116542865297        1.61594845478880
H           -2.81703644318230       -1.67484945776711        3.05131987028442
H           -1.56921099019204       -2.57438771673817        2.21247863987779
H           -1.75710009942820       -3.36251232890533        4.48839039220552
H           -0.17246035677641       -2.67003846338502        4.20124045319310
H           -0.88398887202055       -1.96681495119685        6.38883125011473
H           -0.81315740603153       -0.57874682328586        5.32256698301574
H           -2.78302420356243       -0.32875834028292        6.64277166629768
H           -3.29088043360713       -0.69654168425280        4.99774945695401
H           -4.68651864223572       -1.94634938103645        6.52051456512014
H           -3.64668435224907       -3.08988343938430        5.65158475343417
H           -4.20762391140066       -1.34833825709629        8.71062351982160
H           -3.26763554836810       -2.00996550936599       10.89051663314413
H           -0.99850022582440       -5.02266564393420        8.84052921885099
H           -2.02596427449738       -4.25501817080509        6.73860984436023
H            0.51776387848161       -4.41294282211095       10.53292957449381
H            1.41991349816397       -5.10697734791136       12.74569000379105
H           -2.12446228353012       -4.40522990992350       14.62321865038795
H           -3.23677807832199       -3.70452358305774       12.51037611920992

          :  Hamiltonian                  GFN2-xTB          :
         :: total energy             -63.071230446599 Eh    ::
         :: gradient norm              0.000288647159 Eh/a0 ::
         :: HOMO-LUMO gap              0.732395381492 eV    ::
         :: SCC energy               -64.101054315518 Eh    ::
         :: -> dispersion             -0.046628676214 Eh    ::
         :: repulsion energy           1.029823868919 Eh    ::

    * Orbital Energies and Occupations

         #    Occupation            Energy/Eh            Energy/eV
      -------------------------------------------------------------
         1        2.0000           -0.8691347             -23.6504
       ...           ...                  ...                  ...
        47        2.0000           -0.5536324             -15.0651
        48        2.0000           -0.5517571             -15.0141
        49        2.0000           -0.5417592             -14.7420
        50        2.0000           -0.5377040             -14.6317
        51        2.0000           -0.5351236             -14.5615
        52        2.0000           -0.5280273             -14.3684
        53        2.0000           -0.5159802             -14.0405
        54        2.0000           -0.5098160             -13.8728
        55        2.0000           -0.5058883             -13.7659
        56        2.0000           -0.4888149             -13.3013
        57        2.0000           -0.4849811             -13.1970
        58        2.0000           -0.4814743             -13.1016
        59        2.0000           -0.4786768             -13.0255 (HOMO)
        60        0.0000           -0.4517618             -12.2931 (LUMO)
        61                         -0.4170904             -11.3496
        62                         -0.3679310             -10.0119
        63                         -0.3565440              -9.7021
        64                         -0.2928874              -7.9699
        65                         -0.2246219              -6.1123
        66                         -0.1601495              -4.3579
        67                         -0.0791538              -2.1539
        68                         -0.0598975              -1.6299
        69                         -0.0458201              -1.2468
        70                         -0.0348743              -0.9490
       ...                                ...                  ...
       117                          0.5095185              13.8647
      -------------------------------------------------------------
                  HL-Gap            0.0269150 Eh            0.7324 eV

     #   Z          covCN         q      C6AA      α(0)
     1   6 C        3.751    -0.104    22.545     6.771
     2   6 C        3.799    -0.053    21.532     6.607
     3   6 C        3.801    -0.058    21.624     6.621
     4   6 C        3.800    -0.059    21.637     6.623
     5   6 C        3.800    -0.060    21.661     6.627
     6   6 C        3.800    -0.061    21.678     6.629
     7   6 C        3.800    -0.061    21.670     6.628
     8   6 C        3.800    -0.065    21.745     6.639
     9   6 C        3.801    -0.068    21.809     6.649
    10   6 C        3.758    -0.033    21.212     6.566
    11   7 N        2.750     0.099    19.534     6.564
    12   6 C        2.890     0.030    27.336     8.572
    13   6 C        2.920    -0.023    28.586     8.768
    14   6 C        2.980     0.056    26.747     8.483
    15   6 C        2.920    -0.024    28.608     8.771
    16   6 C        2.889     0.031    27.295     8.566
    17   6 C        2.984     0.023    27.493     8.601
    18   6 C        2.917    -0.035    28.865     8.810
    19   6 C        2.909     0.067    26.507     8.442
    20   7 N        1.837    -0.175    25.597     7.498
    21   6 C        2.909     0.067    26.504     8.442
    22   6 C        2.917    -0.035    28.863     8.810
    23   1 H        0.925     0.034     2.530     2.488
    24   1 H        0.925     0.037     2.491     2.468
    25   1 H        0.925     0.037     2.491     2.468
    26   1 H        0.924     0.030     2.593     2.518
    27   1 H        0.924     0.032     2.564     2.504
    28   1 H        0.924     0.025     2.662     2.552
    29   1 H        0.924     0.034     2.532     2.489
    30   1 H        0.924     0.023     2.687     2.564
    31   1 H        0.924     0.040     2.444     2.445
    32   1 H        0.924     0.025     2.665     2.553
    33   1 H        0.924     0.044     2.399     2.422
    34   1 H        0.924     0.025     2.657     2.549
    35   1 H        0.924     0.046     2.365     2.405
    36   1 H        0.924     0.017     2.784     2.609
    37   1 H        0.924     0.050     2.323     2.384
    38   1 H        0.924     0.020     2.729     2.584
    39   1 H        0.925     0.066     2.134     2.284
    40   1 H        0.924     0.049     2.333     2.388
    41   1 H        0.925     0.082     1.954     2.186
    42   1 H        0.924     0.085     1.932     2.173
    43   1 H        0.924     0.092     1.855     2.130
    44   1 H        0.926     0.102     1.771     2.081
    45   1 H        0.926     0.098     1.808     2.102
    46   1 H        0.926     0.097     1.811     2.104
    47   1 H        0.926     0.105     1.739     2.062
    48   1 H        0.926     0.052     2.293     2.368
    49   1 H        0.926     0.072     2.058     2.243
    50   1 H        0.926     0.073     2.057     2.243
    51   1 H        0.926     0.053     2.286     2.365

Wiberg/Mayer (AO) data.
largest (>0.10) Wiberg bond orders for each atom

     #   Z sym  total        # sym  WBO       # sym  WBO       # sym  WBO
 ---------------------------------------------------------------------------
     1   6 C    3.997 --     2 C    1.020    25 H    0.987    24 H    0.987
                            23 H    0.986
     2   6 C    3.998 --     1 C    1.020     3 C    1.008    27 H    0.978
                            26 H    0.976
     3   6 C    3.997 --     2 C    1.008     4 C    1.008    29 H    0.977
                            28 H    0.976
     4   6 C    3.997 --     5 C    1.008     3 C    1.008    30 H    0.975
                            31 H    0.974
     5   6 C    3.996 --     4 C    1.008     6 C    1.007    32 H    0.975
                            33 H    0.973
     6   6 C    3.995 --     5 C    1.007     7 C    1.007    34 H    0.975
                            35 H    0.973
     7   6 C    3.995 --     8 C    1.007     6 C    1.007    37 H    0.973
                            36 H    0.973
     8   6 C    3.992 --     9 C    1.010     7 C    1.007    38 H    0.972
                            39 H    0.966
     9   6 C    3.979 --     8 C    1.010    40 H    0.974    10 C    0.973
                            41 H    0.961
    10   6 C    3.934 --     9 C    0.973    11 N    0.966    42 H    0.963
                            43 H    0.960
    11   7 N    3.748 --    16 C    1.307    12 C    1.304    10 C    0.966
    12   6 C    3.958 --    13 C    1.500    11 N    1.304    44 H    0.955
    13   6 C    3.983 --    12 C    1.500    14 C    1.343    45 H    0.958
    14   6 C    3.972 --    15 C    1.352    13 C    1.343    17 C    1.079
    15   6 C    3.984 --    16 C    1.488    14 C    1.352    46 H    0.958
    16   6 C    3.956 --    15 C    1.488    11 N    1.307    47 H    0.952
    17   6 C    3.987 --    22 C    1.372    18 C    1.372    14 C    1.079
    18   6 C    3.987 --    19 C    1.428    17 C    1.372    48 H    0.966
                            21 C    0.114
    19   6 C    3.975 --    20 N    1.442    18 C    1.428    49 H    0.959
                            22 C    0.115
    20   7 N    3.069 --    21 C    1.442    19 C    1.442
    21   6 C    3.975 --    20 N    1.442    22 C    1.428    50 H    0.959
                            18 C    0.114
    22   6 C    3.987 --    21 C    1.428    17 C    1.372    51 H    0.966
                            19 C    0.115
    23   1 H    0.999 --     1 C    0.986
    24   1 H    0.999 --     1 C    0.987
    25   1 H    0.999 --     1 C    0.987
    26   1 H    0.999 --     2 C    0.976
    27   1 H    0.999 --     2 C    0.978
    28   1 H    0.999 --     3 C    0.976
    29   1 H    0.999 --     3 C    0.977
    30   1 H    0.999 --     4 C    0.975
    31   1 H    0.998 --     4 C    0.974
    32   1 H    0.999 --     5 C    0.975
    33   1 H    0.998 --     5 C    0.973
    34   1 H    0.999 --     6 C    0.975
    35   1 H    0.998 --     6 C    0.973
    36   1 H    1.000 --     7 C    0.973
    37   1 H    0.998 --     7 C    0.973
    38   1 H    1.000 --     8 C    0.972
    39   1 H    0.995 --     8 C    0.966
    40   1 H    0.998 --     9 C    0.974
    41   1 H    0.991 --     9 C    0.961
    42   1 H    0.992 --    10 C    0.963
    43   1 H    0.991 --    10 C    0.960
    44   1 H    0.989 --    12 C    0.955
    45   1 H    0.990 --    13 C    0.958
    46   1 H    0.990 --    15 C    0.958
    47   1 H    0.988 --    16 C    0.952
    48   1 H    0.997 --    18 C    0.966
    49   1 H    0.994 --    19 C    0.959
    50   1 H    0.994 --    21 C    0.959
    51   1 H    0.997 --    22 C    0.966
 ---------------------------------------------------------------------------

molecular dipole:
                 x           y           z       tot (Debye)
 q only:       -4.733      -5.420      15.461
   full:       -5.007      -5.323      15.118      42.680

           -------------------------------------------------
          | TOTAL ENERGY              -63.071230446599 Eh   |
          | GRADIENT NORM               0.000288647159 Eh/α |
          | HOMO-LUMO GAP               0.732395381492 eV   |
           -------------------------------------------------

 * finished run on 2024/12/20 at 02:02:47.407
