   * xtb version 6.7.1 (edcfbbe) compiled by 'conda@3ef47c1a292c' on 2024-11-25

   ID    Z sym.   atoms
    1    6 C      1-7, 9, 11-18
    2    8 O      8
    3    7 N      10
    4    1 H      19-52

          program call               : xtb C0005.xyz --opt --namespace C0005 --charge +1
          :  Hamiltonian                  GFN2-xTB          :
 * total energy  :   -57.1256978 Eh     change       -0.8884200E-08 Eh
 * total energy  :   -57.3399439 Eh     change       -0.2142462E+00 Eh
 * total energy  :   -57.5139323 Eh     change       -0.1739884E+00 Eh
 * total energy  :   -57.6209131 Eh     change       -0.1069808E+00 Eh
 * total energy  :   -57.7199206 Eh     change       -0.9900743E-01 Eh
 * total energy  :   -57.8029518 Eh     change       -0.8303124E-01 Eh
 * total energy  :   -57.8657657 Eh     change       -0.6281387E-01 Eh
 * total energy  :   -57.9098733 Eh     change       -0.4410758E-01 Eh
 * total energy  :   -57.9437711 Eh     change       -0.3389787E-01 Eh
 * total energy  :   -57.9705358 Eh     change       -0.2676466E-01 Eh
 * total energy  :   -58.1432182 Eh     change       -0.5175899E-04 Eh
 * total energy  :   -58.1432791 Eh     change       -0.6091256E-04 Eh
 * total energy  :   -58.1433020 Eh     change       -0.2289926E-04 Eh
 * total energy  :   -58.1433455 Eh     change       -0.4354030E-04 Eh
 * total energy  :   -58.1433694 Eh     change       -0.2393423E-04 Eh
 * total energy  :   -58.1433944 Eh     change       -0.2498585E-04 Eh
 * total energy  :   -58.1434053 Eh     change       -0.1086848E-04 Eh
 * total energy  :   -58.1434115 Eh     change       -0.6172842E-05 Eh
 * total energy  :   -58.1434161 Eh     change       -0.4607728E-05 Eh
   *** GEOMETRY OPTIMIZATION CONVERGED AFTER 58 ITERATIONS ***

 final structure:
================
52
 xtb: 6.7.1 (edcfbbe)
C            1.95498453794174        0.09910672257408        1.98117259261796
C            1.60237160778704       -0.40159732730654        0.56926799886400
C            1.21787784998584        0.75548652507105       -0.29468239815486
C           -0.20570567910216        1.20773811842445       -0.26534690926687
C           -1.32936891695534        0.16191650561252       -0.17720997198661
C           -0.94680595953707       -1.11729798393920        0.60190317712133
C            0.54764257926376       -1.51020732280097        0.56836617983058
O           -1.53701195763954       -1.18957105945466        1.89735236020882
C           -1.53918215534088       -0.13826180888353        2.81266937966994
N           -0.45243093130629       -0.21456708703523        3.77506391157474
C            2.15317565229389        0.38380677239791       -2.56775642026228
C            1.95482137217894        1.72968722177918       -3.19969421766620
C            3.56960389173969        0.02882625521165       -2.23420690953169
C           -0.47517215994980        0.90430021423313        4.69714802931733
C           -0.41993471350326       -1.48692547768906        4.47300719382959
C           -2.02735496811019       -0.16802315700429       -1.52024499393517
C           -2.80505331169582        1.03524415712165       -2.05436697543271
C           -1.10762899219133       -0.71159030782511       -2.60776536040129
H            2.56214625196777       -0.65252094328008        2.47806859915571
H            2.52696052019813        1.02308077950985        1.94766685047971
H            1.05370072810808        0.24411923664703        2.57292626031925
H            2.53225401021687       -0.83283221654085        0.17862412570295
H            1.89913698146455        1.60036881791974       -0.18113338303452
H            1.52958882555840        0.41826416489157       -1.49976888561827
H           -0.24814276539376        1.82350661363270        0.64487262138551
H           -0.40786657684828        1.89492390257477       -1.08931179201993
H           -2.13013404102823        0.62864164547005        0.40691084712517
H           -1.46628919307545       -1.95690534963640        0.12195091659705
H            0.69505043090264       -2.11172720993867       -0.33156744089234
H            0.72588470936330       -2.16577027855060        1.42058013859453
H           -1.48043515712098        0.84832175402496        2.33300312448529
H           -2.51722642471970       -0.21128702744256        3.32466544828510
H            1.64159133642369       -0.41694854988263       -3.10081460076880
H            2.46042320462540        2.51523868061961       -2.64278886356716
H            2.37817830896701        1.71247919638469       -4.20418324715711
H            0.90203863959588        1.98326764265758       -3.30048653620325
H            3.64006529996094       -0.92396195847823       -1.71423776985744
H            4.12903713687447       -0.07648705480200       -3.16426820066506
H            4.05619396713663        0.80242210057897       -1.64428192367366
H           -1.37820458819402        0.91149597982463        5.32051798840462
H            0.39518841756055        0.83760932649284        5.34650325506079
H           -0.42885613998356        1.84152565565712        4.14292354674929
H           -1.24860461886301       -1.58320299652954        5.18419265937446
H           -0.49383868987154       -2.28884758115897        3.74315245510598
H            0.52135235698379       -1.56924671689470        5.01237598573105
H           -2.76357892958956       -0.94239903982857       -1.28357509607985
H           -2.14815060476537        1.85426520720649       -2.34004037781873
H           -3.36856305780774        0.74321341797512       -2.93611484586993
H           -3.50922757483001        1.40319587050360       -1.31295945949795
H           -0.44313441684680       -1.47935262729270       -2.22073631438858
H           -1.70636239642850       -1.15778305066180       -3.39755965263497
H           -0.52867369634362        0.09145164780023       -3.05454309917921

          :  Hamiltonian                  GFN2-xTB          :
         :: total energy             -58.143416076279 Eh    ::
         :: gradient norm              0.000601436432 Eh/a0 ::
         :: HOMO-LUMO gap              0.272584122964 eV    ::
         :: SCC energy               -58.923108369130 Eh    ::
         :: -> dispersion             -0.046498943898 Eh    ::
         :: repulsion energy           0.779692292851 Eh    ::

    * Orbital Energies and Occupations

         #    Occupation            Energy/Eh            Energy/eV
      -------------------------------------------------------------
         1        2.0000           -0.8070465             -21.9609
       ...           ...                  ...                  ...
        42        2.0000           -0.5698121             -15.5054
        43        2.0000           -0.5694582             -15.4957
        44        2.0000           -0.5657960             -15.3961
        45        2.0000           -0.5635666             -15.3354
        46        2.0000           -0.5581438             -15.1879
        47        2.0000           -0.5537308             -15.0678
        48        2.0000           -0.5504152             -14.9776
        49        2.0000           -0.5485324             -14.9263
        50        2.0000           -0.5421517             -14.7527
        51        2.0000           -0.5373838             -14.6230
        52        2.0000           -0.5337069             -14.5229
        53        2.0000           -0.5121138             -13.9353
        54        1.9898           -0.4629306             -12.5970 (HOMO)
        55        0.0102           -0.4529133             -12.3244 (LUMO)
        56                         -0.1294343              -3.5221
        57                         -0.0910732              -2.4782
        58                         -0.0785126              -2.1364
        59                         -0.0758818              -2.0648
        60                         -0.0680571              -1.8519
        61                         -0.0620651              -1.6889
        62                         -0.0513101              -1.3962
        63                         -0.0473101              -1.2874
        64                         -0.0431101              -1.1731
        65                         -0.0369814              -1.0063
       ...                                ...                  ...
       106                          0.2210097               6.0140
      -------------------------------------------------------------
                  HL-Gap            0.0100173 Eh            0.2726 eV

     #   Z          covCN         q      C6AA      α(0)
     1   6 C        3.755    -0.130    23.051     6.846
     2   6 C        3.851    -0.011    20.739     6.477
     3   6 C        3.680    -0.007    20.914     6.550
     4   6 C        3.802    -0.064    21.731     6.637
     5   6 C        3.847    -0.043    21.302     6.565
     6   6 C        3.725     0.099    19.051     6.232
     7   6 C        3.801    -0.082    22.072     6.689
     8   8 O        1.700    -0.316    19.270     5.927
     9   6 C        3.639     0.149    18.514     6.189
    10   7 N        2.722    -0.168    24.629     7.371
    11   6 C        3.740    -0.012    20.861     6.517
    12   6 C        3.753    -0.124    22.931     6.829
    13   6 C        3.753    -0.126    22.977     6.835
    14   6 C        3.713    -0.044    21.504     6.626
    15   6 C        3.711    -0.044    21.491     6.625
    16   6 C        3.848    -0.022    20.939     6.509
    17   6 C        3.755    -0.115    22.752     6.801
    18   6 C        3.755    -0.116    22.783     6.806
    19   1 H        0.925     0.065     2.138     2.287
    20   1 H        0.925     0.048     2.340     2.392
    21   1 H        0.925     0.096     1.824     2.112
    22   1 H        0.924     0.064     2.154     2.295
    23   1 H        0.924     0.081     1.968     2.194
    24   1 H        1.643     0.160     1.319     1.793
    25   1 H        0.923     0.097     1.813     2.106
    26   1 H        0.924     0.076     2.023     2.224
    27   1 H        0.924     0.063     2.168     2.302
    28   1 H        0.924     0.070     2.090     2.261
    29   1 H        0.924     0.043     2.408     2.427
    30   1 H        0.925     0.078     1.996     2.209
    31   1 H        0.923     0.020     2.740     2.589
    32   1 H        0.922     0.040     2.447     2.446
    33   1 H        0.925     0.092     1.863     2.134
    34   1 H        0.925     0.071     2.074     2.252
    35   1 H        0.925     0.099     1.791     2.093
    36   1 H        0.925     0.066     2.127     2.281
    37   1 H        0.925     0.069     2.098     2.265
    38   1 H        0.924     0.103     1.755     2.072
    39   1 H        0.925     0.072     2.059     2.244
    40   1 H        0.924     0.038     2.478     2.462
    41   1 H        0.925     0.063     2.166     2.301
    42   1 H        0.925     0.040     2.443     2.444
    43   1 H        0.924     0.039     2.465     2.455
    44   1 H        0.925     0.064     2.156     2.296
    45   1 H        0.925     0.053     2.279     2.361
    46   1 H        0.924     0.051     2.304     2.374
    47   1 H        0.925     0.032     2.560     2.502
    48   1 H        0.925     0.056     2.241     2.341
    49   1 H        0.925     0.045     2.377     2.411
    50   1 H        0.925     0.031     2.568     2.506
    51   1 H        0.925     0.056     2.245     2.343
    52   1 H        0.925     0.033     2.549     2.497

Wiberg/Mayer (AO) data.
largest (>0.10) Wiberg bond orders for each atom

     #   Z sym  total        # sym  WBO       # sym  WBO       # sym  WBO
 ---------------------------------------------------------------------------
     1   6 C    3.967 --    20 H    0.982    19 H    0.980     2 C    0.949
                            21 H    0.945
     2   6 C    3.989 --     3 C    1.040     7 C    0.995     1 C    0.949
                            22 H    0.936
     3   6 C    3.910 --     4 C    1.053     2 C    1.040    23 H    0.958
                            24 H    0.441    11 C    0.151
     4   6 C    3.986 --     3 C    1.053     5 C    0.993    26 H    0.948
                            25 H    0.903
     5   6 C    3.988 --     4 C    0.993    16 C    0.976     6 C    0.975
                            27 H    0.952
     6   6 C    3.945 --     7 C    0.981     5 C    0.975     8 O    0.964
                            28 H    0.953
     7   6 C    3.991 --     2 C    0.995     6 C    0.981    29 H    0.972
                            30 H    0.968
     8   8 O    2.107 --     9 C    1.002     6 C    0.964
     9   6 C    3.952 --     8 O    1.002    10 N    0.986    31 H    0.952
                            32 H    0.946
    10   7 N    3.180 --    14 C    1.009    15 C    1.005     9 C    0.986
    11   6 C    3.890 --    13 C    1.053    12 C    1.048    33 H    0.951
                            24 H    0.510     3 C    0.151
    12   6 C    3.984 --    11 C    1.048    34 H    0.978    36 H    0.973
                            35 H    0.940
    13   6 C    3.985 --    11 C    1.053    39 H    0.977    37 H    0.971
                            38 H    0.935
    14   6 C    3.976 --    10 N    1.009    42 H    0.981    41 H    0.980
                            40 H    0.971
    15   6 C    3.970 --    10 N    1.005    45 H    0.981    44 H    0.979
                            43 H    0.971
    16   6 C    3.991 --    18 C    1.010    17 C    1.009     5 C    0.976
                            46 H    0.964
    17   6 C    3.993 --    16 C    1.009    49 H    0.985    48 H    0.983
                            47 H    0.981
    18   6 C    3.995 --    16 C    1.010    51 H    0.984    50 H    0.982
                            52 H    0.981
    19   1 H    0.995 --     1 C    0.980
    20   1 H    0.997 --     1 C    0.982
    21   1 H    0.990 --     1 C    0.945
    22   1 H    0.995 --     2 C    0.936
    23   1 H    0.993 --     3 C    0.958
    24   1 H    0.974 --    11 C    0.510     3 C    0.441
    25   1 H    0.985 --     4 C    0.903
    26   1 H    0.992 --     4 C    0.948
    27   1 H    0.996 --     5 C    0.952
    28   1 H    0.995 --     6 C    0.953
    29   1 H    0.998 --     7 C    0.972
    30   1 H    0.994 --     7 C    0.968
    31   1 H    0.999 --     9 C    0.952
    32   1 H    0.992 --     9 C    0.946
    33   1 H    0.991 --    11 C    0.951
    34   1 H    0.995 --    12 C    0.978
    35   1 H    0.981 --    12 C    0.940
    36   1 H    0.995 --    12 C    0.973
    37   1 H    0.994 --    13 C    0.971
    38   1 H    0.977 --    13 C    0.935
    39   1 H    0.994 --    13 C    0.977
    40   1 H    0.990 --    14 C    0.971
    41   1 H    0.995 --    14 C    0.980
    42   1 H    0.998 --    14 C    0.981
    43   1 H    0.989 --    15 C    0.971
    44   1 H    0.996 --    15 C    0.979
    45   1 H    0.996 --    15 C    0.981
    46   1 H    0.997 --    16 C    0.964
    47   1 H    0.999 --    17 C    0.981
    48   1 H    0.996 --    17 C    0.983
    49   1 H    0.998 --    17 C    0.985
    50   1 H    0.999 --    18 C    0.982
    51   1 H    0.997 --    18 C    0.984
    52   1 H    0.999 --    18 C    0.981
 ---------------------------------------------------------------------------

molecular dipole:
                 x           y           z       tot (Debye)
 q only:        2.320       1.001      -1.130
   full:        2.195       1.188      -1.072       6.904

           -------------------------------------------------
          | TOTAL ENERGY              -58.143416076279 Eh   |
          | GRADIENT NORM               0.000601436432 Eh/α |
          | HOMO-LUMO GAP               0.272584122964 eV   |
           -------------------------------------------------

 * finished run on 2024/12/20 at 02:02:52.983
