   * xtb version 6.7.1 (edcfbbe) compiled by 'conda@3ef47c1a292c' on 2024-11-25

   ID    Z sym.   atoms
    1    6 C      1-8, 10, 13-25
    2    7 N      9, 11, 12
    3    1 H      26-55

          program call               : xtb C0002.xyz --opt --namespace C0002 --charge +1
          :  Hamiltonian                  GFN2-xTB          :
 * total energy  :   -70.8448505 Eh     change       -0.1490690E-08 Eh
 * total energy  :   -70.8493690 Eh     change       -0.4518469E-02 Eh
 * total energy  :   -70.8499755 Eh     change       -0.6065644E-03 Eh
 * total energy  :   -70.8501659 Eh     change       -0.1903599E-03 Eh
 * total energy  :   -70.8503859 Eh     change       -0.2199720E-03 Eh
 * total energy  :   -70.8505592 Eh     change       -0.1733122E-03 Eh
 * total energy  :   -70.8507826 Eh     change       -0.2233749E-03 Eh
 * total energy  :   -70.8510257 Eh     change       -0.2430911E-03 Eh
 * total energy  :   -70.8513058 Eh     change       -0.2801874E-03 Eh
 * total energy  :   -70.8515778 Eh     change       -0.2719640E-03 Eh
 * total energy  :   -70.8550806 Eh     change       -0.1187334E-04 Eh
 * total energy  :   -70.8550998 Eh     change       -0.1920646E-04 Eh
 * total energy  :   -70.8551084 Eh     change       -0.8587499E-05 Eh
 * total energy  :   -70.8551254 Eh     change       -0.1699975E-04 Eh
 * total energy  :   -70.8551365 Eh     change       -0.1107980E-04 Eh
 * total energy  :   -70.8551466 Eh     change       -0.1010519E-04 Eh
 * total energy  :   -70.8551558 Eh     change       -0.9233651E-05 Eh
 * total energy  :   -70.8551616 Eh     change       -0.5759667E-05 Eh
 * total energy  :   -70.8551659 Eh     change       -0.4383585E-05 Eh
   *** GEOMETRY OPTIMIZATION CONVERGED AFTER 55 ITERATIONS ***

 final structure:
================
55
 xtb: 6.7.1 (edcfbbe)
C            1.42281663871780        0.15252691187560       -1.34806328731333
C            1.01631338410055       -1.15418430698523       -2.01864800728565
C            1.34337523455639       -2.38979271326029       -1.17828074989298
C            0.61490351481013       -2.46646486268535        0.16510435919089
C           -0.91346254236334       -2.47914177324093        0.07893204125567
C           -1.50788046999920       -3.63110591033170       -0.73517640559704
C           -1.24167021186251       -5.02061343114607       -0.15111615385911
C           -2.04687011834166       -5.30964538709022        1.12073244803997
N           -3.45082103289626       -5.53089636028988        0.84038692524317
C           -3.98746314472638       -6.68260855912622        0.40346936775463
N           -3.31579410440635       -7.82385182656746        0.21118079026948
N           -5.31517103699907       -6.55367489376796        0.24165414212946
C           -5.66240518245931       -5.25058371356372        0.57521277245879
C           -4.47765962037373       -4.60043349730255        0.95523580715198
C           -4.48548999326038       -3.27459316694351        1.35524835549405
C           -5.70467694682121       -2.62178026621198        1.35569882285966
C           -6.87824322295179       -3.26590336210428        0.97299938499033
C           -6.87996153195838       -4.59120484815543        0.57759510505731
C           -6.21238024109893       -7.61833134403162       -0.16753420934450
C           -5.76137649292570       -8.25722581532314       -1.45930612630718
C           -5.52411650005257       -9.62556573830012       -1.52990738870430
C           -5.11658954315021      -10.20137402763886       -2.72246780264167
C           -4.93206200795185       -9.41308116332757       -3.84542178546091
C           -5.16043785349938       -8.04772255066170       -3.77809784983910
C           -5.57466864353755       -7.47100107805923       -2.59103581648801
H            0.83981343751110        0.33507109427774       -0.44885624646296
H            1.26412880910486        0.98726398923474       -2.02631753454827
H            2.47580618079240        0.12880102672919       -1.07766238453785
H           -0.05014153785322       -1.12956368150060       -2.25113878481551
H            1.55121279685989       -1.24233121484568       -2.96676184721728
H            1.12494070665133       -3.28460998586778       -1.76583847363508
H            2.41656523924592       -2.39461230120584       -0.97528007892074
H            0.96106297953451       -3.35809182436630        0.69368359514123
H            0.90667007408907       -1.60967884602833        0.77370322260448
H           -1.30470925304951       -2.50064368094836        1.09927864035681
H           -1.25067783539255       -1.54410159041582       -0.36942294686674
H           -2.58650399878791       -3.47976213919867       -0.82968511899842
H           -1.09060836595873       -3.59745773206107       -1.74134180367535
H           -1.47989737427572       -5.77474590229167       -0.90597561305440
H           -0.18276410488828       -5.11583623765159        0.08625553288009
H           -1.65414514367085       -6.19270577478007        1.63300610605105
H           -1.97691523115950       -4.46781848653647        1.80921794260318
H           -2.31050017355797       -7.82112616806666        0.23166965918900
H           -3.77427791033679       -8.57836047331852       -0.28076992627578
H           -3.58516779751375       -2.76221291035963        1.64925963139934
H           -5.74685284811364       -1.58829905449455        1.65932940024224
H           -7.80747212531112       -2.71958359256800        0.98650143093752
H           -7.79517595178244       -5.08012404977129        0.28672502055857
H           -6.27307581251649       -8.36667132315663        0.63012611776611
H           -7.20190815235024       -7.17534277825542       -0.29547758448858
H           -5.68290830595311      -10.24632771168680       -0.65912711201456
H           -4.94784918360374      -11.26563925847556       -2.77219718348965
H           -4.61824691347081       -9.86237938643195       -4.77423755337088
H           -5.02548957869612       -7.43267806371016       -4.65392763340497
H           -5.76473095598684       -6.40817825800739       -2.54223321314334

          :  Hamiltonian                  GFN2-xTB          :
         :: total energy             -70.855165943241 Eh    ::
         :: gradient norm              0.000582142596 Eh/a0 ::
         :: HOMO-LUMO gap              3.074102577238 eV    ::
         :: SCC energy               -72.028280109185 Eh    ::
         :: -> dispersion             -0.056209309935 Eh    ::
         :: repulsion energy           1.173114165944 Eh    ::

    * Orbital Energies and Occupations

         #    Occupation            Energy/Eh            Energy/eV
      -------------------------------------------------------------
         1        2.0000           -0.8680808             -23.6217
       ...           ...                  ...                  ...
        54        2.0000           -0.5433913             -14.7864
        55        2.0000           -0.5404344             -14.7060
        56        2.0000           -0.5358356             -14.5808
        57        2.0000           -0.5276580             -14.3583
        58        2.0000           -0.5248300             -14.2814
        59        2.0000           -0.5217274             -14.1969
        60        2.0000           -0.5209954             -14.1770
        61        2.0000           -0.5199046             -14.1473
        62        2.0000           -0.5179587             -14.0944
        63        2.0000           -0.5158202             -14.0362
        64        2.0000           -0.4970495             -13.5254
        65        2.0000           -0.4932115             -13.4210
        66        2.0000           -0.4893589             -13.3161 (HOMO)
        67                         -0.3763877             -10.2420 (LUMO)
        68                         -0.3455855              -9.4039
        69                         -0.3436062              -9.3500
        70                         -0.3399952              -9.2517
        71                         -0.3313532              -9.0166
        72                         -0.2187176              -5.9516
        73                         -0.2155726              -5.8660
        74                         -0.1747543              -4.7553
        75                         -0.1277273              -3.4756
        76                         -0.1210381              -3.2936
        77                         -0.0588088              -1.6003
       ...                                ...                  ...
       130                          0.5631262              15.3234
      -------------------------------------------------------------
                  HL-Gap            0.1129712 Eh            3.0741 eV

     #   Z          covCN         q      C6AA      α(0)
     1   6 C        3.751    -0.105    22.563     6.774
     2   6 C        3.799    -0.054    21.544     6.609
     3   6 C        3.800    -0.060    21.659     6.626
     4   6 C        3.800    -0.061    21.674     6.629
     5   6 C        3.800    -0.060    21.654     6.625
     6   6 C        3.800    -0.063    21.715     6.635
     7   6 C        3.801    -0.068    21.805     6.648
     8   6 C        3.739    -0.015    20.921     6.526
     9   7 N        2.817    -0.028    21.779     6.931
    10   6 C        3.002     0.196    23.827     8.007
    11   7 N        2.638    -0.250    26.502     7.646
    12   7 N        2.821    -0.029    21.799     6.934
    13   6 C        3.087     0.037    27.072     8.529
    14   6 C        3.090     0.039    27.020     8.520
    15   6 C        2.911    -0.037    28.910     8.817
    16   6 C        2.926    -0.024    28.607     8.771
    17   6 C        2.926    -0.023    28.590     8.769
    18   6 C        2.910    -0.037    28.920     8.818
    19   6 C        3.745    -0.018    20.969     6.532
    20   6 C        2.971    -0.008    28.210     8.712
    21   6 C        2.922    -0.045    29.124     8.850
    22   6 C        2.919    -0.025    28.619     8.773
    23   6 C        2.920    -0.022    28.567     8.765
    24   6 C        2.919    -0.023    28.588     8.768
    25   6 C        2.922    -0.038    28.937     8.822
    26   1 H        0.925     0.034     2.536     2.490
    27   1 H        0.925     0.038     2.477     2.461
    28   1 H        0.925     0.039     2.463     2.454
    29   1 H        0.924     0.028     2.616     2.529
    30   1 H        0.924     0.034     2.536     2.490
    31   1 H        0.924     0.025     2.656     2.549
    32   1 H        0.924     0.038     2.469     2.457
    33   1 H        0.924     0.025     2.658     2.549
    34   1 H        0.924     0.045     2.386     2.416
    35   1 H        0.924     0.021     2.719     2.578
    36   1 H        0.924     0.047     2.357     2.401
    37   1 H        0.924     0.028     2.615     2.529
    38   1 H        0.925     0.054     2.265     2.353
    39   1 H        0.924     0.033     2.546     2.495
    40   1 H        0.925     0.068     2.113     2.273
    41   1 H        0.924     0.060     2.202     2.320
    42   1 H        0.925     0.088     1.897     2.154
    43   1 H        0.860     0.216     1.026     1.587
    44   1 H        0.860     0.223     0.995     1.563
    45   1 H        0.926     0.066     2.126     2.280
    46   1 H        0.926     0.072     2.062     2.245
    47   1 H        0.926     0.072     2.062     2.245
    48   1 H        0.926     0.062     2.179     2.308
    49   1 H        0.924     0.071     2.080     2.255
    50   1 H        0.924     0.089     1.888     2.149
    51   1 H        0.926     0.040     2.442     2.444
    52   1 H        0.926     0.056     2.250     2.346
    53   1 H        0.926     0.058     2.225     2.332
    54   1 H        0.926     0.054     2.268     2.355
    55   1 H        0.926     0.037     2.489     2.467

Wiberg/Mayer (AO) data.
largest (>0.10) Wiberg bond orders for each atom

     #   Z sym  total        # sym  WBO       # sym  WBO       # sym  WBO
 ---------------------------------------------------------------------------
     1   6 C    3.996 --     2 C    1.020    28 H    0.987    27 H    0.987
                            26 H    0.986
     2   6 C    3.998 --     1 C    1.020     3 C    1.008    30 H    0.978
                            29 H    0.976
     3   6 C    3.997 --     2 C    1.008     4 C    1.008    32 H    0.976
                            31 H    0.975
     4   6 C    3.996 --     3 C    1.008     5 C    1.007    33 H    0.974
                            34 H    0.974
     5   6 C    3.996 --     6 C    1.008     4 C    1.007    36 H    0.973
                            35 H    0.971
     6   6 C    3.994 --     5 C    1.008     7 C    1.007    37 H    0.976
                            38 H    0.971
     7   6 C    3.988 --     6 C    1.007     8 C    0.991    39 H    0.975
                            40 H    0.966
     8   6 C    3.945 --     7 C    0.991     9 N    0.968    41 H    0.965
                            42 H    0.960
     9   7 N    3.601 --    10 C    1.269    14 C    1.089     8 C    0.968
    10   6 C    3.972 --     9 N    1.269    11 N    1.268    12 N    1.266
    11   7 N    3.352 --    10 C    1.268    43 H    0.929    44 H    0.909
    12   7 N    3.598 --    10 C    1.266    13 C    1.089    19 C    0.963
    13   6 C    3.949 --    18 C    1.367    14 C    1.284    12 N    1.089
    14   6 C    3.950 --    15 C    1.366    13 C    1.284     9 N    1.089
    15   6 C    3.986 --    16 C    1.465    14 C    1.366    45 H    0.960
                            18 C    0.114
    16   6 C    3.982 --    15 C    1.465    17 C    1.406    46 H    0.967
    17   6 C    3.981 --    18 C    1.465    16 C    1.406    47 H    0.967
    18   6 C    3.986 --    17 C    1.465    13 C    1.367    48 H    0.962
                            15 C    0.114
    19   6 C    3.946 --    20 C    0.992    12 N    0.963    49 H    0.960
                            50 H    0.955
    20   6 C    3.983 --    21 C    1.408    25 C    1.408    19 C    0.992
                            23 C    0.109
    21   6 C    3.990 --    22 C    1.436    20 C    1.408    51 H    0.967
                            24 C    0.109
    22   6 C    3.990 --    23 C    1.444    21 C    1.436    52 H    0.969
                            25 C    0.112
    23   6 C    3.989 --    22 C    1.444    24 C    1.434    53 H    0.969
                            20 C    0.109
    24   6 C    3.991 --    25 C    1.449    23 C    1.434    54 H    0.969
                            21 C    0.109
    25   6 C    3.992 --    24 C    1.449    20 C    1.408    55 H    0.969
                            22 C    0.112
    26   1 H    0.999 --     1 C    0.986
    27   1 H    0.999 --     1 C    0.987
    28   1 H    0.998 --     1 C    0.987
    29   1 H    0.999 --     2 C    0.976
    30   1 H    0.999 --     2 C    0.978
    31   1 H    0.999 --     3 C    0.975
    32   1 H    0.998 --     3 C    0.976
    33   1 H    0.999 --     4 C    0.974
    34   1 H    0.998 --     4 C    0.974
    35   1 H    1.000 --     5 C    0.971
    36   1 H    0.998 --     5 C    0.973
    37   1 H    0.999 --     6 C    0.976
    38   1 H    0.997 --     6 C    0.971
    39   1 H    0.999 --     7 C    0.975
    40   1 H    0.995 --     7 C    0.966
    41   1 H    0.996 --     8 C    0.965
    42   1 H    0.992 --     8 C    0.960
    43   1 H    0.953 --    11 N    0.929
    44   1 H    0.950 --    11 N    0.909
    45   1 H    0.995 --    15 C    0.960
    46   1 H    0.994 --    16 C    0.967
    47   1 H    0.994 --    17 C    0.967
    48   1 H    0.996 --    18 C    0.962
    49   1 H    0.994 --    19 C    0.960
    50   1 H    0.992 --    19 C    0.955
    51   1 H    0.998 --    21 C    0.967
    52   1 H    0.997 --    22 C    0.969
    53   1 H    0.996 --    23 C    0.969
    54   1 H    0.997 --    24 C    0.969
    55   1 H    0.999 --    25 C    0.969
 ---------------------------------------------------------------------------

molecular dipole:
                 x           y           z       tot (Debye)
 q only:       -7.515     -11.736       0.023
   full:       -7.492     -11.977      -0.016      35.908

           -------------------------------------------------
          | TOTAL ENERGY              -70.855165943241 Eh   |
          | GRADIENT NORM               0.000582142596 Eh/α |
          | HOMO-LUMO GAP               3.074102577238 eV   |
           -------------------------------------------------

 * finished run on 2024/12/20 at 02:02:45.273
