   * xtb version 6.7.1 (edcfbbe) compiled by 'conda@3ef47c1a292c' on 2024-11-25

   ID    Z sym.   atoms
    1    6 C      1, 3, 4, 6-8, 10-15
    2    7 N      2, 5
    3    8 O      9
    4    1 H      16-28

          program call               : xtb C0006.xyz --opt --namespace C0006 --charge +1
          :  Hamiltonian                  GFN2-xTB          :
 * total energy  :   -41.8307372 Eh     change       -0.5005560E-09 Eh
 * total energy  :   -41.8361844 Eh     change       -0.5447180E-02 Eh
 * total energy  :   -41.8376971 Eh     change       -0.1512683E-02 Eh
 * total energy  :   -41.8379532 Eh     change       -0.2561549E-03 Eh
 * total energy  :   -41.8381367 Eh     change       -0.1834853E-03 Eh
 * total energy  :   -41.8382702 Eh     change       -0.1334942E-03 Eh
 * total energy  :   -41.8384851 Eh     change       -0.2148849E-03 Eh
 * total energy  :   -41.8387808 Eh     change       -0.2956850E-03 Eh
 * total energy  :   -41.8391267 Eh     change       -0.3458835E-03 Eh
 * total energy  :   -41.8394797 Eh     change       -0.3530399E-03 Eh
 * total energy  :   -41.8435321 Eh     change        0.7779697E-06 Eh
 * total energy  :   -41.8436050 Eh     change       -0.7290745E-04 Eh
 * total energy  :   -41.8436319 Eh     change       -0.2689133E-04 Eh
 * total energy  :   -41.8436711 Eh     change       -0.3919684E-04 Eh
 * total energy  :   -41.8436902 Eh     change       -0.1915810E-04 Eh
 * total energy  :   -41.8437028 Eh     change       -0.1253547E-04 Eh
 * total energy  :   -41.8437080 Eh     change       -0.5256671E-05 Eh
 * total energy  :   -41.8437133 Eh     change       -0.5299155E-05 Eh
 * total energy  :   -41.8437165 Eh     change       -0.3152120E-05 Eh
   *** GEOMETRY OPTIMIZATION CONVERGED AFTER 45 ITERATIONS ***

 final structure:
================
28
 xtb: 6.7.1 (edcfbbe)
C            2.88925981540272       -0.78061988799083        0.42710878937599
N            1.75297755991202       -0.62253115190966        1.29355368679733
C            1.18952341357953        0.56624800771595        1.64950569797561
C            0.14504053526097        0.28941191788405        2.47582114157981
N            0.09578008712206       -1.06490148642545        2.62597472933165
C            1.07135818204682       -1.59628650525754        1.88837798382007
C           -0.94953835649241       -1.82584688473084        3.24345234659023
C           -1.63530945730719       -2.69050776704317        2.14233089759355
O           -1.10830742479397       -2.74739882375000        1.05506491897220
C           -2.85778434611134       -3.39214514848683        2.51372551736347
C           -3.51676980202686       -4.10842219237966        1.50494037044893
C           -4.67013088504604       -4.81178710307354        1.78447775040700
C           -5.18167095627811       -4.81490412157013        3.07385382369490
C           -4.53610452704834       -4.11153945159615        4.08183536450556
C           -3.38357829184864       -3.40120253937879        3.81121277984507
H            2.74715717119129       -0.19541158795342       -0.48109329835339
H            3.00667099435962       -1.82829892577949        0.16001186629579
H            3.79654074794767       -0.43448382481002        0.92524054664556
H            1.55840917640887        1.50743299180884        1.29628983329652
H           -0.54585672507694        0.95019689164620        2.95812952789784
H            1.28434462816776       -2.64350398603195        1.80143979816519
H           -0.54079706802328       -2.50194594720626        3.99981055312394
H           -1.66600378936288       -1.14768116212615        3.70663154963164
H           -3.10122480224836       -4.09516821476038        0.50910141680448
H           -5.17036294942811       -5.35950836084909        1.00084334008360
H           -6.08177510270557       -5.36663144452138        3.29673617496628
H           -4.93593223639986       -4.11975125480381        5.08430710806841
H           -2.89637559120268       -2.87034203662910        4.61433578507455

          :  Hamiltonian                  GFN2-xTB          :
         :: total energy             -41.843716461585 Eh    ::
         :: gradient norm              0.000550605192 Eh/a0 ::
         :: HOMO-LUMO gap              3.088839272336 eV    ::
         :: SCC energy               -42.512275939116 Eh    ::
         :: -> dispersion             -0.024413430567 Eh    ::
         :: repulsion energy           0.668559477531 Eh    ::

    * Orbital Energies and Occupations

         #    Occupation            Energy/Eh            Energy/eV
      -------------------------------------------------------------
         1        2.0000           -0.8860927             -24.1118
       ...           ...                  ...                  ...
        26        2.0000           -0.6295507             -17.1309
        27        2.0000           -0.6253836             -17.0176
        28        2.0000           -0.6103728             -16.6091
        29        2.0000           -0.6019168             -16.3790
        30        2.0000           -0.5979203             -16.2702
        31        2.0000           -0.5961918             -16.2232
        32        2.0000           -0.5928596             -16.1325
        33        2.0000           -0.5780516             -15.7296
        34        2.0000           -0.5547170             -15.0946
        35        2.0000           -0.5375793             -14.6283
        36        2.0000           -0.5309040             -14.4466
        37        2.0000           -0.5294370             -14.4067
        38        2.0000           -0.5248688             -14.2824 (HOMO)
        39                         -0.4113561             -11.1936 (LUMO)
        40                         -0.3953613             -10.7583
        41                         -0.3627455              -9.8708
        42                         -0.3412194              -9.2851
        43                         -0.3138584              -8.5405
        44                         -0.2042916              -5.5591
        45                         -0.1730083              -4.7078
        46                         -0.1229199              -3.3448
        47                         -0.0853058              -2.3213
        48                         -0.0442126              -1.2031
        49                         -0.0411308              -1.1192
       ...                                ...                  ...
        73                          0.5495338              14.9536
      -------------------------------------------------------------
                  HL-Gap            0.1135128 Eh            3.0888 eV

     #   Z          covCN         q      C6AA      α(0)
     1   6 C        3.692    -0.086    22.332     6.762
     2   7 N        2.867     0.079    19.871     6.621
     3   6 C        3.071    -0.008    28.153     8.700
     4   6 C        3.066    -0.008    28.140     8.699
     5   7 N        2.872     0.073    19.969     6.637
     6   6 C        3.095     0.058    26.597     8.452
     7   6 C        3.743    -0.051    21.564     6.625
     8   6 C        2.822     0.227    23.232     7.898
     9   8 O        0.857    -0.357    20.836     6.120
    10   6 C        2.970    -0.017    28.429     8.746
    11   6 C        2.927    -0.009    28.233     8.714
    12   6 C        2.915    -0.017    28.437     8.745
    13   6 C        2.920    -0.006    28.166     8.703
    14   6 C        2.917    -0.018    28.470     8.750
    15   6 C        2.918    -0.026    28.663     8.779
    16   1 H        0.925     0.108     1.717     2.049
    17   1 H        0.925     0.101     1.773     2.082
    18   1 H        0.924     0.104     1.751     2.069
    19   1 H        0.926     0.109     1.708     2.044
    20   1 H        0.926     0.104     1.750     2.069
    21   1 H        0.926     0.122     1.598     1.977
    22   1 H        0.924     0.101     1.774     2.083
    23   1 H        0.925     0.102     1.769     2.080
    24   1 H        0.926     0.075     2.035     2.231
    25   1 H        0.926     0.067     2.115     2.274
    26   1 H        0.926     0.069     2.097     2.265
    27   1 H        0.926     0.063     2.166     2.301
    28   1 H        0.926     0.043     2.412     2.429

Wiberg/Mayer (AO) data.
largest (>0.10) Wiberg bond orders for each atom

     #   Z sym  total        # sym  WBO       # sym  WBO       # sym  WBO
 ---------------------------------------------------------------------------
     1   6 C    3.934 --     2 N    0.991    17 H    0.975    16 H    0.965
                            18 H    0.961
     2   7 N    3.718 --     6 C    1.362     3 C    1.221     1 C    0.991
     3   6 C    3.948 --     4 C    1.600     2 N    1.221    19 H    0.961
     4   6 C    3.947 --     3 C    1.600     5 N    1.214    20 H    0.962
     5   7 N    3.709 --     6 C    1.343     4 C    1.214     7 C    0.996
     6   6 C    3.945 --     2 N    1.362     5 N    1.343    21 H    0.952
     7   6 C    3.946 --     5 N    0.996    23 H    0.956    22 H    0.942
                             8 C    0.919
     8   6 C    3.930 --     9 O    1.804    10 C    1.084     7 C    0.919
     9   8 O    2.106 --     8 C    1.804
    10   6 C    3.982 --    15 C    1.350    11 C    1.346     8 C    1.084
    11   6 C    3.984 --    12 C    1.465    10 C    1.346    24 H    0.964
    12   6 C    3.988 --    11 C    1.465    13 C    1.426    25 H    0.967
                            15 C    0.102
    13   6 C    3.985 --    12 C    1.426    14 C    1.416    26 H    0.968
    14   6 C    3.990 --    15 C    1.474    13 C    1.416    27 H    0.968
    15   6 C    3.991 --    14 C    1.474    10 C    1.350    28 H    0.966
                            12 C    0.102
    16   1 H    0.988 --     1 C    0.965
    17   1 H    0.989 --     1 C    0.975
    18   1 H    0.988 --     1 C    0.961
    19   1 H    0.988 --     3 C    0.961
    20   1 H    0.989 --     4 C    0.962
    21   1 H    0.985 --     6 C    0.952
    22   1 H    0.990 --     7 C    0.942
    23   1 H    0.989 --     7 C    0.956
    24   1 H    0.994 --    11 C    0.964
    25   1 H    0.995 --    12 C    0.967
    26   1 H    0.995 --    13 C    0.968
    27   1 H    0.996 --    14 C    0.968
    28   1 H    0.998 --    15 C    0.966
 ---------------------------------------------------------------------------

molecular dipole:
                 x           y           z       tot (Debye)
 q only:       -0.024      -2.697       4.455
   full:       -0.025      -2.680       4.654      13.650

           -------------------------------------------------
          | TOTAL ENERGY              -41.843716461585 Eh   |
          | GRADIENT NORM               0.000550605192 Eh/α |
          | HOMO-LUMO GAP               3.088839272336 eV   |
           -------------------------------------------------

 * finished run on 2024/12/20 at 02:02:53.981
