   * xtb version 6.7.1 (edcfbbe) compiled by 'conda@3ef47c1a292c' on 2024-11-25

   ID    Z sym.   atoms
    1    6 C      1-8, 10, 11, 13-30
    2    7 N      9, 12, 32
    3    8 O      31
    4    1 H      33-62

          program call               : xtb C0007.xyz --opt --namespace C0007 --charge +1
          :  Hamiltonian                  GFN2-xTB          :
 * total energy  :   -87.7171018 Eh     change       -0.1049102E-08 Eh
 * total energy  :   -87.7301325 Eh     change       -0.1303064E-01 Eh
 * total energy  :   -87.7339190 Eh     change       -0.3786524E-02 Eh
 * total energy  :   -87.7349469 Eh     change       -0.1027888E-02 Eh
 * total energy  :   -87.7356871 Eh     change       -0.7402006E-03 Eh
 * total energy  :   -87.7362369 Eh     change       -0.5498597E-03 Eh
 * total energy  :   -87.7366553 Eh     change       -0.4183347E-03 Eh
 * total energy  :   -87.7370596 Eh     change       -0.4043308E-03 Eh
 * total energy  :   -87.7375286 Eh     change       -0.4689697E-03 Eh
 * total energy  :   -87.7380998 Eh     change       -0.5712487E-03 Eh
 * total energy  :   -87.7459599 Eh     change       -0.5471065E-05 Eh
 * total energy  :   -87.7459651 Eh     change       -0.5216658E-05 Eh
 * total energy  :   -87.7459709 Eh     change       -0.5784321E-05 Eh
 * total energy  :   -87.7459775 Eh     change       -0.6526100E-05 Eh
 * total energy  :   -87.7459837 Eh     change       -0.6249121E-05 Eh
 * total energy  :   -87.7459895 Eh     change       -0.5820610E-05 Eh
 * total energy  :   -87.7459954 Eh     change       -0.5872731E-05 Eh
 * total energy  :   -87.7460022 Eh     change       -0.6842643E-05 Eh
 * total energy  :   -87.7460052 Eh     change       -0.3004837E-05 Eh
   *** GEOMETRY OPTIMIZATION CONVERGED AFTER 68 ITERATIONS ***

 final structure:
================
62
 xtb: 6.7.1 (edcfbbe)
C            2.65851736700662       -0.08942492208139        0.61388465733827
C            1.20144320958683       -0.39045919756954        0.47972711728279
C            0.77907493917174       -1.66566233225974        0.11375148897282
C           -0.56470972540664       -1.96231126362944       -0.00099310440688
C           -1.52360714071116       -0.98646836144265        0.24965233290977
C           -1.10974740228848        0.28685487843873        0.61631518601145
C            0.23737483139773        0.57870415727964        0.72965900235716
C           -2.98768423324815       -1.30181357288192        0.10471057179832
N           -3.44170647299647       -1.10572162394652       -1.26591054716118
C           -2.65505238474776       -0.78797210864267       -2.33268951631634
C           -3.47251865068814       -0.66904203783078       -3.40841626912460
N           -4.74804882668359       -0.91106937113664       -2.98785172410556
C           -4.71190148590769       -1.19076965952097       -1.67848298009143
C           -5.84470851148753       -1.57833765581586       -0.81422940699369
C           -5.91241415769112       -0.85741061812404       -3.84889560244495
C           -6.99052290627713        0.12547896224861       -3.39048663389604
C           -6.70383260101285        1.63210407461435       -3.59013171135184
C           -6.72578553193570        2.08915660546799       -5.03464018136207
C           -6.30372447617268        3.38933841089678       -5.33186565159894
C           -6.32948096809927        3.87395550551763       -6.62611948618661
C           -6.78297801475586        3.07113085162111       -7.65992087918733
C           -7.21150895487442        1.78718608897778       -7.38007825475685
C           -7.18628799189836        1.30063974599893       -6.08187421491162
C           -5.37706857822897        1.97779669242075       -2.91220253729957
C           -4.21778708864716        2.17080852420351       -3.65756368965261
C           -3.01629512731772        2.47091857668706       -3.03940389676305
C           -2.94213735692298        2.56401788229221       -1.66124413836137
C           -4.08283123288729        2.34778999652113       -0.90796544839594
C           -5.28616531752496        2.05580555432304       -1.52613290414441
C           -7.85467549284585        2.31448730801531       -2.78100930137509
O           -8.19456633258241        1.86363924771371       -1.70632491389009
N           -8.43460252003107        3.39051407290808       -3.32165110096088
H            3.06815036139459       -0.61439204109961        1.47616989133254
H            3.20288681885137       -0.42826530011100       -0.26549242649403
H            2.83005598995396        0.97494091633947        0.74729795101818
H            1.51380346685529       -2.43303647072344       -0.07773051984973
H           -0.87251388207404       -2.95945429794405       -0.28187096277684
H           -1.84444607292272        1.05062806827597        0.82238843951038
H            0.54364441510892        1.57169181327893        1.02247687936664
H           -3.17560486767954       -2.34361340946394        0.38586707552344
H           -3.58150070998936       -0.65126154305704        0.75304144378375
H           -1.59593435864392       -0.66679473138973       -2.24604034027120
H           -3.23913017735090       -0.43716521509323       -4.42600579835810
H           -6.63995097247391       -2.03458616270779       -1.39770590661687
H           -5.51496370678930       -2.28944814828334       -0.05925995716342
H           -6.25520675889044       -0.71032049847573       -0.29566092689055
H           -5.55853766818137       -0.59360793547714       -4.84686606430445
H           -6.35189306628460       -1.85974777021254       -3.89294502458094
H           -7.91463037584218       -0.12178658903977       -3.91455196547693
H           -7.19458978432563       -0.00819444605073       -2.32945901509899
H           -5.93341501796038        4.02347750213787       -4.53783845329811
H           -5.99412955703086        4.88015249040104       -6.82579626739168
H           -6.80305201024577        3.44489591816203       -8.67135401654724
H           -7.57220457134116        1.15248542099064       -8.17502722010662
H           -7.54139610034442        0.29650918202713       -5.91262553609424
H           -4.24716297621009        2.10164278789038       -4.73464734014193
H           -2.13536607696087        2.63460684007773       -3.64110443369878
H           -2.00648899432257        2.80975788123878       -1.18334169879040
H           -4.04763914130264        2.42654852094272        0.16888073327333
H           -6.16847623894157        1.91578775141095       -0.92101140277022
H           -8.18062630584810        3.75352364642819       -4.22502327676611
H           -9.17689252367112        3.83441140835635       -2.80463012210577

          :  Hamiltonian                  GFN2-xTB          :
         :: total energy             -87.746005241890 Eh    ::
         :: gradient norm              0.000317876431 Eh/a0 ::
         :: HOMO-LUMO gap              2.782706434470 eV    ::
         :: SCC energy               -89.233216457888 Eh    ::
         :: -> dispersion             -0.080760165316 Eh    ::
         :: repulsion energy           1.487211215998 Eh    ::

    * Orbital Energies and Occupations

         #    Occupation            Energy/Eh            Energy/eV
      -------------------------------------------------------------
         1        2.0000           -0.8653789             -23.5482
       ...           ...                  ...                  ...
        69        2.0000           -0.5280659             -14.3694
        70        2.0000           -0.5256527             -14.3037
        71        2.0000           -0.5172725             -14.0757
        72        2.0000           -0.5156475             -14.0315
        73        2.0000           -0.5139946             -13.9865
        74        2.0000           -0.5112753             -13.9125
        75        2.0000           -0.5049310             -13.7399
        76        2.0000           -0.5046980             -13.7335
        77        2.0000           -0.5043009             -13.7227
        78        2.0000           -0.5007511             -13.6261
        79        2.0000           -0.4972830             -13.5318
        80        2.0000           -0.4922295             -13.3942
        81        2.0000           -0.4768603             -12.9760 (HOMO)
        82                         -0.3745978             -10.1933 (LUMO)
        83                         -0.3436257              -9.3505
        84                         -0.3285468              -8.9402
        85                         -0.3255753              -8.8594
        86                         -0.3244866              -8.8297
        87                         -0.3221446              -8.7660
        88                         -0.3186220              -8.6701
        89                         -0.3160520              -8.6002
        90                         -0.3011229              -8.1940
        91                         -0.2034811              -5.5370
        92                         -0.1975058              -5.3744
       ...                                ...                  ...
       158                          0.5744483              15.6315
      -------------------------------------------------------------
                  HL-Gap            0.1022626 Eh            2.7827 eV

     #   Z          covCN         q      C6AA      α(0)
     1   6 C        3.758    -0.118    22.812     6.809
     2   6 C        2.966     0.030    27.331     8.575
     3   6 C        2.925    -0.037    28.913     8.818
     4   6 C        2.921    -0.039    28.977     8.828
     5   6 C        2.971    -0.009    28.239     8.717
     6   6 C        2.921    -0.038    28.951     8.824
     7   6 C        2.924    -0.036    28.890     8.814
     8   6 C        3.746    -0.021    21.025     6.540
     9   7 N        2.877     0.035    20.634     6.747
    10   6 C        3.046    -0.007    28.153     8.702
    11   6 C        3.061    -0.010    28.197     8.708
    12   7 N        2.867     0.037    20.597     6.741
    13   6 C        3.107     0.108    25.496     8.273
    14   6 C        3.754    -0.135    23.162     6.863
    15   6 C        3.739    -0.019    20.991     6.537
    16   6 C        3.814    -0.075    21.921     6.664
    17   6 C        3.906    -0.020    20.878     6.495
    18   6 C        2.969    -0.004    28.109     8.696
    19   6 C        2.926    -0.044    29.085     8.844
    20   6 C        2.918    -0.029    28.725     8.789
    21   6 C        2.919    -0.027    28.677     8.782
    22   6 C        2.920    -0.028    28.694     8.784
    23   6 C        2.923    -0.044    29.099     8.846
    24   6 C        2.973     0.005    27.916     8.667
    25   6 C        2.924    -0.043    29.075     8.843
    26   6 C        2.920    -0.035    28.883     8.813
    27   6 C        2.919    -0.034    28.854     8.809
    28   6 C        2.920    -0.034    28.848     8.808
    29   6 C        2.924    -0.050    29.236     8.867
    30   6 C        2.753     0.284    22.181     7.712
    31   8 O        0.859    -0.439    22.474     6.356
    32   7 N        2.636    -0.260    26.748     7.681
    33   1 H        0.925     0.066     2.134     2.284
    34   1 H        0.925     0.059     2.207     2.323
    35   1 H        0.925     0.055     2.262     2.352
    36   1 H        0.926     0.051     2.305     2.374
    37   1 H        0.926     0.036     2.497     2.471
    38   1 H        0.926     0.039     2.456     2.451
    39   1 H        0.926     0.050     2.323     2.383
    40   1 H        0.924     0.078     1.999     2.211
    41   1 H        0.924     0.081     1.964     2.192
    42   1 H        0.927     0.099     1.793     2.094
    43   1 H        0.927     0.095     1.835     2.118
    44   1 H        0.925     0.095     1.828     2.114
    45   1 H        0.925     0.091     1.869     2.138
    46   1 H        0.924     0.109     1.702     2.040
    47   1 H        0.924     0.087     1.908     2.160
    48   1 H        0.924     0.075     2.027     2.226
    49   1 H        0.924     0.068     2.112     2.273
    50   1 H        0.925     0.085     1.927     2.171
    51   1 H        0.925     0.035     2.512     2.478
    52   1 H        0.926     0.044     2.395     2.420
    53   1 H        0.926     0.048     2.351     2.398
    54   1 H        0.926     0.044     2.399     2.422
    55   1 H        0.926     0.031     2.571     2.507
    56   1 H        0.926     0.034     2.525     2.485
    57   1 H        0.926     0.039     2.466     2.455
    58   1 H        0.926     0.040     2.447     2.446
    59   1 H        0.926     0.035     2.514     2.480
    60   1 H        0.926     0.057     2.229     2.335
    61   1 H        0.860     0.199     1.109     1.650
    62   1 H        0.860     0.210     1.055     1.609

Wiberg/Mayer (AO) data.
largest (>0.10) Wiberg bond orders for each atom

     #   Z sym  total        # sym  WBO       # sym  WBO       # sym  WBO
 ---------------------------------------------------------------------------
     1   6 C    3.993 --     2 C    1.034    35 H    0.984    34 H    0.971
                            33 H    0.962
     2   6 C    3.987 --     7 C    1.408     3 C    1.397     1 C    1.034
                             5 C    0.105
     3   6 C    3.991 --     4 C    1.460     2 C    1.397    36 H    0.968
                             6 C    0.107
     4   6 C    3.991 --     3 C    1.460     5 C    1.401    37 H    0.969
                             7 C    0.105
     5   6 C    3.978 --     6 C    1.412     4 C    1.401     8 C    0.999
                             2 C    0.105
     6   6 C    3.991 --     7 C    1.447     5 C    1.412    38 H    0.967
                             3 C    0.107
     7   6 C    3.991 --     6 C    1.447     2 C    1.408    39 H    0.967
                             4 C    0.105
     8   6 C    3.940 --     5 C    0.999    41 H    0.958    40 H    0.953
                             9 N    0.952
     9   7 N    3.690 --    13 C    1.329    10 C    1.214     8 C    0.952
    10   6 C    3.950 --    11 C    1.603     9 N    1.214    42 H    0.959
    11   6 C    3.950 --    10 C    1.603    12 N    1.210    43 H    0.962
    12   7 N    3.690 --    13 C    1.324    11 C    1.210    15 C    0.967
    13   6 C    3.951 --     9 N    1.329    12 N    1.324    14 C    1.047
    14   6 C    3.978 --    13 C    1.047    44 H    0.966    45 H    0.962
                            46 H    0.940
    15   6 C    3.941 --    16 C    0.993    12 N    0.967    47 H    0.964
                            48 H    0.958
    16   6 C    3.981 --    15 C    0.993    17 C    0.967    49 H    0.963
                            50 H    0.957
    17   6 C    3.988 --    18 C    0.994    16 C    0.967    24 C    0.964
                            30 C    0.896
    18   6 C    3.986 --    23 C    1.423    19 C    1.382    17 C    0.994
                            21 C    0.109
    19   6 C    3.992 --    20 C    1.453    18 C    1.382    51 H    0.966
                            22 C    0.111
    20   6 C    3.991 --    19 C    1.453    21 C    1.428    52 H    0.970
                            23 C    0.107
    21   6 C    3.988 --    22 C    1.448    20 C    1.428    53 H    0.970
                            18 C    0.109
    22   6 C    3.991 --    21 C    1.448    23 C    1.432    54 H    0.970
                            19 C    0.111
    23   6 C    3.991 --    22 C    1.432    18 C    1.423    55 H    0.964
                            20 C    0.107
    24   6 C    3.985 --    29 C    1.413    25 C    1.409    17 C    0.964
                            27 C    0.109
    25   6 C    3.991 --    26 C    1.441    24 C    1.409    56 H    0.964
                            28 C    0.110
    26   6 C    3.990 --    25 C    1.441    27 C    1.438    57 H    0.970
                            29 C    0.111
    27   6 C    3.990 --    26 C    1.438    28 C    1.437    58 H    0.970
                            24 C    0.109
    28   6 C    3.991 --    29 C    1.443    27 C    1.437    59 H    0.970
                            25 C    0.110
    29   6 C    3.989 --    28 C    1.443    24 C    1.413    60 H    0.960
                            26 C    0.111
    30   6 C    3.946 --    31 O    1.677    32 N    1.306    17 C    0.896
    31   8 O    2.009 --    30 C    1.677    32 N    0.201
    32   7 N    3.408 --    30 C    1.306    62 H    0.933    61 H    0.921
                            31 O    0.201
    33   1 H    0.995 --     1 C    0.962
    34   1 H    0.996 --     1 C    0.971
    35   1 H    0.997 --     1 C    0.984
    36   1 H    0.997 --     3 C    0.968
    37   1 H    0.998 --     4 C    0.969
    38   1 H    0.998 --     6 C    0.967
    39   1 H    0.997 --     7 C    0.967
    40   1 H    0.993 --     8 C    0.953
    41   1 H    0.993 --     8 C    0.958
    42   1 H    0.990 --    10 C    0.959
    43   1 H    0.991 --    11 C    0.962
    44   1 H    0.990 --    14 C    0.966
    45   1 H    0.992 --    14 C    0.962
    46   1 H    0.988 --    14 C    0.940
    47   1 H    0.992 --    15 C    0.964
    48   1 H    0.994 --    15 C    0.958
    49   1 H    0.994 --    16 C    0.963
    50   1 H    0.992 --    16 C    0.957
    51   1 H    0.999 --    19 C    0.966
    52   1 H    0.998 --    20 C    0.970
    53   1 H    0.997 --    21 C    0.970
    54   1 H    0.998 --    22 C    0.970
    55   1 H    0.999 --    23 C    0.964
    56   1 H    0.999 --    25 C    0.964
    57   1 H    0.998 --    26 C    0.970
    58   1 H    0.998 --    27 C    0.970
    59   1 H    0.998 --    28 C    0.970
    60   1 H    0.997 --    29 C    0.960
    61   1 H    0.960 --    32 N    0.921
    62   1 H    0.954 --    32 N    0.933
 ---------------------------------------------------------------------------

molecular dipole:
                 x           y           z       tot (Debye)
 q only:       -7.498      -0.628      -4.692
   full:       -7.555      -0.451      -4.968      23.011

           -------------------------------------------------
          | TOTAL ENERGY              -87.746005241890 Eh   |
          | GRADIENT NORM               0.000317876431 Eh/α |
          | HOMO-LUMO GAP               2.782706434470 eV   |
           -------------------------------------------------

 * finished run on 2024/12/20 at 02:02:59.100
