   * xtb version 6.7.1 (edcfbbe) compiled by 'conda@3ef47c1a292c' on 2024-11-25

   ID    Z sym.   atoms
    1    6 C      1, 2, 4, 5
    2    7 N      3, 6-8
    3    1 H      9-17

          program call               : xtb C0008.xyz --opt --namespace C0008 --charge +1
          :  Hamiltonian                  GFN2-xTB          :
 * total energy  :   -24.3850511 Eh     change       -0.4846612E-10 Eh
 * total energy  :   -24.3950826 Eh     change       -0.1003154E-01 Eh
 * total energy  :   -24.3972553 Eh     change       -0.2172692E-02 Eh
 * total energy  :   -24.3975681 Eh     change       -0.3128113E-03 Eh
 * total energy  :   -24.3977745 Eh     change       -0.2064193E-03 Eh
 * total energy  :   -24.3977929 Eh     change       -0.1835160E-04 Eh
 * total energy  :   -24.3977997 Eh     change       -0.6838404E-05 Eh
 * total energy  :   -24.3978013 Eh     change       -0.1597333E-05 Eh
   *** GEOMETRY OPTIMIZATION CONVERGED AFTER 8 ITERATIONS ***

 final structure:
================
17
 xtb: 6.7.1 (edcfbbe)
C            1.29013814449072        0.12124510578921       -0.24523404822284
C            0.44793252743120        0.10853736274134       -1.51684797526763
N            0.78268211772393       -1.02979665395961       -2.33810529521384
C            0.40669790150262       -2.30878067143612       -2.18067498972733
C            1.04089983568477       -3.01739020581020       -3.17434035298335
N            1.75649715797703       -2.09314717227815       -3.85668487685370
N            1.59534706068212       -0.90466346025915       -3.35547569887183
N            2.61774586304303       -2.30979625932686       -4.86069593678604
H            1.11325012960067       -0.76935802777630        0.35234553635036
H            1.02319732649076        0.98983907879141        0.34847541598430
H            2.34820125667659        0.18337328096944       -0.48543536429336
H           -0.61503344741301        0.05828730247659       -1.27240467044761
H            0.64520936220271        1.00104219826496       -2.11248768559917
H           -0.26187445902603       -2.63884478828114       -1.41229292771923
H            1.02776527119685       -4.05899295176942       -3.41825717444035
H            2.93895359592634       -1.46027777973727       -5.30904551539602
H            2.39211035580975       -3.07676635839877       -5.48028844051234

          :  Hamiltonian                  GFN2-xTB          :
         :: total energy             -24.397801319657 Eh    ::
         :: gradient norm              0.000397394863 Eh/a0 ::
         :: HOMO-LUMO gap              3.901186704291 eV    ::
         :: SCC energy               -24.715732087821 Eh    ::
         :: -> dispersion             -0.010449043103 Eh    ::
         :: repulsion energy           0.317930768164 Eh    ::

    * Orbital Energies and Occupations

         #    Occupation            Energy/Eh            Energy/eV
      -------------------------------------------------------------
         1        2.0000           -0.9392269             -25.5577
       ...           ...                  ...                  ...
        10        2.0000           -0.7416369             -20.1810
        11        2.0000           -0.7230161             -19.6743
        12        2.0000           -0.7154137             -19.4674
        13        2.0000           -0.6997430             -19.0410
        14        2.0000           -0.6908973             -18.8003
        15        2.0000           -0.6775387             -18.4368
        16        2.0000           -0.6611662             -17.9912
        17        2.0000           -0.6324396             -17.2096
        18        2.0000           -0.6238798             -16.9766
        19        2.0000           -0.6219062             -16.9229
        20        2.0000           -0.6061983             -16.4955
        21        2.0000           -0.5956112             -16.2074
        22        2.0000           -0.5819779             -15.8364 (HOMO)
        23                         -0.4386119             -11.9352 (LUMO)
        24                         -0.3929788             -10.6935
        25                         -0.2272132              -6.1828
        26                         -0.1624820              -4.4214
        27                         -0.1123925              -3.0584
        28                         -0.0861330              -2.3438
        29                         -0.0453010              -1.2327
        30                         -0.0375955              -1.0230
        31                         -0.0209988              -0.5714
        32                          0.0023800               0.0648
        33                          0.0116656               0.3174
       ...                                ...                  ...
        41                          0.4469584              12.1624
      -------------------------------------------------------------
                  HL-Gap            0.1433660 Eh            3.9012 eV

     #   Z          covCN         q      C6AA      α(0)
     1   6 C        3.753    -0.126    22.983     6.836
     2   6 C        3.742    -0.031    21.195     6.568
     3   7 N        3.029     0.151    18.684     6.420
     4   6 C        3.020    -0.001    28.032     8.685
     5   6 C        3.005    -0.032    28.794     8.802
     6   7 N        3.107     0.258    17.087     6.139
     7   7 N        2.152    -0.141    24.576     7.356
     8   7 N        2.716    -0.213    25.645     7.521
     9   1 H        0.925     0.067     2.115     2.274
    10   1 H        0.925     0.091     1.874     2.141
    11   1 H        0.925     0.073     2.056     2.242
    12   1 H        0.924     0.096     1.819     2.109
    13   1 H        0.924     0.108     1.712     2.046
    14   1 H        0.926     0.120     1.612     1.985
    15   1 H        0.927     0.118     1.627     1.995
    16   1 H        0.860     0.235     0.942     1.520
    17   1 H        0.860     0.226     0.982     1.552

Wiberg/Mayer (AO) data.
largest (>0.10) Wiberg bond orders for each atom

     #   Z sym  total        # sym  WBO       # sym  WBO       # sym  WBO
 ---------------------------------------------------------------------------
     1   6 C    3.975 --     2 C    0.995     9 H    0.984    11 H    0.983
                            10 H    0.974
     2   6 C    3.928 --     1 C    0.995    13 H    0.962     3 N    0.962
                            12 H    0.959
     3   7 N    3.742 --     4 C    1.318     7 N    1.275     2 C    0.962
     4   6 C    3.959 --     5 C    1.499     3 N    1.318    14 H    0.957
                             7 N    0.114
     5   6 C    3.941 --     4 C    1.499     6 N    1.250    15 H    0.958
     6   7 N    3.789 --     7 N    1.296     5 C    1.250     8 N    1.111
     7   7 N    2.970 --     6 N    1.296     3 N    1.275     4 C    0.114
                             8 N    0.112
     8   7 N    3.217 --     6 N    1.111    17 H    0.927    16 H    0.925
                             7 N    0.112
     9   1 H    0.995 --     1 C    0.984
    10   1 H    0.991 --     1 C    0.974
    11   1 H    0.995 --     1 C    0.983
    12   1 H    0.990 --     2 C    0.959
    13   1 H    0.988 --     2 C    0.962
    14   1 H    0.986 --     4 C    0.957
    15   1 H    0.986 --     5 C    0.958
    16   1 H    0.945 --     8 N    0.925
    17   1 H    0.948 --     8 N    0.927
 ---------------------------------------------------------------------------

molecular dipole:
                 x           y           z       tot (Debye)
 q only:        2.362      -3.148      -5.767
   full:        2.098      -3.432      -5.940      18.235

           -------------------------------------------------
          | TOTAL ENERGY              -24.397801319657 Eh   |
          | GRADIENT NORM               0.000397394863 Eh/α |
          | HOMO-LUMO GAP               3.901186704291 eV   |
           -------------------------------------------------

 * finished run on 2024/12/20 at 02:02:59.398
