   * xtb version 6.7.1 (edcfbbe) compiled by 'conda@3ef47c1a292c' on 2024-11-25

   ID    Z sym.   atoms
    1    6 C      1-3, 5, 7-15
    2    7 N      4, 6
    3    1 H      16-30

          program call               : xtb C0011.xyz --opt --namespace C0011 --charge +1
          :  Hamiltonian                  GFN2-xTB          :
 * total energy  :   -40.9036930 Eh     change       -0.2475716E-08 Eh
 * total energy  :   -40.9085653 Eh     change       -0.4872258E-02 Eh
 * total energy  :   -40.9091262 Eh     change       -0.5609096E-03 Eh
 * total energy  :   -40.9092354 Eh     change       -0.1092128E-03 Eh
 * total energy  :   -40.9093029 Eh     change       -0.6748458E-04 Eh
 * total energy  :   -40.9093458 Eh     change       -0.4288531E-04 Eh
 * total energy  :   -40.9093654 Eh     change       -0.1964930E-04 Eh
 * total energy  :   -40.9094336 Eh     change       -0.6818888E-04 Eh
 * total energy  :   -40.9094385 Eh     change       -0.4910860E-05 Eh
 * total energy  :   -40.9094688 Eh     change       -0.3028301E-04 Eh
 * total energy  :   -40.9104475 Eh     change       -0.1992595E-04 Eh
 * total energy  :   -40.9104632 Eh     change       -0.1563286E-04 Eh
 * total energy  :   -40.9104724 Eh     change       -0.9231143E-05 Eh
 * total energy  :   -40.9104797 Eh     change       -0.7329084E-05 Eh
 * total energy  :   -40.9104928 Eh     change       -0.1305860E-04 Eh
 * total energy  :   -40.9105003 Eh     change       -0.7503478E-05 Eh
 * total energy  :   -40.9105032 Eh     change       -0.2963752E-05 Eh
 * total energy  :   -40.9105083 Eh     change       -0.5042975E-05 Eh
 * total energy  :   -40.9105116 Eh     change       -0.3332762E-05 Eh
   *** GEOMETRY OPTIMIZATION CONVERGED AFTER 46 ITERATIONS ***

 final structure:
================
30
 xtb: 6.7.1 (edcfbbe)
C            1.06223532939601       -0.32048379151583       -0.07078219883987
C            0.49744266704161        0.09516583572566       -1.18823394234307
C           -0.98691628323644        0.20885251617151       -1.38114418680405
N           -1.37076802993164        1.55378926190895       -1.76663194736023
C           -0.73615672920534        2.67188560955641       -1.43073385123680
N           -1.33575705775476        3.74172935902560       -1.93996959803639
C           -2.44113605083369        3.30908887560193       -2.64258575261410
C           -2.46341809722569        1.90464550863613       -2.53210784751413
C           -3.46276842637880        1.14967755729899       -3.13571854136047
C           -4.42234056394714        1.83892627930677       -3.84715132412984
C           -4.39731510689460        3.23270936776038       -3.96069019379305
C           -3.41310111165400        3.99264012552877       -3.36450329986323
C           -0.95425103556881        5.12188297375442       -1.72081949063253
C           -1.79529494973066        5.73622325871002       -0.63233654720620
C           -1.29250601481230        6.24577104670742        0.47477601956573
H            0.48280386892034       -0.59872352933662        0.79394975220416
H            2.12962345554458       -0.41625323236534        0.01930112852529
H            1.09291685486255        0.35783917801960       -2.05223330055443
H           -1.30943243261479       -0.46660339674322       -2.17927856600527
H           -1.51383230248263       -0.06572151497857       -0.46116334758758
H            0.15237293971238        2.69998596512996       -0.82806758560012
H           -3.49280605989655        0.07585795023337       -3.05163948391665
H           -5.21509656824990        1.29052780781706       -4.33017072795658
H           -5.17049155175252        3.72365064025883       -4.52961196539645
H           -3.40166549866130        5.06630339313043       -3.45557552875341
H            0.10218143000742        5.15463978042780       -1.44850555244997
H           -1.09713646745424        5.66580156138018       -2.65936499749219
H           -2.86046860247734        5.73498921179881       -0.81570020157915
H           -1.92121979261909        6.69063674434782        1.22523190158189
H           -0.23304781210476        6.25805565670252        0.67128117714957

          :  Hamiltonian                  GFN2-xTB          :
         :: total energy             -40.910511617822 Eh    ::
         :: gradient norm              0.000348533882 Eh/a0 ::
         :: HOMO-LUMO gap              3.453684574937 eV    ::
         :: SCC energy               -41.634009629493 Eh    ::
         :: -> dispersion             -0.027033216402 Eh    ::
         :: repulsion energy           0.723498011671 Eh    ::

    * Orbital Energies and Occupations

         #    Occupation            Energy/Eh            Energy/eV
      -------------------------------------------------------------
         1        2.0000           -0.8808271             -23.9685
       ...           ...                  ...                  ...
        26        2.0000           -0.6267718             -17.0553
        27        2.0000           -0.6177244             -16.8091
        28        2.0000           -0.6081519             -16.5487
        29        2.0000           -0.5959783             -16.2174
        30        2.0000           -0.5905839             -16.0706
        31        2.0000           -0.5814947             -15.8233
        32        2.0000           -0.5746498             -15.6370
        33        2.0000           -0.5659761             -15.4010
        34        2.0000           -0.5652770             -15.3820
        35        2.0000           -0.5551426             -15.1062
        36        2.0000           -0.5475605             -14.8999
        37        2.0000           -0.5438344             -14.7985
        38        2.0000           -0.5418599             -14.7448 (HOMO)
        39                         -0.4149393             -11.2911 (LUMO)
        40                         -0.3653181              -9.9408
        41                         -0.3569872              -9.7141
        42                         -0.3448296              -9.3833
        43                         -0.3403712              -9.2620
        44                         -0.2392680              -6.5108
        45                         -0.1720129              -4.6807
        46                         -0.1260704              -3.4306
        47                         -0.0688360              -1.8731
        48                         -0.0407480              -1.1088
        49                         -0.0331104              -0.9010
       ...                                ...                  ...
        75                          0.5379433              14.6382
      -------------------------------------------------------------
                  HL-Gap            0.1269206 Eh            3.4537 eV

     #   Z          covCN         q      C6AA      α(0)
     1   6 C        2.837    -0.080    29.988     8.974
     2   6 C        2.886    -0.044    29.101     8.844
     3   6 C        3.745    -0.020    20.997     6.537
     4   7 N        2.829     0.032    20.680     6.754
     5   6 C        3.073     0.067    26.428     8.429
     6   7 N        2.829     0.034    20.655     6.750
     7   6 C        3.121     0.041    26.905     8.495
     8   6 C        3.119     0.039    26.968     8.505
     9   6 C        2.908    -0.032    28.805     8.801
    10   6 C        2.925    -0.017    28.433     8.745
    11   6 C        2.925    -0.017    28.446     8.747
    12   6 C        2.908    -0.032    28.786     8.798
    13   6 C        3.745    -0.019    20.989     6.535
    14   6 C        2.887    -0.040    29.003     8.829
    15   6 C        2.837    -0.079    29.963     8.970
    16   1 H        0.926     0.067     2.122     2.278
    17   1 H        0.926     0.077     2.009     2.217
    18   1 H        0.925     0.057     2.238     2.339
    19   1 H        0.924     0.093     1.853     2.129
    20   1 H        0.924     0.089     1.890     2.150
    21   1 H        0.926     0.105     1.737     2.061
    22   1 H        0.926     0.071     2.075     2.253
    23   1 H        0.926     0.081     1.966     2.193
    24   1 H        0.926     0.081     1.968     2.194
    25   1 H        0.926     0.073     2.053     2.240
    26   1 H        0.924     0.083     1.949     2.183
    27   1 H        0.924     0.091     1.868     2.137
    28   1 H        0.926     0.058     2.221     2.330
    29   1 H        0.926     0.078     1.999     2.211
    30   1 H        0.926     0.065     2.144     2.290

Wiberg/Mayer (AO) data.
largest (>0.10) Wiberg bond orders for each atom

     #   Z sym  total        # sym  WBO       # sym  WBO       # sym  WBO
 ---------------------------------------------------------------------------
     1   6 C    3.983 --     2 C    1.986    17 H    0.972    16 H    0.972
     2   6 C    3.982 --     1 C    1.986     3 C    1.010    18 H    0.963
     3   6 C    3.941 --     2 C    1.010     4 N    0.960    20 H    0.950
                            19 H    0.950
     4   7 N    3.683 --     5 C    1.370     8 C    1.129     3 C    0.960
                             6 N    0.104
     5   6 C    3.955 --     4 N    1.370     6 N    1.370    21 H    0.952
     6   7 N    3.684 --     5 C    1.370     7 C    1.129    13 C    0.961
                             4 N    0.104
     7   6 C    3.952 --    12 C    1.337     8 C    1.272     6 N    1.129
     8   6 C    3.952 --     9 C    1.337     7 C    1.272     4 N    1.129
     9   6 C    3.986 --    10 C    1.497     8 C    1.337    22 H    0.963
                            12 C    0.119
    10   6 C    3.986 --     9 C    1.497    11 C    1.375    23 H    0.966
    11   6 C    3.985 --    12 C    1.497    10 C    1.375    24 H    0.966
    12   6 C    3.986 --    11 C    1.497     7 C    1.337    25 H    0.963
                             9 C    0.119
    13   6 C    3.941 --    14 C    0.995    26 H    0.965     6 N    0.961
                            27 H    0.951
    14   6 C    3.981 --    15 C    1.989    13 C    0.995    28 H    0.963
    15   6 C    3.984 --    14 C    1.989    30 H    0.972    29 H    0.970
    16   1 H    0.996 --     1 C    0.972
    17   1 H    0.993 --     1 C    0.972
    18   1 H    0.997 --     2 C    0.963
    19   1 H    0.991 --     3 C    0.950
    20   1 H    0.991 --     3 C    0.950
    21   1 H    0.988 --     5 C    0.952
    22   1 H    0.994 --     9 C    0.963
    23   1 H    0.993 --    10 C    0.966
    24   1 H    0.993 --    11 C    0.966
    25   1 H    0.994 --    12 C    0.963
    26   1 H    0.992 --    13 C    0.965
    27   1 H    0.991 --    13 C    0.951
    28   1 H    0.997 --    14 C    0.963
    29   1 H    0.993 --    15 C    0.970
    30   1 H    0.996 --    15 C    0.972
 ---------------------------------------------------------------------------

molecular dipole:
                 x           y           z       tot (Debye)
 q only:       -3.024       5.058      -3.451
   full:       -2.896       5.023      -3.425      17.118

           -------------------------------------------------
          | TOTAL ENERGY              -40.910511617822 Eh   |
          | GRADIENT NORM               0.000348533882 Eh/α |
          | HOMO-LUMO GAP               3.453684574937 eV   |
           -------------------------------------------------

 * finished run on 2024/12/20 at 02:03:02.594
