   * xtb version 6.7.1 (edcfbbe) compiled by 'conda@3ef47c1a292c' on 2024-11-25

   ID    Z sym.   atoms
    1    6 C      1, 3, 4, 6-8, 10-16
    2    7 N      2, 5
    3    8 O      9
    4    1 H      17-31

          program call               : xtb C0019.xyz --opt --namespace C0019 --charge +1
          :  Hamiltonian                  GFN2-xTB          :
 * total energy  :   -45.0013531 Eh     change       -0.5283312E-09 Eh
 * total energy  :   -45.0069865 Eh     change       -0.5633448E-02 Eh
 * total energy  :   -45.0083675 Eh     change       -0.1380988E-02 Eh
 * total energy  :   -45.0085719 Eh     change       -0.2043789E-03 Eh
 * total energy  :   -45.0087145 Eh     change       -0.1425710E-03 Eh
 * total energy  :   -45.0088090 Eh     change       -0.9450492E-04 Eh
 * total energy  :   -45.0089642 Eh     change       -0.1552339E-03 Eh
 * total energy  :   -45.0091992 Eh     change       -0.2350097E-03 Eh
 * total energy  :   -45.0094953 Eh     change       -0.2960220E-03 Eh
 * total energy  :   -45.0098618 Eh     change       -0.3665183E-03 Eh
 * total energy  :   -45.0133136 Eh     change       -0.6226814E-04 Eh
 * total energy  :   -45.0133201 Eh     change       -0.6551753E-05 Eh
 * total energy  :   -45.0133698 Eh     change       -0.4968185E-04 Eh
 * total energy  :   -45.0133877 Eh     change       -0.1787831E-04 Eh
 * total energy  :   -45.0134172 Eh     change       -0.2954588E-04 Eh
 * total energy  :   -45.0134245 Eh     change       -0.7314606E-05 Eh
 * total energy  :   -45.0134325 Eh     change       -0.7941071E-05 Eh
 * total energy  :   -45.0134381 Eh     change       -0.5587287E-05 Eh
 * total energy  :   -45.0134414 Eh     change       -0.3381434E-05 Eh
   *** GEOMETRY OPTIMIZATION CONVERGED AFTER 41 ITERATIONS ***

 final structure:
================
31
 xtb: 6.7.1 (edcfbbe)
C            1.62334811191543       -0.87661557179476        1.27490598608705
N            1.22330786002538        0.50355333163181        1.21927604799637
C            1.81087466042149        1.46551949332772        0.45277882693983
C            1.13750851929286        2.62605103232217        0.67422663022150
N            0.15536815306643        2.35942811874685        1.58159921216723
C            0.22093575591866        1.06378189893679        1.88880867752688
C           -0.91066358078020        3.24542436397411        1.98059490848109
C           -2.24660819106321        2.60829732921648        1.49788162440449
O           -2.24189356881329        1.43758205748789        1.18795969783678
C           -3.43976671444914        3.45071448210253        1.50085550500020
C           -4.67049551135571        2.80178720920679        1.32919842453154
C           -5.84994882230748        3.51711297680810        1.33773514628452
C           -5.82107464824182        4.89287161017909        1.51000571323545
C           -4.60794939631264        5.54912364851525        1.66476973628391
C           -3.42275516571596        4.84086254723370        1.66219181441413
C           -0.95413056193875        3.42290998327651        3.49904083022788
H            1.59187038277977       -1.31406639013510        0.27668547362932
H            0.94936827245796       -1.42913899985242        1.92508857404637
H            2.64086738513074       -0.95890044953241        1.65887502364611
H            2.64710055239978        1.26339421953185       -0.18459034535879
H            1.29135552291910        3.60072353447487        0.25856779191305
H           -0.42385150381521        0.54967436066456        2.57281813436312
H           -0.73998650842516        4.20483095821533        1.48732789955809
H           -4.67236290385773        1.73034772194439        1.20051856301465
H           -6.79096073054226        3.00516746263922        1.21094593558940
H           -6.74110434447157        5.45638116453760        1.51776745629128
H           -4.58889004465784        6.62161565867114        1.78669617046710
H           -2.49544890271266        5.38192519514091        1.76814904855934
H           -0.00563245470720        3.81317506578222        3.86134908766854
H           -1.74082076634744        4.12207524359465        3.76682514637478
H           -1.15955085581327        2.47855074315514        3.99638725860899

          :  Hamiltonian                  GFN2-xTB          :
         :: total energy             -45.013441439916 Eh    ::
         :: gradient norm              0.000923100917 Eh/a0 ::
         :: HOMO-LUMO gap              3.108691089337 eV    ::
         :: SCC energy               -45.729750326718 Eh    ::
         :: -> dispersion             -0.028427068260 Eh    ::
         :: repulsion energy           0.716308886802 Eh    ::

    * Orbital Energies and Occupations

         #    Occupation            Energy/Eh            Energy/eV
      -------------------------------------------------------------
         1        2.0000           -0.8821176             -24.0036
       ...           ...                  ...                  ...
        29        2.0000           -0.6151258             -16.7384
        30        2.0000           -0.6071053             -16.5202
        31        2.0000           -0.6042900             -16.4436
        32        2.0000           -0.5967523             -16.2385
        33        2.0000           -0.5950537             -16.1922
        34        2.0000           -0.5938639             -16.1599
        35        2.0000           -0.5906033             -16.0711
        36        2.0000           -0.5748567             -15.6426
        37        2.0000           -0.5517141             -15.0129
        38        2.0000           -0.5362484             -14.5921
        39        2.0000           -0.5275917             -14.3565
        40        2.0000           -0.5257996             -14.3077
        41        2.0000           -0.5233541             -14.2412 (HOMO)
        42                         -0.4091118             -11.1325 (LUMO)
        43                         -0.3919187             -10.6646
        44                         -0.3600715              -9.7980
        45                         -0.3398647              -9.2482
        46                         -0.3137043              -8.5363
        47                         -0.2039484              -5.5497
        48                         -0.1747404              -4.7549
        49                         -0.1236360              -3.3643
        50                         -0.0848124              -2.3079
        51                         -0.0497452              -1.3536
        52                         -0.0400609              -1.0901
       ...                                ...                  ...
        79                          0.5499889              14.9660
      -------------------------------------------------------------
                  HL-Gap            0.1142423 Eh            3.1087 eV

     #   Z          covCN         q      C6AA      α(0)
     1   6 C        3.692    -0.085    22.312     6.759
     2   7 N        2.868     0.075    19.929     6.630
     3   6 C        3.069    -0.009    28.170     8.703
     4   6 C        3.068    -0.008    28.144     8.699
     5   7 N        2.874     0.063    20.148     6.667
     6   6 C        3.093     0.061    26.528     8.442
     7   6 C        3.791     0.003    20.536     6.454
     8   6 C        2.826     0.224    23.290     7.908
     9   8 O        0.857    -0.361    20.920     6.132
    10   6 C        2.970    -0.015    28.388     8.740
    11   6 C        2.928    -0.009    28.253     8.717
    12   6 C        2.916    -0.018    28.447     8.746
    13   6 C        2.920    -0.007    28.188     8.706
    14   6 C        2.917    -0.020    28.500     8.754
    15   6 C        2.918    -0.026    28.656     8.778
    16   6 C        3.755    -0.122    22.886     6.821
    17   1 H        0.924     0.107     1.727     2.055
    18   1 H        0.925     0.100     1.788     2.091
    19   1 H        0.924     0.103     1.757     2.073
    20   1 H        0.926     0.107     1.725     2.054
    21   1 H        0.926     0.101     1.778     2.085
    22   1 H        0.926     0.123     1.590     1.972
    23   1 H        0.924     0.085     1.933     2.174
    24   1 H        0.926     0.073     2.049     2.238
    25   1 H        0.926     0.066     2.127     2.281
    26   1 H        0.926     0.068     2.112     2.273
    27   1 H        0.926     0.061     2.183     2.311
    28   1 H        0.926     0.043     2.410     2.428
    29   1 H        0.925     0.071     2.070     2.250
    30   1 H        0.925     0.082     1.959     2.189
    31   1 H        0.925     0.064     2.154     2.295

Wiberg/Mayer (AO) data.
largest (>0.10) Wiberg bond orders for each atom

     #   Z sym  total        # sym  WBO       # sym  WBO       # sym  WBO
 ---------------------------------------------------------------------------
     1   6 C    3.935 --     2 N    0.991    18 H    0.976    19 H    0.963
                            17 H    0.963
     2   7 N    3.716 --     6 C    1.361     3 C    1.219     1 C    0.991
     3   6 C    3.948 --     4 C    1.602     2 N    1.219    20 H    0.962
     4   6 C    3.949 --     3 C    1.602     5 N    1.215    21 H    0.962
     5   7 N    3.705 --     6 C    1.345     4 C    1.215     7 C    0.973
     6   6 C    3.945 --     2 N    1.361     5 N    1.345    22 H    0.951
     7   6 C    3.946 --    16 C    0.982     5 N    0.973    23 H    0.949
                             8 C    0.913
     8   6 C    3.927 --     9 O    1.801    10 C    1.079     7 C    0.913
     9   8 O    2.101 --     8 C    1.801
    10   6 C    3.982 --    15 C    1.353    11 C    1.348     8 C    1.079
    11   6 C    3.984 --    12 C    1.465    10 C    1.348    24 H    0.964
    12   6 C    3.988 --    11 C    1.465    13 C    1.427    25 H    0.967
                            15 C    0.102
    13   6 C    3.985 --    12 C    1.427    14 C    1.418    26 H    0.968
    14   6 C    3.990 --    15 C    1.472    13 C    1.418    27 H    0.968
    15   6 C    3.991 --    14 C    1.472    10 C    1.353    28 H    0.964
                            12 C    0.102
    16   6 C    3.979 --    31 H    0.983     7 C    0.982    29 H    0.979
                            30 H    0.976
    17   1 H    0.988 --     1 C    0.963
    18   1 H    0.990 --     1 C    0.976
    19   1 H    0.989 --     1 C    0.963
    20   1 H    0.988 --     3 C    0.962
    21   1 H    0.989 --     4 C    0.962
    22   1 H    0.985 --     6 C    0.951
    23   1 H    0.992 --     7 C    0.949
    24   1 H    0.995 --    11 C    0.964
    25   1 H    0.995 --    12 C    0.967
    26   1 H    0.995 --    13 C    0.968
    27   1 H    0.996 --    14 C    0.968
    28   1 H    0.998 --    15 C    0.964
    29   1 H    0.994 --    16 C    0.979
    30   1 H    0.993 --    16 C    0.976
    31   1 H    0.996 --    16 C    0.983
 ---------------------------------------------------------------------------

molecular dipole:
                 x           y           z       tot (Debye)
 q only:       -0.434       4.122       3.152
   full:       -0.378       4.252       3.161      13.500

           -------------------------------------------------
          | TOTAL ENERGY              -45.013441439916 Eh   |
          | GRADIENT NORM               0.000923100917 Eh/α |
          | HOMO-LUMO GAP               3.108691089337 eV   |
           -------------------------------------------------

 * finished run on 2024/12/20 at 02:03:10.393
