   * xtb version 6.7.1 (edcfbbe) compiled by 'conda@3ef47c1a292c' on 2024-11-25

   ID    Z sym.   atoms
    1    6 C      1-4, 6, 8-10
    2    7 N      5, 7
    3    1 H      11-21

          program call               : xtb C0016.xyz --opt --namespace C0016 --charge +1
          :  Hamiltonian                  GFN2-xTB          :
 * total energy  :   -28.1206350 Eh     change       -0.1626471E-08 Eh
 * total energy  :   -28.1458799 Eh     change       -0.2524491E-01 Eh
 * total energy  :   -28.1496447 Eh     change       -0.3764785E-02 Eh
 * total energy  :   -28.1500390 Eh     change       -0.3943447E-03 Eh
 * total energy  :   -28.1500994 Eh     change       -0.6039341E-04 Eh
 * total energy  :   -28.1501333 Eh     change       -0.3386222E-04 Eh
 * total energy  :   -28.1501404 Eh     change       -0.7184811E-05 Eh
 * total energy  :   -28.1501472 Eh     change       -0.6723317E-05 Eh
 * total energy  :   -28.1501548 Eh     change       -0.7595791E-05 Eh
 * total energy  :   -28.1501631 Eh     change       -0.8296354E-05 Eh
 * total energy  :   -28.1501713 Eh     change       -0.8215601E-05 Eh
 * total energy  :   -28.1501754 Eh     change       -0.4137759E-05 Eh
   *** GEOMETRY OPTIMIZATION CONVERGED AFTER 12 ITERATIONS ***

 final structure:
================
21
 xtb: 6.7.1 (edcfbbe)
C            0.92136673190051        0.04379280021078        0.02931991484640
C            0.42876373825756       -0.34368991382887        1.34165129577191
C            0.01997659745944       -0.65578550097895        2.42544169478733
C           -0.45548938470082       -1.05700231588445        3.72240810710093
N            0.48980855037376        1.39424311420268       -0.29416194295539
C            1.09663080794510        2.51635493625690        0.07817214160859
N            0.38459741929200        3.56227561107437       -0.33686304746457
C           -0.71172850976425        3.08989108129330       -0.98935090542928
C           -0.64732136192031        1.72876010153638       -0.95937463711106
C            0.71864321017283        4.94646803944935       -0.12937289787617
H            0.53101510964685       -0.63722248506632       -0.73227802051761
H            2.01500083464062        0.00712534333479        0.01560910525504
H           -1.54298188165509       -1.10895826564888        3.72296059220183
H           -0.05463880876577       -2.03947256910037        3.96676947709655
H           -0.12938024847660       -0.34450846299893        4.47852078798859
H            2.01613782294780        2.57046970702216        0.62882984244510
H           -1.44810858366330        3.73410208761644       -1.42485595996273
H           -1.32029290134058        0.99690280698150       -1.35773284954819
H            0.75127064474405        5.17344157196317        0.93679983244783
H            1.69330202504350        5.17182970987473       -0.56312390134192
H           -0.03234181213734        5.57549260269045       -0.60150862934317

          :  Hamiltonian                  GFN2-xTB          :
         :: total energy             -28.150175415202 Eh    ::
         :: gradient norm              0.000497300405 Eh/a0 ::
         :: HOMO-LUMO gap              3.153919368711 eV    ::
         :: SCC energy               -28.663489576152 Eh    ::
         :: -> dispersion             -0.013727225548 Eh    ::
         :: repulsion energy           0.513314160951 Eh    ::

    * Orbital Energies and Occupations

         #    Occupation            Energy/Eh            Energy/eV
      -------------------------------------------------------------
         1        2.0000           -0.8975037             -24.4223
       ...           ...                  ...                  ...
        14        2.0000           -0.6895028             -18.7623
        15        2.0000           -0.6750267             -18.3684
        16        2.0000           -0.6621616             -18.0183
        17        2.0000           -0.6500798             -17.6896
        18        2.0000           -0.6431681             -17.5015
        19        2.0000           -0.6393868             -17.3986
        20        2.0000           -0.6144445             -16.7199
        21        2.0000           -0.5994096             -16.3108
        22        2.0000           -0.5983922             -16.2831
        23        2.0000           -0.5939390             -16.1619
        24        2.0000           -0.5877861             -15.9945
        25        2.0000           -0.5302996             -14.4302
        26        2.0000           -0.5248557             -14.2821 (HOMO)
        27                         -0.4089513             -11.1281 (LUMO)
        28                         -0.3713601             -10.1052
        29                         -0.2895877              -7.8801
        30                         -0.2742042              -7.4615
        31                         -0.1750629              -4.7637
        32                         -0.1246111              -3.3908
        33                         -0.0716590              -1.9499
        34                         -0.0498318              -1.3560
        35                         -0.0485739              -1.3218
        36                         -0.0184710              -0.5026
        37                         -0.0032762              -0.0891
       ...                                ...                  ...
        51                          1.2822601              34.8921
      -------------------------------------------------------------
                  HL-Gap            0.1159044 Eh            3.1539 eV

     #   Z          covCN         q      C6AA      α(0)
     1   6 C        3.743    -0.003    20.703     6.491
     2   6 C        1.968    -0.078    33.194     9.304
     3   6 C        1.961    -0.007    31.262     9.029
     4   6 C        3.754    -0.101    22.488     6.762
     5   7 N        2.876     0.074    19.959     6.635
     6   6 C        3.100     0.045    26.868     8.494
     7   7 N        2.868     0.077    19.901     6.626
     8   6 C        3.075    -0.007    28.124     8.695
     9   6 C        3.072    -0.005    28.062     8.686
    10   6 C        3.692    -0.087    22.350     6.765
    11   1 H        0.924     0.102     1.770     2.081
    12   1 H        0.924     0.095     1.829     2.115
    13   1 H        0.925     0.081     1.970     2.195
    14   1 H        0.925     0.087     1.907     2.159
    15   1 H        0.925     0.079     1.990     2.206
    16   1 H        0.926     0.114     1.659     2.014
    17   1 H        0.926     0.109     1.704     2.041
    18   1 H        0.926     0.110     1.695     2.036
    19   1 H        0.924     0.104     1.749     2.068
    20   1 H        0.924     0.104     1.751     2.069
    21   1 H        0.925     0.107     1.721     2.051

Wiberg/Mayer (AO) data.
largest (>0.10) Wiberg bond orders for each atom

     #   Z sym  total        # sym  WBO       # sym  WBO       # sym  WBO
 ---------------------------------------------------------------------------
     1   6 C    3.937 --     2 C    1.027    11 H    0.948    12 H    0.948
                             5 N    0.947
     2   6 C    3.966 --     3 C    2.786     1 C    1.027
     3   6 C    3.977 --     2 C    2.786     4 C    1.084
     4   6 C    3.989 --     3 C    1.084    15 H    0.955    13 H    0.955
                            14 H    0.951
     5   7 N    3.720 --     6 C    1.368     9 C    1.237     1 C    0.947
     6   6 C    3.946 --     5 N    1.368     7 N    1.358    16 H    0.954
     7   7 N    3.722 --     6 C    1.358     8 C    1.233    10 C    0.989
     8   6 C    3.948 --     9 C    1.583     7 N    1.233    17 H    0.960
     9   6 C    3.950 --     8 C    1.583     5 N    1.237    18 H    0.961
    10   6 C    3.933 --     7 N    0.989    21 H    0.974    20 H    0.964
                            19 H    0.963
    11   1 H    0.989 --     1 C    0.948
    12   1 H    0.991 --     1 C    0.948
    13   1 H    0.993 --     4 C    0.955
    14   1 H    0.991 --     4 C    0.951
    15   1 H    0.993 --     4 C    0.955
    16   1 H    0.987 --     6 C    0.954
    17   1 H    0.988 --     8 C    0.960
    18   1 H    0.988 --     9 C    0.961
    19   1 H    0.989 --    10 C    0.963
    20   1 H    0.989 --    10 C    0.964
    21   1 H    0.988 --    10 C    0.974
 ---------------------------------------------------------------------------

molecular dipole:
                 x           y           z       tot (Debye)
 q only:        0.670       4.332       0.282
   full:        0.748       4.382       0.225      11.313

           -------------------------------------------------
          | TOTAL ENERGY              -28.150175415202 Eh   |
          | GRADIENT NORM               0.000497300405 Eh/α |
          | HOMO-LUMO GAP               3.153919368711 eV   |
           -------------------------------------------------

 * finished run on 2024/12/20 at 02:03:07.449
