   * xtb version 6.7.1 (edcfbbe) compiled by 'conda@3ef47c1a292c' on 2024-11-25

   ID    Z sym.   atoms
    1    6 C      1, 4, 6-9
    2    7 N      2, 3, 5
    3    1 H      10-21

          program call               : xtb C0014.xyz --opt --namespace C0014 --charge +1
          :  Hamiltonian                  GFN2-xTB          :
 * total energy  :   -27.3400221 Eh     change       -0.9535484E-11 Eh
 * total energy  :   -27.3433296 Eh     change       -0.3307523E-02 Eh
 * total energy  :   -27.3440622 Eh     change       -0.7326058E-03 Eh
 * total energy  :   -27.3441689 Eh     change       -0.1067279E-03 Eh
 * total energy  :   -27.3442373 Eh     change       -0.6830128E-04 Eh
 * total energy  :   -27.3442535 Eh     change       -0.1627069E-04 Eh
 * total energy  :   -27.3442695 Eh     change       -0.1599826E-04 Eh
 * total energy  :   -27.3442861 Eh     change       -0.1657719E-04 Eh
 * total energy  :   -27.3442948 Eh     change       -0.8747603E-05 Eh
 * total energy  :   -27.3443011 Eh     change       -0.6303771E-05 Eh
 * total energy  :   -27.3443039 Eh     change       -0.2727935E-05 Eh
   *** GEOMETRY OPTIMIZATION CONVERGED AFTER 11 ITERATIONS ***

 final structure:
================
21
 xtb: 6.7.1 (edcfbbe)
C            0.94492413906183       -0.11611423087170       -0.21320745786929
N            0.65697462853954       -0.87990825153415        0.96498794372343
N            1.30308670047915       -2.01275293144198        1.21477487880714
C            0.81766714087603       -2.47045275462267        2.32672116539292
N           -0.14958655474751       -1.64321071089617        2.80534711914065
C           -0.22637738297331       -0.64035314370575        1.92347204482245
C           -0.86593562477746       -1.77664890123086        4.05262199221776
C           -0.02897303054665       -1.24734852445981        5.22418533667546
C            0.20950041505207        0.25436086718296        5.14191129753823
H            0.47675872529837        0.86298674723259       -0.15035653896971
H            0.57631730243195       -0.64364642233751       -1.09456616891185
H            2.02511880977310       -0.01049984991864       -0.31327631787511
H            1.13549513575443       -3.37949103708510        2.79598982882089
H           -0.89048744089931        0.19982857319164        1.98068541145389
H           -1.79969661859560       -1.21649716685347        3.97634458752467
H           -1.09386251724914       -2.83383297796924        4.20167193167836
H           -0.57125259581001       -1.47811537519516        6.14071416344951
H            0.92503438860136       -1.77637969409780        5.25936969266909
H           -0.73333244547425        0.79528208274752        5.11429544592448
H            0.75850377237827        0.58510378960279        6.01824285765024
H            0.79671305282719        0.52247991226272        4.26495078613678

          :  Hamiltonian                  GFN2-xTB          :
         :: total energy             -27.344303876282 Eh    ::
         :: gradient norm              0.000275618185 Eh/a0 ::
         :: HOMO-LUMO gap              3.990800505042 eV    ::
         :: SCC energy               -27.729227750104 Eh    ::
         :: -> dispersion             -0.013837707692 Eh    ::
         :: repulsion energy           0.384923873822 Eh    ::

    * Orbital Energies and Occupations

         #    Occupation            Energy/Eh            Energy/eV
      -------------------------------------------------------------
         1        2.0000           -0.9321992             -25.3664
       ...           ...                  ...                  ...
        13        2.0000           -0.7115294             -19.3617
        14        2.0000           -0.6943705             -18.8948
        15        2.0000           -0.6890924             -18.7512
        16        2.0000           -0.6663868             -18.1333
        17        2.0000           -0.6558305             -17.8461
        18        2.0000           -0.6525801             -17.7576
        19        2.0000           -0.6357771             -17.3004
        20        2.0000           -0.6311999             -17.1758
        21        2.0000           -0.6202625             -16.8782
        22        2.0000           -0.6024702             -16.3940
        23        2.0000           -0.5978351             -16.2679
        24        2.0000           -0.5853248             -15.9275
        25        2.0000           -0.5801131             -15.7857 (HOMO)
        26                         -0.4334539             -11.7949 (LUMO)
        27                         -0.4089144             -11.1271
        28                         -0.2054140              -5.5896
        29                         -0.1526230              -4.1531
        30                         -0.0971942              -2.6448
        31                         -0.0718928              -1.9563
        32                         -0.0535341              -1.4567
        33                         -0.0322839              -0.8785
        34                         -0.0170374              -0.4636
        35                         -0.0101727              -0.2768
        36                         -0.0029750              -0.0810
       ...                                ...                  ...
        48                          0.3542690               9.6402
      -------------------------------------------------------------
                  HL-Gap            0.1466592 Eh            3.9908 eV

     #   Z          covCN         q      C6AA      α(0)
     1   6 C        3.692    -0.097    22.551     6.795
     2   7 N        3.056     0.162    18.513     6.390
     3   7 N        2.045    -0.143    24.777     7.383
     4   6 C        3.150     0.088    25.789     8.306
     5   7 N        2.854     0.057    20.247     6.683
     6   6 C        3.070     0.050    26.811     8.490
     7   6 C        3.740    -0.027    21.128     6.558
     8   6 C        3.801    -0.067    21.776     6.644
     9   6 C        3.752    -0.117    22.809     6.811
    10   1 H        0.925     0.107     1.726     2.055
    11   1 H        0.924     0.124     1.578     1.964
    12   1 H        0.925     0.129     1.542     1.942
    13   1 H        0.926     0.123     1.587     1.970
    14   1 H        0.926     0.125     1.570     1.959
    15   1 H        0.924     0.091     1.870     2.138
    16   1 H        0.924     0.093     1.850     2.127
    17   1 H        0.925     0.082     1.960     2.189
    18   1 H        0.924     0.060     2.199     2.319
    19   1 H        0.925     0.054     2.272     2.357
    20   1 H        0.925     0.073     2.054     2.241
    21   1 H        0.925     0.032     2.552     2.498

Wiberg/Mayer (AO) data.
largest (>0.10) Wiberg bond orders for each atom

     #   Z sym  total        # sym  WBO       # sym  WBO       # sym  WBO
 ---------------------------------------------------------------------------
     1   6 C    3.921 --     2 N    0.989    10 H    0.973    12 H    0.957
                            11 H    0.950
     2   7 N    3.754 --     6 C    1.401     3 N    1.211     1 C    0.989
     3   7 N    3.025 --     4 C    1.591     2 N    1.211
     4   6 C    3.949 --     3 N    1.591     5 N    1.245    13 H    0.953
     5   7 N    3.717 --     6 C    1.336     4 C    1.245     7 C    0.964
     6   6 C    3.949 --     2 N    1.401     5 N    1.336    14 H    0.951
     7   6 C    3.930 --     8 C    0.979    15 H    0.965     5 N    0.964
                            16 H    0.961
     8   6 C    3.982 --     9 C    1.023     7 C    0.979    18 H    0.974
                            17 H    0.966
     9   6 C    3.991 --     8 C    1.023    21 H    0.986    19 H    0.985
                            20 H    0.980
    10   1 H    0.989 --     1 C    0.973
    11   1 H    0.984 --     1 C    0.950
    12   1 H    0.983 --     1 C    0.957
    13   1 H    0.985 --     4 C    0.953
    14   1 H    0.984 --     6 C    0.951
    15   1 H    0.992 --     7 C    0.965
    16   1 H    0.991 --     7 C    0.961
    17   1 H    0.992 --     8 C    0.966
    18   1 H    0.996 --     8 C    0.974
    19   1 H    0.997 --     9 C    0.985
    20   1 H    0.995 --     9 C    0.980
    21   1 H    0.999 --     9 C    0.986
 ---------------------------------------------------------------------------

molecular dipole:
                 x           y           z       tot (Debye)
 q only:        0.148      -1.826       4.210
   full:       -0.168      -1.758       4.412      12.080

           -------------------------------------------------
          | TOTAL ENERGY              -27.344303876282 Eh   |
          | GRADIENT NORM               0.000275618185 Eh/α |
          | HOMO-LUMO GAP               3.990800505042 eV   |
           -------------------------------------------------

 * finished run on 2024/12/20 at 02:03:04.427
