   * xtb version 6.7.1 (edcfbbe) compiled by 'conda@3ef47c1a292c' on 2024-11-25

   ID    Z sym.   atoms
    1    8 O      1
    2    6 C      2-4, 6-10
    3    7 N      5
    4    1 H      11-28

          program call               : xtb C0018.xyz --opt --namespace C0018 --charge +1
          :  Hamiltonian                  GFN2-xTB          :
 * total energy  :   -32.8975248 Eh     change       -0.3944933E-10 Eh
 * total energy  :   -32.9030472 Eh     change       -0.5522374E-02 Eh
 * total energy  :   -32.9045515 Eh     change       -0.1504285E-02 Eh
 * total energy  :   -32.9046872 Eh     change       -0.1357572E-03 Eh
 * total energy  :   -32.9047951 Eh     change       -0.1078604E-03 Eh
 * total energy  :   -32.9048498 Eh     change       -0.5475423E-04 Eh
 * total energy  :   -32.9049230 Eh     change       -0.7318970E-04 Eh
 * total energy  :   -32.9049557 Eh     change       -0.3264035E-04 Eh
 * total energy  :   -32.9049761 Eh     change       -0.2043926E-04 Eh
 * total energy  :   -32.9049997 Eh     change       -0.2356004E-04 Eh
 * total energy  :   -32.9052314 Eh     change       -0.9453718E-05 Eh
 * total energy  :   -32.9052425 Eh     change       -0.1111922E-04 Eh
 * total energy  :   -32.9052557 Eh     change       -0.1317929E-04 Eh
 * total energy  :   -32.9052723 Eh     change       -0.1660823E-04 Eh
 * total energy  :   -32.9052916 Eh     change       -0.1926403E-04 Eh
 * total energy  :   -32.9053094 Eh     change       -0.1786620E-04 Eh
 * total energy  :   -32.9053221 Eh     change       -0.1266070E-04 Eh
 * total energy  :   -32.9053283 Eh     change       -0.6186866E-05 Eh
 * total energy  :   -32.9053326 Eh     change       -0.4362431E-05 Eh
   *** GEOMETRY OPTIMIZATION CONVERGED AFTER 33 ITERATIONS ***

 final structure:
================
28
 xtb: 6.7.1 (edcfbbe)
O            1.21047814173824        0.05858883360351        0.13431492138753
C            0.33302118006810       -0.99985483376844       -0.18513364281700
C            1.02351805580866       -1.96273389762389       -1.17518802841703
C            2.55179742658413       -1.93724802415764       -1.11060962475126
N            3.20288705815380       -2.82165781112296       -0.10226591606280
C            4.69454383366168       -2.65472075166063       -0.20990800063931
C            5.20628029235799       -3.89613534014863       -0.92690777986908
C            4.28158926867681       -4.97396691287761       -0.37461849253559
C            2.92923032523568       -4.26990531923879       -0.39244639041033
C            2.75882324959560       -2.47039842159226        1.25524044320850
H            0.70377113254301        0.80701623555214        0.46310057093897
H            0.03369258153402       -1.52295413144101        0.73391000767286
H           -0.58071291978448       -0.62228671670069       -0.65351689126205
H            0.62104056053873       -2.96627460144007       -1.04358135743353
H            0.76683450854439       -1.63998060622046       -2.18472729744682
H            2.95590003975256       -2.22154726486660       -2.08344436319754
H            2.84237067893911       -0.90716518874027       -0.89319270036746
H            5.11407621753599       -2.61059268501851        0.79507991325945
H            4.93833503723978       -1.72791037310816       -0.72502312742516
H            5.09196279920695       -3.80675420293884       -2.00712898945450
H            6.25400082281932       -4.08357343622805       -0.70852893902919
H            4.27239589947717       -5.87692497337501       -0.97935640534237
H            4.57250698192247       -5.24454083328447        0.64045384372522
H            2.48550860518281       -4.35135118944164       -1.38474674684665
H            2.23269661609705       -4.67884962287968        0.33683181674723
H            2.92286284093050       -1.40899932127600        1.43282159297561
H            1.69893645356229       -2.67877501006815        1.36819228364004
H            3.30847231207805       -3.05543359993758        1.99010929975356

          :  Hamiltonian                  GFN2-xTB          :
         :: total energy             -32.905332643634 Eh    ::
         :: gradient norm              0.000773721863 Eh/a0 ::
         :: HOMO-LUMO gap              8.477747137869 eV    ::
         :: SCC energy               -33.316599703855 Eh    ::
         :: -> dispersion             -0.020229362054 Eh    ::
         :: repulsion energy           0.411267060221 Eh    ::

    * Orbital Energies and Occupations

         #    Occupation            Energy/Eh            Energy/eV
      -------------------------------------------------------------
         1        2.0000           -0.8559564             -23.2918
       ...           ...                  ...                  ...
        18        2.0000           -0.6618578             -18.0101
        19        2.0000           -0.6520267             -17.7426
        20        2.0000           -0.6396843             -17.4067
        21        2.0000           -0.6363430             -17.3158
        22        2.0000           -0.6297307             -17.1358
        23        2.0000           -0.6167498             -16.7826
        24        2.0000           -0.6140158             -16.7082
        25        2.0000           -0.6093945             -16.5825
        26        2.0000           -0.6027165             -16.4008
        27        2.0000           -0.5987098             -16.2917
        28        2.0000           -0.5871297             -15.9766
        29        2.0000           -0.5856036             -15.9351
        30        2.0000           -0.5394172             -14.6783 (HOMO)
        31                         -0.2278657              -6.2005 (LUMO)
        32                         -0.1820075              -4.9527
        33                         -0.1597106              -4.3459
        34                         -0.1425986              -3.8803
        35                         -0.1008478              -2.7442
        36                         -0.0766227              -2.0850
        37                         -0.0630018              -1.7144
        38                         -0.0468213              -1.2741
        39                         -0.0349193              -0.9502
        40                         -0.0287965              -0.7836
        41                         -0.0209625              -0.5704
       ...                                ...                  ...
        58                          0.1671513               4.5484
      -------------------------------------------------------------
                  HL-Gap            0.3115515 Eh            8.4777 eV

     #   Z          covCN         q      C6AA      α(0)
     1   8 O        1.655    -0.446    21.762     6.297
     2   6 C        3.671     0.074    19.577     6.342
     3   6 C        3.798    -0.077    21.982     6.676
     4   6 C        3.756    -0.039    21.323     6.584
     5   7 N        3.627     0.117    19.240     6.515
     6   6 C        3.793    -0.039    21.277     6.569
     7   6 C        3.829    -0.072    21.860     6.652
     8   6 C        3.831    -0.072    21.861     6.652
     9   6 C        3.784    -0.037    21.245     6.565
    10   6 C        3.710    -0.092    22.399     6.764
    11   1 H        0.805     0.307     0.701     1.315
    12   1 H        0.923     0.030     2.582     2.513
    13   1 H        0.924     0.047     2.355     2.400
    14   1 H        0.925     0.058     2.228     2.334
    15   1 H        0.924     0.082     1.964     2.191
    16   1 H        0.924     0.081     1.965     2.192
    17   1 H        0.924     0.117     1.640     2.003
    18   1 H        0.925     0.092     1.856     2.130
    19   1 H        0.925     0.089     1.885     2.147
    20   1 H        0.925     0.068     2.112     2.273
    21   1 H        0.925     0.085     1.927     2.171
    22   1 H        0.925     0.083     1.944     2.180
    23   1 H        0.925     0.069     2.097     2.265
    24   1 H        0.925     0.090     1.883     2.146
    25   1 H        0.925     0.088     1.902     2.157
    26   1 H        0.925     0.109     1.707     2.043
    27   1 H        0.925     0.098     1.799     2.097
    28   1 H        0.925     0.091     1.868     2.137

Wiberg/Mayer (AO) data.
largest (>0.10) Wiberg bond orders for each atom

     #   Z sym  total        # sym  WBO       # sym  WBO       # sym  WBO
 ---------------------------------------------------------------------------
     1   8 O    1.955 --     2 C    1.002    11 H    0.891
     2   6 C    3.958 --     1 O    1.002     3 C    0.995    13 H    0.974
                            12 H    0.966
     3   6 C    3.989 --     4 C    1.010     2 C    0.995    14 H    0.972
                            15 H    0.969
     4   6 C    3.930 --     3 C    1.010    16 H    0.968    17 H    0.954
                             5 N    0.933
     5   7 N    3.804 --    10 C    0.965     4 C    0.933     9 C    0.928
                             6 C    0.925
     6   6 C    3.933 --     7 C    1.010    19 H    0.969    18 H    0.968
                             5 N    0.925
     7   6 C    3.987 --     6 C    1.010     8 C    1.005    20 H    0.975
                            21 H    0.969
     8   6 C    3.986 --     9 C    1.008     7 C    1.005    23 H    0.975
                            22 H    0.970
     9   6 C    3.936 --     8 C    1.008    25 H    0.971    24 H    0.968
                             5 N    0.928
    10   6 C    3.927 --    28 H    0.975    26 H    0.972    27 H    0.969
                             5 N    0.965
    11   1 H    0.906 --     1 O    0.891
    12   1 H    0.999 --     2 C    0.966
    13   1 H    0.997 --     2 C    0.974
    14   1 H    0.997 --     3 C    0.972
    15   1 H    0.993 --     3 C    0.969
    16   1 H    0.993 --     4 C    0.968
    17   1 H    0.986 --     4 C    0.954
    18   1 H    0.991 --     6 C    0.968
    19   1 H    0.992 --     6 C    0.969
    20   1 H    0.995 --     7 C    0.975
    21   1 H    0.993 --     7 C    0.969
    22   1 H    0.993 --     8 C    0.970
    23   1 H    0.995 --     8 C    0.975
    24   1 H    0.992 --     9 C    0.968
    25   1 H    0.992 --     9 C    0.971
    26   1 H    0.988 --    10 C    0.972
    27   1 H    0.990 --    10 C    0.969
    28   1 H    0.992 --    10 C    0.975
 ---------------------------------------------------------------------------

molecular dipole:
                 x           y           z       tot (Debye)
 q only:        5.627      -5.367      -0.332
   full:        5.338      -5.226      -0.259      18.998

           -------------------------------------------------
          | TOTAL ENERGY              -32.905332643634 Eh   |
          | GRADIENT NORM               0.000773721863 Eh/α |
          | HOMO-LUMO GAP               8.477747137869 eV   |
           -------------------------------------------------

 * finished run on 2024/12/20 at 02:03:09.284
