   * xtb version 6.7.1 (edcfbbe) compiled by 'conda@3ef47c1a292c' on 2024-11-25

   ID    Z sym.   atoms
    1    6 C      1-10, 12-16
    2    7 N      11
    3    1 H      17-42

          program call               : xtb C0012.xyz --opt --namespace C0012 --charge +1
          :  Hamiltonian                  GFN2-xTB          :
 * total energy  :   -47.9069963 Eh     change       -0.3246043E-09 Eh
 * total energy  :   -47.9095607 Eh     change       -0.2564384E-02 Eh
 * total energy  :   -47.9099829 Eh     change       -0.4221761E-03 Eh
 * total energy  :   -47.9100748 Eh     change       -0.9186567E-04 Eh
 * total energy  :   -47.9101848 Eh     change       -0.1100273E-03 Eh
 * total energy  :   -47.9102621 Eh     change       -0.7726363E-04 Eh
 * total energy  :   -47.9103344 Eh     change       -0.7239176E-04 Eh
 * total energy  :   -47.9103993 Eh     change       -0.6486012E-04 Eh
 * total energy  :   -47.9104436 Eh     change       -0.4425566E-04 Eh
 * total energy  :   -47.9104996 Eh     change       -0.5607237E-04 Eh
 * total energy  :   -47.9108974 Eh     change       -0.3663601E-04 Eh
 * total energy  :   -47.9109313 Eh     change       -0.3389655E-04 Eh
 * total energy  :   -47.9109487 Eh     change       -0.1737372E-04 Eh
 * total energy  :   -47.9109581 Eh     change       -0.9473083E-05 Eh
 * total energy  :   -47.9109700 Eh     change       -0.1189819E-04 Eh
 * total energy  :   -47.9109757 Eh     change       -0.5692673E-05 Eh
 * total energy  :   -47.9109797 Eh     change       -0.3993253E-05 Eh
 * total energy  :   -47.9109830 Eh     change       -0.3252084E-05 Eh
 * total energy  :   -47.9109874 Eh     change       -0.4456292E-05 Eh
   *** GEOMETRY OPTIMIZATION CONVERGED AFTER 25 ITERATIONS ***

 final structure:
================
42
 xtb: 6.7.1 (edcfbbe)
C            1.04918962236283        0.06204563823430        0.31294860798774
C            0.64902242830540        1.44078650570188       -0.19793567145580
C            1.11366650642766        1.71278522233632       -1.62958323229109
C            0.54235768038292        0.76434226912729       -2.68600460427001
C           -0.98496127095005        0.73633128288085       -2.77383249427770
C           -1.64080501236399        2.08941760286827       -3.05627101971016
C           -1.17520105431349        2.77894186041026       -4.34117168228912
C           -1.36236805822634        1.95795072714419       -5.62000535905920
C           -2.80127706779811        1.53513135572272       -5.91208882005826
C           -3.75211763280143        2.70587959375345       -6.20668194232774
N           -3.38273415299934        3.35811153259586       -7.44875751791862
C           -2.54941160379107        4.40347127226026       -7.43482051245077
C           -2.11335992040175        4.98704698538544       -8.60765879341850
C           -2.54797078094340        4.47571506476986       -9.82282256013946
C           -3.41540038807750        3.38995458400551       -9.81623473610352
C           -3.81188021594253        2.85116926149219       -8.61057968618014
H            0.53721147034188       -0.72617432454210       -0.23328428216281
H            0.79244063549689       -0.03655046733070        1.36480556697958
H            2.12163156253872       -0.08583175406104        0.20827701501728
H           -0.43435569092846        1.55530601335238       -0.12717307233359
H            1.09661969417835        2.19863427238146        0.44916069282565
H            0.86249656149373        2.74402621951855       -1.88887462708721
H            2.20263814960832        1.62990984562051       -1.66132579464543
H            0.96083203618990        1.04131725108898       -3.65690726702934
H            0.88445053314773       -0.24940758038773       -2.47316084986799
H           -1.27223497923588        0.01865640288921       -3.54640151343010
H           -1.38741736954490        0.36220328184860       -1.83167089150475
H           -2.72481543782991        1.95053351260783       -3.08282475822320
H           -1.43132940174020        2.76343820944690       -2.22480757427898
H           -1.69993219546759        3.73569985190827       -4.42006101346741
H           -0.11368043273058        3.01098785020236       -4.25127303697787
H           -0.96002620351337        2.52188756326728       -6.46826910574286
H           -0.76450086695843        1.05047883076186       -5.53760983565546
H           -2.80864957825065        0.84978325659129       -6.76268132850278
H           -3.20123120035297        0.99823371527298       -5.05314098390567
H           -4.77392216514652        2.33245000503921       -6.29449435577190
H           -3.71169630385075        3.43017567249960       -5.39294567499651
H           -2.23945232475702        4.77922938214055       -6.47102852908555
H           -1.44310735244730        5.83051094695708       -8.56532379388073
H           -2.22161476542674        4.91401822706757      -10.75265027697535
H           -3.78144747174352        2.96443052026838      -10.73677244241668
H           -4.48297598194064        2.00602253690292       -8.56221224291697

          :  Hamiltonian                  GFN2-xTB          :
         :: total energy             -47.910987436567 Eh    ::
         :: gradient norm              0.000370340359 Eh/a0 ::
         :: HOMO-LUMO gap              0.671763506112 eV    ::
         :: SCC energy               -48.676386166904 Eh    ::
         :: -> dispersion             -0.034558027860 Eh    ::
         :: repulsion energy           0.765398730337 Eh    ::

    * Orbital Energies and Occupations

         #    Occupation            Energy/Eh            Energy/eV
      -------------------------------------------------------------
         1        2.0000           -0.8799507             -23.9447
       ...           ...                  ...                  ...
        33        2.0000           -0.5755270             -15.6609
        34        2.0000           -0.5650640             -15.3762
        35        2.0000           -0.5600819             -15.2406
        36        2.0000           -0.5542401             -15.0816
        37        2.0000           -0.5447273             -14.8228
        38        2.0000           -0.5374685             -14.6253
        39        2.0000           -0.5305800             -14.4378
        40        2.0000           -0.5183188             -14.1042
        41        2.0000           -0.5119845             -13.9318
        42        2.0000           -0.5082973             -13.8315
        43        2.0000           -0.4902381             -13.3401
        44        2.0000           -0.4866754             -13.2431
        45        2.0000           -0.4831813             -13.1480 (HOMO)
        46        0.0000           -0.4584944             -12.4763 (LUMO)
        47                         -0.4284538             -11.6588
        48                         -0.3078001              -8.3757
        49                         -0.1682345              -4.5779
        50                         -0.0836851              -2.2772
        51                         -0.0654708              -1.7816
        52                         -0.0474377              -1.2908
        53                         -0.0381950              -1.0393
        54                         -0.0285592              -0.7771
        55                         -0.0154144              -0.4194
        56                         -0.0117420              -0.3195
       ...                                ...                  ...
        90                          0.4484477              12.2029
      -------------------------------------------------------------
                  HL-Gap            0.0246869 Eh            0.6718 eV

     #   Z          covCN         q      C6AA      α(0)
     1   6 C        3.751    -0.104    22.548     6.772
     2   6 C        3.799    -0.053    21.532     6.607
     3   6 C        3.800    -0.059    21.628     6.621
     4   6 C        3.800    -0.059    21.640     6.623
     5   6 C        3.800    -0.061    21.665     6.627
     6   6 C        3.800    -0.062    21.686     6.630
     7   6 C        3.800    -0.061    21.681     6.630
     8   6 C        3.800    -0.066    21.766     6.642
     9   6 C        3.801    -0.069    21.819     6.650
    10   6 C        3.760    -0.037    21.282     6.577
    11   7 N        2.750     0.116    19.258     6.518
    12   6 C        2.892     0.034    27.235     8.556
    13   6 C        2.916    -0.011    28.286     8.721
    14   6 C        2.925     0.013    27.718     8.634
    15   6 C        2.916    -0.010    28.267     8.718
    16   6 C        2.894     0.032    27.278     8.563
    17   1 H        0.925     0.034     2.532     2.488
    18   1 H        0.925     0.037     2.490     2.468
    19   1 H        0.925     0.037     2.484     2.465
    20   1 H        0.924     0.029     2.601     2.522
    21   1 H        0.924     0.032     2.558     2.501
    22   1 H        0.924     0.025     2.665     2.553
    23   1 H        0.924     0.035     2.519     2.482
    24   1 H        0.924     0.024     2.680     2.560
    25   1 H        0.924     0.041     2.438     2.442
    26   1 H        0.924     0.024     2.671     2.556
    27   1 H        0.924     0.044     2.392     2.418
    28   1 H        0.924     0.024     2.673     2.557
    29   1 H        0.924     0.048     2.349     2.397
    30   1 H        0.924     0.016     2.801     2.617
    31   1 H        0.924     0.052     2.296     2.369
    32   1 H        0.924     0.022     2.709     2.574
    33   1 H        0.925     0.068     2.108     2.271
    34   1 H        0.924     0.051     2.314     2.379
    35   1 H        0.925     0.086     1.919     2.166
    36   1 H        0.924     0.089     1.892     2.151
    37   1 H        0.925     0.097     1.812     2.105
    38   1 H        0.926     0.112     1.678     2.025
    39   1 H        0.926     0.107     1.718     2.050
    40   1 H        0.926     0.107     1.724     2.053
    41   1 H        0.926     0.108     1.715     2.048
    42   1 H        0.926     0.109     1.708     2.044

Wiberg/Mayer (AO) data.
largest (>0.10) Wiberg bond orders for each atom

     #   Z sym  total        # sym  WBO       # sym  WBO       # sym  WBO
 ---------------------------------------------------------------------------
     1   6 C    3.996 --     2 C    1.020    19 H    0.987    18 H    0.987
                            17 H    0.986
     2   6 C    3.998 --     1 C    1.020     3 C    1.008    21 H    0.978
                            20 H    0.976
     3   6 C    3.997 --     2 C    1.008     4 C    1.007    23 H    0.977
                            22 H    0.976
     4   6 C    3.997 --     5 C    1.008     3 C    1.007    24 H    0.975
                            25 H    0.975
     5   6 C    3.996 --     4 C    1.008     6 C    1.007    26 H    0.975
                            27 H    0.973
     6   6 C    3.995 --     5 C    1.007     7 C    1.007    28 H    0.975
                            29 H    0.973
     7   6 C    3.994 --     6 C    1.007     8 C    1.006    31 H    0.972
                            30 H    0.972
     8   6 C    3.992 --     9 C    1.010     7 C    1.006    32 H    0.972
                            33 H    0.965
     9   6 C    3.980 --     8 C    1.010    34 H    0.974    10 C    0.970
                            35 H    0.959
    10   6 C    3.932 --     9 C    0.970    11 N    0.965    36 H    0.962
                            37 H    0.959
    11   7 N    3.769 --    12 C    1.328    16 C    1.324    10 C    0.965
    12   6 C    3.957 --    13 C    1.455    11 N    1.328    38 H    0.951
    13   6 C    3.981 --    12 C    1.455    14 C    1.427    39 H    0.959
    14   6 C    3.969 --    13 C    1.427    15 C    1.417    40 H    0.961
    15   6 C    3.981 --    16 C    1.467    14 C    1.417    41 H    0.959
    16   6 C    3.959 --    15 C    1.467    11 N    1.324    42 H    0.954
    17   1 H    0.999 --     1 C    0.986
    18   1 H    0.999 --     1 C    0.987
    19   1 H    0.999 --     1 C    0.987
    20   1 H    0.999 --     2 C    0.976
    21   1 H    0.999 --     2 C    0.978
    22   1 H    0.999 --     3 C    0.976
    23   1 H    0.999 --     3 C    0.977
    24   1 H    0.999 --     4 C    0.975
    25   1 H    0.998 --     4 C    0.975
    26   1 H    0.999 --     5 C    0.975
    27   1 H    0.998 --     5 C    0.973
    28   1 H    0.999 --     6 C    0.975
    29   1 H    0.998 --     6 C    0.973
    30   1 H    1.000 --     7 C    0.972
    31   1 H    0.997 --     7 C    0.972
    32   1 H    1.000 --     8 C    0.972
    33   1 H    0.994 --     8 C    0.965
    34   1 H    0.997 --     9 C    0.974
    35   1 H    0.991 --     9 C    0.959
    36   1 H    0.992 --    10 C    0.962
    37   1 H    0.990 --    10 C    0.959
    38   1 H    0.987 --    12 C    0.951
    39   1 H    0.988 --    13 C    0.959
    40   1 H    0.989 --    14 C    0.961
    41   1 H    0.988 --    15 C    0.959
    42   1 H    0.988 --    16 C    0.954
 ---------------------------------------------------------------------------

molecular dipole:
                 x           y           z       tot (Debye)
 q only:       -5.537       6.332     -14.355
   full:       -5.619       6.382     -14.438      42.589

           -------------------------------------------------
          | TOTAL ENERGY              -47.910987436567 Eh   |
          | GRADIENT NORM               0.000370340359 Eh/α |
          | HOMO-LUMO GAP               0.671763506112 eV   |
           -------------------------------------------------

 * finished run on 2024/12/20 at 02:03:03.871
