   * xtb version 6.7.1 (edcfbbe) compiled by 'conda@3ef47c1a292c' on 2024-11-25

   ID    Z sym.   atoms
    1    6 C      1-3, 5-12
    2    7 N      4
    3    1 H      13-22

          program call               : xtb C0010.xyz --opt --namespace C0010 --charge +1
          :  Hamiltonian                  GFN2-xTB          :
 * total energy  :   -31.1480231 Eh     change       -0.6593730E-09 Eh
 * total energy  :   -31.1506023 Eh     change       -0.2579178E-02 Eh
 * total energy  :   -31.1509822 Eh     change       -0.3798953E-03 Eh
 * total energy  :   -31.1510470 Eh     change       -0.6481501E-04 Eh
 * total energy  :   -31.1510919 Eh     change       -0.4487643E-04 Eh
 * total energy  :   -31.1511239 Eh     change       -0.3202607E-04 Eh
 * total energy  :   -31.1511397 Eh     change       -0.1572737E-04 Eh
 * total energy  :   -31.1511631 Eh     change       -0.2342845E-04 Eh
 * total energy  :   -31.1511770 Eh     change       -0.1389123E-04 Eh
 * total energy  :   -31.1511856 Eh     change       -0.8592197E-05 Eh
 * total energy  :   -31.1511917 Eh     change       -0.6138002E-05 Eh
 * total energy  :   -31.1511963 Eh     change       -0.4547183E-05 Eh
   *** GEOMETRY OPTIMIZATION CONVERGED AFTER 12 ITERATIONS ***

 final structure:
================
22
 xtb: 6.7.1 (edcfbbe)
C           -1.36183004921017       -0.02522186538112        0.06134373804664
C           -0.68107184746673        1.18560444273616        0.09261191005755
C            0.69340945930699        1.19194953618858       -0.01234293302127
N            1.38356797786842        0.04770230699892       -0.13175357467989
C            0.74491005495721       -1.13184082875153       -0.15770910418252
C           -0.62913579213599       -1.19850307521599       -0.06934664831379
C            2.80572740508768        0.08547454013393       -0.23176210746072
C            3.45006779880232       -0.69347700637878       -1.18778049882751
C            4.82940533467066       -0.64921713072921       -1.28150707745466
C            5.56190270475804        0.15866779679978       -0.42556596104268
C            4.91466462533981        0.92991373341756        0.52739223914870
C            3.53538051183364        0.90091526522412        0.62764138314964
H           -2.43728738660199       -0.05378841596311        0.13698507051567
H           -1.21086048858900        2.11965526985138        0.18911198414118
H            1.26118598186258        2.11047363896116       -0.02049269371654
H            1.35596633380428       -2.01905235034703       -0.23247072574027
H           -1.11712517190807       -2.15958778130020       -0.09426629656155
H            2.87845452554322       -1.29906736946598       -1.87479179269144
H            5.33049899765761       -1.24478711827692       -2.02772999236717
H            6.63712310398012        0.18721420100870       -0.50116458476332
H            5.48302742954575        1.55387999536199        1.19841949147914
H            3.03427849089364        1.47802221512756        1.39007817428487

          :  Hamiltonian                  GFN2-xTB          :
         :: total energy             -31.151196252030 Eh    ::
         :: gradient norm              0.000172545630 Eh/a0 ::
         :: HOMO-LUMO gap              2.642463162282 eV    ::
         :: SCC energy               -31.743182128873 Eh    ::
         :: -> dispersion             -0.019381835593 Eh    ::
         :: repulsion energy           0.591985876843 Eh    ::

    * Orbital Energies and Occupations

         #    Occupation            Energy/Eh            Energy/eV
      -------------------------------------------------------------
         1        2.0000           -0.8770173             -23.8649
       ...           ...                  ...                  ...
        17        2.0000           -0.6594550             -17.9447
        18        2.0000           -0.6495521             -17.6752
        19        2.0000           -0.6383577             -17.3706
        20        2.0000           -0.6318115             -17.1925
        21        2.0000           -0.6267190             -17.0539
        22        2.0000           -0.6215191             -16.9124
        23        2.0000           -0.6198923             -16.8681
        24        2.0000           -0.6185169             -16.8307
        25        2.0000           -0.6126346             -16.6706
        26        2.0000           -0.5759029             -15.6711
        27        2.0000           -0.5687809             -15.4773
        28        2.0000           -0.5572423             -15.1633
        29        2.0000           -0.5566484             -15.1472 (HOMO)
        30                         -0.4595397             -12.5047 (LUMO)
        31                         -0.4259118             -11.5896
        32                         -0.3753013             -10.2125
        33                         -0.3738715             -10.1736
        34                         -0.3037651              -8.2659
        35                         -0.2433201              -6.6211
        36                         -0.1588762              -4.3232
        37                         -0.0650232              -1.7694
        38                         -0.0288060              -0.7839
        39                         -0.0218644              -0.5950
        40                         -0.0174730              -0.4755
       ...                                ...                  ...
        58                          0.5197595              14.1434
      -------------------------------------------------------------
                  HL-Gap            0.0971087 Eh            2.6425 eV

     #   Z          covCN         q      C6AA      α(0)
     1   6 C        2.924     0.013    27.722     8.635
     2   6 C        2.915    -0.010    28.259     8.717
     3   6 C        2.893     0.034    27.242     8.557
     4   7 N        2.755     0.106    19.415     6.544
     5   6 C        2.893     0.034    27.242     8.557
     6   6 C        2.915    -0.010    28.259     8.717
     7   6 C        2.940     0.038    27.159     8.547
     8   6 C        2.919    -0.032    28.787     8.798
     9   6 C        2.920    -0.014    28.355     8.732
    10   6 C        2.919    -0.010    28.267     8.719
    11   6 C        2.920    -0.014    28.355     8.732
    12   6 C        2.919    -0.032    28.787     8.798
    13   1 H        0.926     0.106     1.727     2.055
    14   1 H        0.926     0.107     1.721     2.052
    15   1 H        0.926     0.108     1.711     2.045
    16   1 H        0.926     0.108     1.711     2.045
    17   1 H        0.926     0.107     1.721     2.052
    18   1 H        0.926     0.061     2.187     2.313
    19   1 H        0.926     0.078     2.000     2.211
    20   1 H        0.926     0.080     1.979     2.200
    21   1 H        0.926     0.078     2.000     2.211
    22   1 H        0.926     0.061     2.187     2.313

Wiberg/Mayer (AO) data.
largest (>0.10) Wiberg bond orders for each atom

     #   Z sym  total        # sym  WBO       # sym  WBO       # sym  WBO
 ---------------------------------------------------------------------------
     1   6 C    3.963 --     2 C    1.418     6 C    1.418    13 H    0.961
     2   6 C    3.981 --     3 C    1.467     1 C    1.418    14 H    0.959
     3   6 C    3.957 --     2 C    1.467     4 N    1.308    15 H    0.954
     4   7 N    3.766 --     3 C    1.308     5 C    1.308     7 C    0.984
     5   6 C    3.957 --     6 C    1.467     4 N    1.308    16 H    0.954
     6   6 C    3.981 --     5 C    1.467     1 C    1.418    17 H    0.959
     7   6 C    3.932 --     8 C    1.379    12 C    1.379     4 N    0.984
     8   6 C    3.988 --     9 C    1.449     7 C    1.379    18 H    0.964
                            11 C    0.106
     9   6 C    3.986 --     8 C    1.449    10 C    1.432    19 H    0.965
                            12 C    0.106
    10   6 C    3.977 --     9 C    1.432    11 C    1.432    20 H    0.966
    11   6 C    3.986 --    12 C    1.449    10 C    1.432    21 H    0.965
                             8 C    0.106
    12   6 C    3.988 --    11 C    1.449     7 C    1.379    22 H    0.964
                             9 C    0.106
    13   1 H    0.989 --     1 C    0.961
    14   1 H    0.988 --     2 C    0.959
    15   1 H    0.988 --     3 C    0.954
    16   1 H    0.988 --     5 C    0.954
    17   1 H    0.988 --     6 C    0.959
    18   1 H    0.996 --     8 C    0.964
    19   1 H    0.993 --     9 C    0.965
    20   1 H    0.993 --    10 C    0.966
    21   1 H    0.993 --    11 C    0.965
    22   1 H    0.996 --    12 C    0.964
 ---------------------------------------------------------------------------

molecular dipole:
                 x           y           z       tot (Debye)
 q only:        2.638       0.091      -0.251
   full:        2.562       0.089      -0.245       6.547

           -------------------------------------------------
          | TOTAL ENERGY              -31.151196252030 Eh   |
          | GRADIENT NORM               0.000172545630 Eh/α |
          | HOMO-LUMO GAP               2.642463162282 eV   |
           -------------------------------------------------

 * finished run on 2024/12/20 at 02:03:01.640
