   * xtb version 6.7.1 (edcfbbe) compiled by 'conda@3ef47c1a292c' on 2024-11-25

   ID    Z sym.   atoms
    1    6 C      1, 2, 4, 6, 7, 9-15
    2    8 O      3
    3    7 N      5, 8
    4    1 H      16-30

          program call               : xtb C0017.xyz --opt --namespace C0017 --charge +1
          :  Hamiltonian                  GFN2-xTB          :
 * total energy  :   -42.8859461 Eh     change       -0.5327863E-09 Eh
 * total energy  :   -42.8927049 Eh     change       -0.6758873E-02 Eh
 * total energy  :   -42.8939497 Eh     change       -0.1244741E-02 Eh
 * total energy  :   -42.8942036 Eh     change       -0.2539590E-03 Eh
 * total energy  :   -42.8944403 Eh     change       -0.2366199E-03 Eh
 * total energy  :   -42.8946486 Eh     change       -0.2083798E-03 Eh
 * total energy  :   -42.8949172 Eh     change       -0.2686088E-03 Eh
 * total energy  :   -42.8952051 Eh     change       -0.2878801E-03 Eh
 * total energy  :   -42.8955227 Eh     change       -0.3176135E-03 Eh
 * total energy  :   -42.8957910 Eh     change       -0.2682569E-03 Eh
 * total energy  :   -42.8973350 Eh     change       -0.3870478E-04 Eh
 * total energy  :   -42.8973693 Eh     change       -0.3431739E-04 Eh
 * total energy  :   -42.8973900 Eh     change       -0.2072505E-04 Eh
 * total energy  :   -42.8974226 Eh     change       -0.3256647E-04 Eh
 * total energy  :   -42.8974371 Eh     change       -0.1457239E-04 Eh
 * total energy  :   -42.8974470 Eh     change       -0.9827176E-05 Eh
 * total energy  :   -42.8974560 Eh     change       -0.9043585E-05 Eh
 * total energy  :   -42.8974651 Eh     change       -0.9090581E-05 Eh
 * total energy  :   -42.8974696 Eh     change       -0.4513934E-05 Eh
   *** GEOMETRY OPTIMIZATION CONVERGED AFTER 42 ITERATIONS ***

 final structure:
================
30
 xtb: 6.7.1 (edcfbbe)
C            2.17103929913190        0.98194977315167       -0.53892654088251
C            0.74438063600957        0.81082034322703       -0.95854758777012
O            0.21767455336194       -0.23348208192670       -1.19906625449206
C           -0.05550492542422        2.13562045071740       -1.09047421071775
N           -0.10733816634749        2.85025750093840        0.15690431634834
C            0.42097290562313        4.04604695204869        0.44717002893494
C            1.16155729329507        4.89497192899996       -0.50877606535771
N            0.17214782703839        4.35678011934555        1.72542659790862
C           -0.55434338530238        3.32598574881260        2.29464391564865
C           -0.73123598783102        2.35934156498116        1.29015612660825
C           -1.42313172659559        1.17827475810784        1.52365953791998
C           -1.93012838007720        0.99938847414273        2.79466761468349
C           -1.75616518417308        1.95787343792298        3.79651548955176
C           -1.06967593749311        3.13365068118729        3.57037886805046
C            0.57664799138098        5.56505880372196        2.39916060906306
H            2.63413811631477        0.00867070709145       -0.40680186155623
H            2.23858175632671        1.54222156567109        0.39138431149673
H            2.71423778892774        1.52668439366935       -1.30869364474245
H            0.41247525564602        2.75383340376373       -1.85758259135443
H           -1.07307514946642        1.88295960778368       -1.40430876913371
H            2.10650131089619        4.42909594382828       -0.78975806411498
H            0.57867228089125        5.04541544622209       -1.41718026815997
H            1.37605626964212        5.86767566651346       -0.07784104733729
H           -1.55409239568634        0.43478746281121        0.75502994073083
H           -2.47455260589408        0.09725775974141        3.02219402467518
H           -2.17121525139138        1.77250231896038        4.77420633404205
H           -0.94767882174199        3.86253579986134        4.35445829249757
H            1.65504347245917        5.70580941572541        2.32304332564421
H            0.06827868650683        6.43220794198457        1.97473836965216
H            0.31064247397444        5.48765411099849        3.44970920216375

          :  Hamiltonian                  GFN2-xTB          :
         :: total energy             -42.897469621328 Eh    ::
         :: gradient norm              0.000723430892 Eh/a0 ::
         :: HOMO-LUMO gap              3.280211694378 eV    ::
         :: SCC energy               -43.561815944891 Eh    ::
         :: -> dispersion             -0.028208529074 Eh    ::
         :: repulsion energy           0.664346323563 Eh    ::

    * Orbital Energies and Occupations

         #    Occupation            Energy/Eh            Energy/eV
      -------------------------------------------------------------
         1        2.0000           -0.8845911             -24.0709
       ...           ...                  ...                  ...
        27        2.0000           -0.6385448             -17.3757
        28        2.0000           -0.6352006             -17.2847
        29        2.0000           -0.6245737             -16.9955
        30        2.0000           -0.6236632             -16.9707
        31        2.0000           -0.6153589             -16.7448
        32        2.0000           -0.6109556             -16.6249
        33        2.0000           -0.6064020             -16.5010
        34        2.0000           -0.5978742             -16.2690
        35        2.0000           -0.5799779             -15.7820
        36        2.0000           -0.5724356             -15.5768
        37        2.0000           -0.5522697             -15.0280
        38        2.0000           -0.5493336             -14.9481
        39        2.0000           -0.5346753             -14.5493 (HOMO)
        40                         -0.4141298             -11.2690 (LUMO)
        41                         -0.3911670             -10.6442
        42                         -0.3645366              -9.9195
        43                         -0.3567792              -9.7085
        44                         -0.2383439              -6.4857
        45                         -0.1835665              -4.9951
        46                         -0.1340543              -3.6478
        47                         -0.0903128              -2.4575
        48                         -0.0692522              -1.8844
        49                         -0.0515649              -1.4032
        50                         -0.0498937              -1.3577
       ...                                ...                  ...
        75                          0.5428344              14.7713
      -------------------------------------------------------------
                  HL-Gap            0.1205456 Eh            3.2802 eV

     #   Z          covCN         q      C6AA      α(0)
     1   6 C        3.753    -0.149    23.433     6.903
     2   6 C        2.807     0.243    22.943     7.847
     3   8 O        0.857    -0.293    19.663     5.945
     4   6 C        3.739    -0.050    21.547     6.623
     5   7 N        2.830     0.011    21.065     6.817
     6   6 C        3.069     0.117    25.362     8.258
     7   6 C        3.755    -0.138    23.217     6.871
     8   7 N        2.828     0.017    20.957     6.799
     9   6 C        3.093     0.037    27.064     8.527
    10   6 C        3.098     0.035    27.088     8.529
    11   6 C        2.908    -0.034    28.850     8.807
    12   6 C        2.927    -0.017    28.435     8.745
    13   6 C        2.926    -0.018    28.452     8.747
    14   6 C        2.909    -0.034    28.841     8.806
    15   6 C        3.690    -0.074    22.107     6.729
    16   1 H        0.925     0.098     1.802     2.099
    17   1 H        0.925     0.069     2.097     2.265
    18   1 H        0.925     0.089     1.894     2.152
    19   1 H        0.924     0.094     1.840     2.121
    20   1 H        0.924     0.105     1.740     2.063
    21   1 H        0.924     0.100     1.789     2.092
    22   1 H        0.925     0.099     1.792     2.094
    23   1 H        0.925     0.097     1.813     2.106
    24   1 H        0.926     0.081     1.966     2.193
    25   1 H        0.926     0.083     1.952     2.185
    26   1 H        0.926     0.081     1.970     2.195
    27   1 H        0.926     0.069     2.097     2.264
    28   1 H        0.925     0.090     1.874     2.141
    29   1 H        0.924     0.092     1.862     2.134
    30   1 H        0.925     0.101     1.779     2.086

Wiberg/Mayer (AO) data.
largest (>0.10) Wiberg bond orders for each atom

     #   Z sym  total        # sym  WBO       # sym  WBO       # sym  WBO
 ---------------------------------------------------------------------------
     1   6 C    3.988 --     2 C    1.017    16 H    0.976    17 H    0.959
                            18 H    0.949
     2   6 C    3.924 --     3 O    1.923     1 C    1.017     4 C    0.922
     3   8 O    2.135 --     2 C    1.923
     4   6 C    3.945 --     5 N    0.985    20 H    0.955    19 H    0.953
                             2 C    0.922
     5   7 N    3.658 --     6 C    1.322    10 C    1.111     4 C    0.985
     6   6 C    3.956 --     8 N    1.331     5 N    1.322     7 C    1.046
     7   6 C    3.977 --     6 C    1.046    23 H    0.971    22 H    0.952
                            21 H    0.948
     8   7 N    3.660 --     6 C    1.331     9 C    1.117    15 C    0.989
     9   6 C    3.953 --    14 C    1.342    10 C    1.279     8 N    1.117
    10   6 C    3.952 --    11 C    1.345     9 C    1.279     5 N    1.111
    11   6 C    3.984 --    12 C    1.489    10 C    1.345    24 H    0.962
                            14 C    0.118
    12   6 C    3.983 --    11 C    1.489    13 C    1.382    25 H    0.966
    13   6 C    3.984 --    14 C    1.490    12 C    1.382    26 H    0.966
    14   6 C    3.984 --    13 C    1.490     9 C    1.342    27 H    0.962
                            11 C    0.118
    15   6 C    3.940 --     8 N    0.989    30 H    0.972    28 H    0.968
                            29 H    0.965
    16   1 H    0.990 --     1 C    0.976
    17   1 H    0.995 --     1 C    0.959
    18   1 H    0.992 --     1 C    0.949
    19   1 H    0.991 --     4 C    0.953
    20   1 H    0.988 --     4 C    0.955
    21   1 H    0.986 --     7 C    0.948
    22   1 H    0.987 --     7 C    0.952
    23   1 H    0.990 --     7 C    0.971
    24   1 H    0.993 --    11 C    0.962
    25   1 H    0.993 --    12 C    0.966
    26   1 H    0.993 --    13 C    0.966
    27   1 H    0.995 --    14 C    0.962
    28   1 H    0.991 --    15 C    0.968
    29   1 H    0.991 --    15 C    0.965
    30   1 H    0.989 --    15 C    0.972
 ---------------------------------------------------------------------------

molecular dipole:
                 x           y           z       tot (Debye)
 q only:        0.646       7.244       2.137
   full:        0.761       7.530       2.055      19.933

           -------------------------------------------------
          | TOTAL ENERGY              -42.897469621328 Eh   |
          | GRADIENT NORM               0.000723430892 Eh/α |
          | HOMO-LUMO GAP               3.280211694378 eV   |
           -------------------------------------------------

 * finished run on 2024/12/20 at 02:03:08.480
