   * xtb version 6.7.1 (edcfbbe) compiled by 'conda@3ef47c1a292c' on 2024-11-25

   ID    Z sym.   atoms
    1   17 Cl     1
    2    6 C      2-7, 9, 10, 12, 13
    3    7 N      8, 11
    4    9 F      14-16
    5    1 H      17-25

          program call               : xtb C0013.xyz --opt --namespace C0013 --charge +1
          :  Hamiltonian                  GFN2-xTB          :
 * total energy  :   -50.2188311 Eh     change       -0.1576964E-08 Eh
 * total energy  :   -50.2271573 Eh     change       -0.8326115E-02 Eh
 * total energy  :   -50.2288528 Eh     change       -0.1695578E-02 Eh
 * total energy  :   -50.2289256 Eh     change       -0.7281322E-04 Eh
 * total energy  :   -50.2289470 Eh     change       -0.2134330E-04 Eh
 * total energy  :   -50.2289485 Eh     change       -0.1545314E-05 Eh
   *** GEOMETRY OPTIMIZATION CONVERGED AFTER 6 ITERATIONS ***

 final structure:
================
25
 xtb: 6.7.1 (edcfbbe)
Cl           1.14754640173895       -0.03592525083619        0.04036694442383
C            2.85726506622504       -0.02456936168560        0.04888700436830
C            3.53045810440883        1.21315669930062        0.05251711083779
C            4.90234401103708        1.29381166284972        0.05950916315624
C            5.61472227275518        0.09440005248830        0.06294036120064
C            4.93705227055652       -1.14161309672066        0.05916939600124
C            3.55073721823576       -1.22435063287868        0.05210417746299
N            5.89928518679289       -2.12407126306585        0.06395821212050
C            5.60547935860014       -3.53425343110198        0.06165994584363
C            7.09602764242620       -1.51921063848666        0.07037493288020
N            6.96253366115232       -0.18577889151195        0.06992178753064
C            8.01093054665172        0.80480030596409        0.07541171753493
C            8.39239998980499       -2.30032395154298        0.07756109779530
F            8.45561294812385       -3.08894859305157        1.15413903085409
F            8.46831923914759       -3.08801766295705       -0.99887251146033
F            9.46070384172383       -1.51658892006420        0.08422193728688
H            2.94228985267503        2.11689706055096        0.04970830128270
H            5.39271496133673        2.25313454995823        0.06219781240349
H            3.03002789514103       -2.16670994542192        0.04927695500049
H            5.01596017381659       -3.78190998419002        0.94563442670780
H            5.02529163340799       -3.78089140494931       -0.82875584802542
H            6.51253033864911       -4.13180356714734        0.06607755401505
H            8.63542027247794        0.70442867213307        0.96368879618627
H            8.64497951760827        0.70406970944746       -0.80602737888383
H            7.55702759550637        1.79158788291949        0.07275907347659

          :  Hamiltonian                  GFN2-xTB          :
         :: total energy             -50.228948532268 Eh    ::
         :: gradient norm              0.000264228715 Eh/a0 ::
         :: HOMO-LUMO gap              2.371676127543 eV    ::
         :: SCC energy               -50.754260202097 Eh    ::
         :: -> dispersion             -0.025180657595 Eh    ::
         :: repulsion energy           0.525311669828 Eh    ::

    * Orbital Energies and Occupations

         #    Occupation            Energy/Eh            Energy/eV
      -------------------------------------------------------------
         1        2.0000           -1.1823440             -32.1732
       ...           ...                  ...                  ...
        31        2.0000           -0.6676201             -18.1669
        32        2.0000           -0.6673536             -18.1596
        33        2.0000           -0.6658691             -18.1192
        34        2.0000           -0.6475932             -17.6219
        35        2.0000           -0.6453918             -17.5620
        36        2.0000           -0.6425272             -17.4841
        37        2.0000           -0.6242278             -16.9861
        38        2.0000           -0.6185287             -16.8310
        39        2.0000           -0.6071903             -16.5225
        40        2.0000           -0.6071179             -16.5205
        41        2.0000           -0.5788939             -15.7525
        42        2.0000           -0.5519241             -15.0186
        43        2.0000           -0.5436855             -14.7944 (HOMO)
        44                         -0.4565280             -12.4228 (LUMO)
        45                         -0.3962054             -10.7813
        46                         -0.3899203             -10.6103
        47                         -0.2733667              -7.4387
        48                         -0.2659871              -7.2379
        49                         -0.2197645              -5.9801
        50                         -0.1746450              -4.7523
        51                         -0.1412761              -3.8443
        52                         -0.1195198              -3.2523
        53                         -0.1128675              -3.0713
        54                         -0.1126031              -3.0641
       ...                                ...                  ...
        78                          0.4968157              13.5190
      -------------------------------------------------------------
                  HL-Gap            0.0871575 Eh            2.3717 eV

     #   Z          covCN         q      C6AA      α(0)
     1  17 Cl       0.976    -0.066   101.218    15.392
     2   6 C        2.890     0.115    25.467     8.274
     3   6 C        2.962    -0.024    28.612     8.774
     4   6 C        2.908    -0.026    28.649     8.777
     5   6 C        3.113     0.040    26.960     8.506
     6   6 C        3.114     0.046    26.815     8.483
     7   6 C        2.950    -0.047    29.172     8.859
     8   7 N        2.819     0.045    20.447     6.716
     9   6 C        3.690    -0.084    22.308     6.759
    10   6 C        3.114     0.072    26.238     8.391
    11   7 N        2.816     0.048    20.395     6.707
    12   6 C        3.690    -0.086    22.343     6.765
    13   6 C        3.330     0.495    17.251     6.591
    14   9 F        0.792    -0.175    10.978     3.914
    15   9 F        0.792    -0.175    10.978     3.914
    16   9 F        0.791    -0.167    10.896     3.899
    17   1 H        0.926     0.112     1.683     2.029
    18   1 H        0.926     0.095     1.835     2.119
    19   1 H        0.926     0.104     1.751     2.069
    20   1 H        0.924     0.115     1.656     2.013
    21   1 H        0.924     0.115     1.656     2.013
    22   1 H        0.925     0.110     1.699     2.038
    23   1 H        0.924     0.114     1.664     2.017
    24   1 H        0.924     0.114     1.664     2.017
    25   1 H        0.925     0.112     1.677     2.025

Wiberg/Mayer (AO) data.
largest (>0.10) Wiberg bond orders for each atom

     #   Z sym  total        # sym  WBO       # sym  WBO       # sym  WBO
 ---------------------------------------------------------------------------
     1  17 Cl   1.230 --     2 C    1.059
     2   6 C    3.938 --     7 C    1.438     3 C    1.309     1 Cl   1.059
     3   6 C    3.979 --     4 C    1.528     2 C    1.309    17 H    0.958
     4   6 C    3.982 --     3 C    1.528     5 C    1.311    18 H    0.956
                             7 C    0.109
     5   6 C    3.951 --     4 C    1.311     6 C    1.258    11 N    1.147
     6   6 C    3.954 --     7 C    1.339     5 C    1.258     8 N    1.143
     7   6 C    3.979 --     2 C    1.438     6 C    1.339    19 H    0.957
                             4 C    0.109
     8   7 N    3.689 --    10 C    1.327     6 C    1.143     9 C    0.984
                            11 N    0.112
     9   6 C    3.921 --     8 N    0.984    22 H    0.972    20 H    0.957
                            21 H    0.957
    10   6 C    3.948 --    11 N    1.334     8 N    1.327    13 C    0.940
    11   7 N    3.691 --    10 C    1.334     5 C    1.147    12 C    0.982
                             8 N    0.112
    12   6 C    3.920 --    11 N    0.982    25 H    0.969    24 H    0.959
                            23 H    0.959
    13   6 C    3.870 --    16 F    0.977    15 F    0.959    14 F    0.959
                            10 C    0.940
    14   9 F    1.099 --    13 C    0.959
    15   9 F    1.099 --    13 C    0.959
    16   9 F    1.111 --    13 C    0.977
    17   1 H    0.987 --     3 C    0.958
    18   1 H    0.990 --     4 C    0.956
    19   1 H    0.989 --     7 C    0.957
    20   1 H    0.986 --     9 C    0.957
    21   1 H    0.986 --     9 C    0.957
    22   1 H    0.988 --     9 C    0.972
    23   1 H    0.986 --    12 C    0.959
    24   1 H    0.986 --    12 C    0.959
    25   1 H    0.987 --    12 C    0.969
 ---------------------------------------------------------------------------

molecular dipole:
                 x           y           z       tot (Debye)
 q only:       10.825      -1.100       0.119
   full:       10.502      -1.136       0.118      26.852

           -------------------------------------------------
          | TOTAL ENERGY              -50.228948532268 Eh   |
          | GRADIENT NORM               0.000264228715 Eh/α |
          | HOMO-LUMO GAP               2.371676127543 eV   |
           -------------------------------------------------

 * finished run on 2024/12/20 at 02:03:04.035
