   * xtb version 6.7.1 (edcfbbe) compiled by 'conda@3ef47c1a292c' on 2024-11-25

   ID    Z sym.   atoms
    1    6 C      1, 3, 5, 7-12, 14-17, 19-24, 26
    2    8 O      2, 4, 18, 25
    3    7 N      6, 13
    4    1 H      27-47

          program call               : xtb C0015.xyz --opt --namespace C0015 --charge +1
          :  Hamiltonian                  GFN2-xTB          :
 * total energy  :   -75.2760927 Eh     change       -0.7779875E-09 Eh
 * total energy  :   -75.2889515 Eh     change       -0.1285885E-01 Eh
 * total energy  :   -75.2922374 Eh     change       -0.3285930E-02 Eh
 * total energy  :   -75.2930359 Eh     change       -0.7984858E-03 Eh
 * total energy  :   -75.2939112 Eh     change       -0.8752994E-03 Eh
 * total energy  :   -75.2946193 Eh     change       -0.7080466E-03 Eh
 * total energy  :   -75.2954396 Eh     change       -0.8203056E-03 Eh
 * total energy  :   -75.2962391 Eh     change       -0.7995596E-03 Eh
 * total energy  :   -75.2968265 Eh     change       -0.5873320E-03 Eh
 * total energy  :   -75.2972331 Eh     change       -0.4066467E-03 Eh
 * total energy  :   -75.3045622 Eh     change       -0.2194721E-04 Eh
 * total energy  :   -75.3045773 Eh     change       -0.1513759E-04 Eh
 * total energy  :   -75.3045853 Eh     change       -0.7999044E-05 Eh
 * total energy  :   -75.3046073 Eh     change       -0.2202927E-04 Eh
 * total energy  :   -75.3046219 Eh     change       -0.1455304E-04 Eh
 * total energy  :   -75.3046488 Eh     change       -0.2691036E-04 Eh
 * total energy  :   -75.3046695 Eh     change       -0.2065891E-04 Eh
 * total energy  :   -75.3046776 Eh     change       -0.8102331E-05 Eh
 * total energy  :   -75.3046821 Eh     change       -0.4543624E-05 Eh
   *** GEOMETRY OPTIMIZATION CONVERGED AFTER 52 ITERATIONS ***

 final structure:
================
47
 xtb: 6.7.1 (edcfbbe)
C            2.61989959814631       -1.83877786476443       -0.24641729929063
O            1.46948796518138       -1.68779056912983        0.59183393797284
C            1.65101459276513       -1.40395009311878        1.86014448682427
O            2.69373001729238       -1.22517141153261        2.42826938572736
C            0.29647687095619       -1.32010505518101        2.59573647712902
N            0.46165922485648       -0.57932027744414        3.81442199419405
C            0.25761489856144        0.78106028188540        3.94818992686193
C           -0.26601145326932        1.73219385737563        3.08357469974974
C           -0.31292272929831        3.03471542898778        3.53788926079035
C            0.15629900068914        3.38456291683388        4.80499036280152
C            0.67875718198578        2.44490915914693        5.67069579393837
C            0.71274620551450        1.12685377706740        5.23133625937947
N            1.17170869415669       -0.04084360589454        5.81707682771908
C            1.03589247124228       -1.03951067332471        4.93738057754549
C            1.46722744260745       -2.43538438033178        5.12643478946176
C            1.71805851527757       -0.15070514764322        7.14904144550189
C            0.88734322609231       -1.10062695118427        8.05963374258574
O            1.28963278189126       -2.23590916132348        8.20597348259538
C           -0.31127252891958       -0.58371296181368        8.69723774897691
C           -0.91600455009347        0.64103311061244        8.37861845673423
C           -2.04896349255891        1.04909033901292        9.03360077964935
C           -2.62258643797201        0.26293348823210       10.04722393242027
C           -2.02968683826280       -0.96422742876851       10.36536078364038
C           -0.90239245021605       -1.37403967669816        9.69396950256312
O           -3.71320744891505        0.76956932893587       10.62913574111624
C           -4.34791741498132        0.05603064064470       11.67213662338449
H            2.45750479264127       -1.22958295288601       -1.13352814318379
H            2.70436466455965       -2.88792601773765       -0.52802433498925
H            3.51729522074661       -1.51688556332484        0.28236315671310
H           -0.44041553912880       -0.83285404206840        1.95725146339228
H           -0.04291844217988       -2.33777591562397        2.80702819858138
H           -0.61371891240808        1.47649991057482        2.09624011732964
H           -0.71061750600572        3.80385134698028        2.89558882434250
H            0.11558674400685        4.41725937830541        5.11212964098048
H            1.05621037064314        2.74057047693548        6.63655427924700
H            0.65876353223785       -3.12474163713227        4.88520346018610
H            2.30120187473884       -2.64600383109909        4.45506961177953
H            1.78120097171932       -2.62664993588512        6.14882375060520
H            2.72756164405867       -0.57027402143625        7.09334407567975
H            1.77276571147395        0.84306812685072        7.59040395833353
H           -0.51839123278165        1.27283451424819        7.60176888538987
H           -2.52488486726433        1.98576879865149        8.79167926195946
H           -2.44561574816126       -1.59564950945098       11.13349200714975
H           -0.43880997530659       -2.31867865863591        9.93519294249385
H           -4.73004587268168       -0.90585325446960       11.32044410190441
H           -3.67086867433321       -0.10125851112378       12.51556970743876
H           -5.18003209928388        0.68153422771372       11.98872531472673

          :  Hamiltonian                  GFN2-xTB          :
         :: total energy             -75.304682113089 Eh    ::
         :: gradient norm              0.000517926866 Eh/a0 ::
         :: HOMO-LUMO gap              2.472967229754 eV    ::
         :: SCC energy               -76.367008108792 Eh    ::
         :: -> dispersion             -0.050009878041 Eh    ::
         :: repulsion energy           1.062325995703 Eh    ::

    * Orbital Energies and Occupations

         #    Occupation            Energy/Eh            Energy/eV
      -------------------------------------------------------------
         1        2.0000           -0.8745427             -23.7975
       ...           ...                  ...                  ...
        55        2.0000           -0.5730718             -15.5941
        56        2.0000           -0.5667554             -15.4222
        57        2.0000           -0.5658380             -15.3972
        58        2.0000           -0.5619646             -15.2918
        59        2.0000           -0.5561918             -15.1347
        60        2.0000           -0.5536443             -15.0654
        61        2.0000           -0.5523124             -15.0292
        62        2.0000           -0.5390824             -14.6692
        63        2.0000           -0.5351877             -14.5632
        64        2.0000           -0.5245788             -14.2745
        65        2.0000           -0.5177468             -14.0886
        66        2.0000           -0.5082769             -13.8309
        67        2.0000           -0.4890247             -13.3070 (HOMO)
        68                         -0.3981448             -10.8341 (LUMO)
        69                         -0.3912859             -10.6474
        70                         -0.3576702              -9.7327
        71                         -0.3539880              -9.6325
        72                         -0.3454766              -9.4009
        73                         -0.3320487              -9.0355
        74                         -0.2977130              -8.1012
        75                         -0.2293573              -6.2411
        76                         -0.1942704              -5.2864
        77                         -0.1664836              -4.5302
        78                         -0.1278521              -3.4790
       ...                                ...                  ...
       125                          0.5664257              15.4132
      -------------------------------------------------------------
                  HL-Gap            0.0908799 Eh            2.4730 eV

     #   Z          covCN         q      C6AA      α(0)
     1   6 C        3.649     0.013    20.676     6.532
     2   8 O        1.704    -0.230    17.809     5.698
     3   6 C        2.715     0.360    20.897     7.483
     4   8 O        0.856    -0.399    21.653     6.239
     5   6 C        3.742    -0.047    21.487     6.613
     6   7 N        2.834     0.012    21.037     6.812
     7   6 C        3.090     0.040    27.009     8.518
     8   6 C        2.909    -0.034    28.853     8.808
     9   6 C        2.926    -0.020    28.497     8.754
    10   6 C        2.925    -0.021    28.527     8.759
    11   6 C        2.910    -0.034    28.844     8.807
    12   6 C        3.094     0.040    26.994     8.515
    13   7 N        2.828     0.017    20.946     6.797
    14   6 C        3.067     0.133    25.025     8.203
    15   6 C        3.755    -0.145    23.356     6.891
    16   6 C        3.738    -0.045    21.460     6.610
    17   6 C        2.820     0.219    23.377     7.922
    18   8 O        0.858    -0.360    20.889     6.128
    19   6 C        2.968    -0.032    28.797     8.802
    20   6 C        2.918    -0.032    28.804     8.801
    21   6 C        2.917    -0.051    29.277     8.873
    22   6 C        2.866     0.167    24.409     8.099
    23   6 C        2.912    -0.061    29.505     8.907
    24   6 C        2.928    -0.013    28.328     8.728
    25   8 O        1.706    -0.227    17.772     5.692
    26   6 C        3.644     0.022    20.535     6.513
    27   1 H        0.925     0.090     1.876     2.142
    28   1 H        0.925     0.087     1.906     2.159
    29   1 H        0.925     0.088     1.894     2.152
    30   1 H        0.925     0.107     1.719     2.050
    31   1 H        0.924     0.104     1.748     2.068
    32   1 H        0.926     0.065     2.147     2.291
    33   1 H        0.926     0.077     2.010     2.217
    34   1 H        0.926     0.077     2.011     2.217
    35   1 H        0.926     0.066     2.127     2.280
    36   1 H        0.925     0.091     1.866     2.136
    37   1 H        0.924     0.115     1.650     2.009
    38   1 H        0.925     0.122     1.599     1.977
    39   1 H        0.924     0.098     1.804     2.101
    40   1 H        0.925     0.090     1.882     2.146
    41   1 H        0.926     0.041     2.440     2.443
    42   1 H        0.926     0.066     2.131     2.283
    43   1 H        0.926     0.062     2.174     2.305
    44   1 H        0.926     0.078     2.005     2.214
    45   1 H        0.924     0.058     2.223     2.332
    46   1 H        0.924     0.059     2.207     2.323
    47   1 H        0.925     0.083     1.944     2.180

Wiberg/Mayer (AO) data.
largest (>0.10) Wiberg bond orders for each atom

     #   Z sym  total        # sym  WBO       # sym  WBO       # sym  WBO
 ---------------------------------------------------------------------------
     1   6 C    3.892 --    29 H    0.976    27 H    0.974    28 H    0.972
                             2 O    0.930
     2   8 O    2.361 --     3 C    1.199     1 C    0.930     4 O    0.192
     3   6 C    3.933 --     4 O    1.743     2 O    1.199     5 C    0.921
     4   8 O    2.057 --     3 C    1.743     2 O    0.192
     5   6 C    3.956 --     6 N    0.997    30 H    0.955    31 H    0.942
                             3 C    0.921
     6   7 N    3.649 --    14 C    1.308     7 C    1.112     5 C    0.997
     7   6 C    3.952 --     8 C    1.348    12 C    1.279     6 N    1.112
     8   6 C    3.986 --     9 C    1.485     7 C    1.348    32 H    0.963
                            11 C    0.117
     9   6 C    3.983 --     8 C    1.485    10 C    1.387    33 H    0.967
    10   6 C    3.983 --    11 C    1.485     9 C    1.387    34 H    0.967
    11   6 C    3.984 --    10 C    1.485    12 C    1.344    35 H    0.960
                             8 C    0.117
    12   6 C    3.953 --    11 C    1.344     7 C    1.279    13 N    1.112
    13   7 N    3.661 --    14 C    1.335    12 C    1.112    16 C    0.976
    14   6 C    3.950 --    13 N    1.335     6 N    1.308    15 C    1.053
    15   6 C    3.968 --    14 C    1.053    38 H    0.957    36 H    0.949
                            37 H    0.936
    16   6 C    3.939 --    13 N    0.976    40 H    0.960    39 H    0.956
                            17 C    0.922
    17   6 C    3.925 --    18 O    1.785    19 C    1.107    16 C    0.922
    18   8 O    2.067 --    17 C    1.785
    19   6 C    3.984 --    24 C    1.332    20 C    1.322    17 C    1.107
    20   6 C    3.991 --    21 C    1.527    19 C    1.322    41 H    0.961
    21   6 C    3.987 --    20 C    1.527    22 C    1.299    42 H    0.966
    22   6 C    3.938 --    23 C    1.327    21 C    1.299    25 O    1.139
    23   6 C    3.987 --    24 C    1.498    22 C    1.327    43 H    0.963
    24   6 C    3.984 --    23 C    1.498    19 C    1.332    44 H    0.963
    25   8 O    2.295 --    22 C    1.139    26 C    0.967
    26   6 C    3.927 --    47 H    0.977    45 H    0.975    46 H    0.975
                            25 O    0.967
    27   1 H    0.991 --     1 C    0.974
    28   1 H    0.992 --     1 C    0.972
    29   1 H    0.992 --     1 C    0.976
    30   1 H    0.988 --     5 C    0.955
    31   1 H    0.988 --     5 C    0.942
    32   1 H    0.995 --     8 C    0.963
    33   1 H    0.994 --     9 C    0.967
    34   1 H    0.994 --    10 C    0.967
    35   1 H    0.995 --    11 C    0.960
    36   1 H    0.989 --    15 C    0.949
    37   1 H    0.983 --    15 C    0.936
    38   1 H    0.985 --    15 C    0.957
    39   1 H    0.989 --    16 C    0.956
    40   1 H    0.991 --    16 C    0.960
    41   1 H    0.998 --    20 C    0.961
    42   1 H    0.995 --    21 C    0.966
    43   1 H    0.995 --    23 C    0.963
    44   1 H    0.994 --    24 C    0.963
    45   1 H    0.995 --    26 C    0.975
    46   1 H    0.995 --    26 C    0.975
    47   1 H    0.993 --    26 C    0.977
 ---------------------------------------------------------------------------

molecular dipole:
                 x           y           z       tot (Debye)
 q only:       -0.382      -0.059       9.561
   full:       -0.479      -0.096       9.505      24.191

           -------------------------------------------------
          | TOTAL ENERGY              -75.304682113089 Eh   |
          | GRADIENT NORM               0.000517926866 Eh/α |
          | HOMO-LUMO GAP               2.472967229754 eV   |
           -------------------------------------------------

 * finished run on 2024/12/20 at 02:03:07.074
