   * xtb version 6.7.1 (edcfbbe) compiled by 'conda@3ef47c1a292c' on 2024-11-25

   ID    Z sym.   atoms
    1    6 C      1, 2, 4, 6-11
    2    8 O      3
    3   15 P      5
    4    1 H      12-33

          program call               : xtb C0026.xyz --opt --namespace C0026 --charge +1
          :  Hamiltonian                  GFN2-xTB          :
 * total energy  :   -36.6663352 Eh     change       -0.1123439E-09 Eh
 * total energy  :   -36.6724886 Eh     change       -0.6153448E-02 Eh
 * total energy  :   -36.6745188 Eh     change       -0.2030170E-02 Eh
 * total energy  :   -36.6748354 Eh     change       -0.3166165E-03 Eh
 * total energy  :   -36.6749973 Eh     change       -0.1619103E-03 Eh
 * total energy  :   -36.6751333 Eh     change       -0.1359411E-03 Eh
 * total energy  :   -36.6753129 Eh     change       -0.1795903E-03 Eh
 * total energy  :   -36.6755405 Eh     change       -0.2276493E-03 Eh
 * total energy  :   -36.6757628 Eh     change       -0.2222608E-03 Eh
 * total energy  :   -36.6759674 Eh     change       -0.2046359E-03 Eh
 * total energy  :   -36.6780850 Eh     change       -0.5637460E-04 Eh
 * total energy  :   -36.6781307 Eh     change       -0.4565738E-04 Eh
 * total energy  :   -36.6781715 Eh     change       -0.4080776E-04 Eh
 * total energy  :   -36.6782003 Eh     change       -0.2881029E-04 Eh
 * total energy  :   -36.6782197 Eh     change       -0.1942795E-04 Eh
 * total energy  :   -36.6782111 Eh     change        0.8660056E-05 Eh
 * total energy  :   -36.6782304 Eh     change       -0.1935594E-04 Eh
 * total energy  :   -36.6782372 Eh     change       -0.6795458E-05 Eh
 * total energy  :   -36.6782401 Eh     change       -0.2843234E-05 Eh
   *** GEOMETRY OPTIMIZATION CONVERGED AFTER 44 ITERATIONS ***

 final structure:
================
33
 xtb: 6.7.1 (edcfbbe)
C            0.06130199212149        1.70248174422309       -1.23584323064648
C            0.32036670552562        0.96065525901022        0.06767373643378
O            1.22990525907749        1.63191950631026        0.93950003199144
C            2.56042211971754        1.68797059455717        0.50133585223712
P            3.35382510288254        2.34796595868313        2.01260053943543
C            3.04410605896476        1.16685359129676        3.36546465112061
C            3.82954013827075       -0.13377762089509        3.23107112911380
C            5.15507686478145        2.53749058099117        1.75541863950803
C            5.51534584188904        3.65543716302847        0.78229294610687
C            2.55060194834844        3.92576790122084        2.46072505034483
C            2.07975651348183        4.75100694130077        1.26675515720383
H           -0.27138555021614        2.71842446807749       -1.03676225648707
H           -0.72047896742993        1.18666496990944       -1.78477222316356
H            0.94929691932855        1.73443853194106       -1.86320230449609
H           -0.59906599909327        0.88729845683821        0.65129691899196
H            0.69560055874489       -0.05082659341566       -0.13553898144260
H            2.96045926637786        0.69452578929880        0.24498683499571
H            2.70555253800953        2.36025157324927       -0.35540049281838
H            3.29622564005655        1.67493887131417        4.30125317049286
H            1.96744498544940        0.97329348628471        3.36120061941973
H            4.90096497856486        0.03909059481096        3.29818637413080
H            3.55024018706657       -0.80863216095404        4.03628671732582
H            3.61255548083253       -0.63293931412219        2.28943540131851
H            5.60432822532447        2.72619421781309        2.73421618417165
H            5.53254798561669        1.57878234156543        1.38858253263336
H            5.20335109793780        4.62509409511228        1.16193524047983
H            6.59403285099317        3.68347494665266        0.64849528990486
H            5.06253534320197        3.49374049301801       -0.19337034108817
H            1.69593067607455        3.67026388785991        3.09329392480828
H            3.26908257070684        4.48570751595222        3.06721376317845
H            1.29757682939376        4.22367660295963        0.72799329433908
H            1.66558692212387        5.69099258150261        1.62288755307876
H            2.89157891587374        4.97926302461273        0.58100827737132

          :  Hamiltonian                  GFN2-xTB          :
         :: total energy             -36.678240068778 Eh    ::
         :: gradient norm              0.000244341561 Eh/a0 ::
         :: HOMO-LUMO gap              6.908689285891 eV    ::
         :: SCC energy               -37.162479630329 Eh    ::
         :: -> dispersion             -0.025281205167 Eh    ::
         :: repulsion energy           0.484239561551 Eh    ::

    * Orbital Energies and Occupations

         #    Occupation            Energy/Eh            Energy/eV
      -------------------------------------------------------------
         1        2.0000           -0.8598767             -23.3984
       ...           ...                  ...                  ...
        22        2.0000           -0.6216913             -16.9171
        23        2.0000           -0.6184035             -16.8276
        24        2.0000           -0.6133993             -16.6914
        25        2.0000           -0.6029825             -16.4080
        26        2.0000           -0.6007935             -16.3484
        27        2.0000           -0.5929142             -16.1340
        28        2.0000           -0.5873543             -15.9827
        29        2.0000           -0.5863224             -15.9546
        30        2.0000           -0.5781736             -15.7329
        31        2.0000           -0.5757082             -15.6658
        32        2.0000           -0.5724664             -15.5776
        33        2.0000           -0.5593528             -15.2208
        34        2.0000           -0.5439717             -14.8022 (HOMO)
        35                         -0.2900820              -7.8935 (LUMO)
        36                         -0.2829414              -7.6992
        37                         -0.2779166              -7.5625
        38                         -0.1979597              -5.3868
        39                         -0.1436541              -3.9090
        40                         -0.0767668              -2.0889
        41                         -0.0603320              -1.6417
        42                         -0.0526753              -1.4334
        43                         -0.0290495              -0.7905
        44                         -0.0192217              -0.5230
        45                         -0.0150315              -0.4090
       ...                                ...                  ...
        71                          0.7493974              20.3921
      -------------------------------------------------------------
                  HL-Gap            0.2538897 Eh            6.9087 eV

     #   Z          covCN         q      C6AA      α(0)
     1   6 C        3.750    -0.124    22.934     6.830
     2   6 C        3.689     0.071    19.576     6.332
     3   8 O        1.866    -0.298    18.939     5.877
     4   6 C        3.641     0.068    19.788     6.397
     5  15 P        4.082     0.201   151.595    22.117
     6   6 C        3.749    -0.074    21.972     6.685
     7   6 C        3.817    -0.118    22.745     6.788
     8   6 C        3.749    -0.075    22.000     6.690
     9   6 C        3.815    -0.118    22.747     6.788
    10   6 C        3.749    -0.066    21.838     6.665
    11   6 C        3.809    -0.119    22.765     6.792
    12   1 H        0.925     0.058     2.220     2.330
    13   1 H        0.925     0.067     2.114     2.274
    14   1 H        0.925     0.047     2.358     2.401
    15   1 H        0.924     0.074     2.043     2.235
    16   1 H        0.924     0.039     2.460     2.453
    17   1 H        0.924     0.071     2.074     2.252
    18   1 H        0.924     0.079     1.989     2.206
    19   1 H        0.927     0.093     1.854     2.129
    20   1 H        0.928     0.109     1.702     2.040
    21   1 H        0.925     0.064     2.156     2.296
    22   1 H        0.925     0.082     1.962     2.190
    23   1 H        0.925     0.062     2.177     2.308
    24   1 H        0.927     0.093     1.848     2.126
    25   1 H        0.927     0.095     1.830     2.115
    26   1 H        0.925     0.068     2.110     2.271
    27   1 H        0.925     0.081     1.972     2.196
    28   1 H        0.925     0.060     2.200     2.320
    29   1 H        0.927     0.103     1.762     2.076
    30   1 H        0.927     0.093     1.849     2.127
    31   1 H        0.925     0.074     2.038     2.232
    32   1 H        0.925     0.077     2.005     2.214
    33   1 H        0.925     0.063     2.163     2.300

Wiberg/Mayer (AO) data.
largest (>0.10) Wiberg bond orders for each atom

     #   Z sym  total        # sym  WBO       # sym  WBO       # sym  WBO
 ---------------------------------------------------------------------------
     1   6 C    3.991 --     2 C    1.016    14 H    0.985    12 H    0.984
                            13 H    0.980
     2   6 C    3.925 --     1 C    1.016    16 H    0.970    15 H    0.967
                             3 O    0.942
     3   8 O    2.129 --     4 C    0.998     2 C    0.942
     4   6 C    3.963 --     3 O    0.998     5 P    0.969    17 H    0.933
                            18 H    0.932
     5  15 P    4.565 --     6 C    1.017    10 C    1.011     8 C    1.001
                             4 C    0.969
     6   6 C    3.986 --     5 P    1.017     7 C    1.001    19 H    0.934
                            20 H    0.929
     7   6 C    3.983 --     6 C    1.001    21 H    0.980    23 H    0.978
                            22 H    0.977
     8   6 C    3.984 --     9 C    1.001     5 P    1.001    24 H    0.939
                            25 H    0.933
     9   6 C    3.985 --     8 C    1.001    28 H    0.979    26 H    0.978
                            27 H    0.977
    10   6 C    3.985 --     5 P    1.011    11 C    0.999    30 H    0.934
                            29 H    0.933
    11   6 C    3.981 --    10 C    0.999    31 H    0.978    33 H    0.978
                            32 H    0.977
    12   1 H    0.997 --     1 C    0.984
    13   1 H    0.995 --     1 C    0.980
    14   1 H    0.998 --     1 C    0.985
    15   1 H    0.994 --     2 C    0.967
    16   1 H    0.998 --     2 C    0.970
    17   1 H    0.995 --     4 C    0.933
    18   1 H    0.994 --     4 C    0.932
    19   1 H    0.991 --     6 C    0.934
    20   1 H    0.988 --     6 C    0.929
    21   1 H    0.996 --     7 C    0.980
    22   1 H    0.993 --     7 C    0.977
    23   1 H    0.996 --     7 C    0.978
    24   1 H    0.991 --     8 C    0.939
    25   1 H    0.991 --     8 C    0.933
    26   1 H    0.995 --     9 C    0.978
    27   1 H    0.993 --     9 C    0.977
    28   1 H    0.996 --     9 C    0.979
    29   1 H    0.989 --    10 C    0.933
    30   1 H    0.991 --    10 C    0.934
    31   1 H    0.994 --    11 C    0.978
    32   1 H    0.993 --    11 C    0.977
    33   1 H    0.996 --    11 C    0.978
 ---------------------------------------------------------------------------

molecular dipole:
                 x           y           z       tot (Debye)
 q only:        6.087       4.357       3.184
   full:        6.138       4.228       3.104      20.521

           -------------------------------------------------
          | TOTAL ENERGY              -36.678240068778 Eh   |
          | GRADIENT NORM               0.000244341561 Eh/α |
          | HOMO-LUMO GAP               6.908689285891 eV   |
           -------------------------------------------------

 * finished run on 2024/12/20 at 02:03:17.198
