   * xtb version 6.7.1 (edcfbbe) compiled by 'conda@3ef47c1a292c' on 2024-11-25

   ID    Z sym.   atoms
    1    6 C      1, 2, 4-11
    2    7 N      3
    3    1 H      12-35

          program call               : xtb C0023.xyz --opt --namespace C0023 --charge +1
          :  Hamiltonian                  GFN2-xTB          :
 * total energy  :   -36.1671961 Eh     change       -0.6579626E-10 Eh
 * total energy  :   -36.1764326 Eh     change       -0.9236531E-02 Eh
 * total energy  :   -36.1789460 Eh     change       -0.2513353E-02 Eh
 * total energy  :   -36.1790330 Eh     change       -0.8704078E-04 Eh
 * total energy  :   -36.1790809 Eh     change       -0.4791233E-04 Eh
 * total energy  :   -36.1791154 Eh     change       -0.3452484E-04 Eh
 * total energy  :   -36.1791440 Eh     change       -0.2856223E-04 Eh
 * total energy  :   -36.1791752 Eh     change       -0.3116521E-04 Eh
 * total energy  :   -36.1791908 Eh     change       -0.1559879E-04 Eh
 * total energy  :   -36.1792011 Eh     change       -0.1036012E-04 Eh
 * total energy  :   -36.1792095 Eh     change       -0.8357296E-05 Eh
 * total energy  :   -36.1792128 Eh     change       -0.3273078E-05 Eh
   *** GEOMETRY OPTIMIZATION CONVERGED AFTER 12 ITERATIONS ***

 final structure:
================
35
 xtb: 6.7.1 (edcfbbe)
C            0.93932179032962       -0.07053965493850       -0.10058284304703
C            0.59071914143874       -1.54217778577521       -0.29073309960777
N            1.02780104109288       -2.48029617958649        0.79429102311224
C            0.43376503750464       -1.98899352003449        2.11643248522035
C           -1.07402680414884       -1.74197095562170        2.06439010355378
C            0.73694152351552       -2.88295600002166        3.31547096505932
C            0.52799647216864       -3.89939722145183        0.48603259495380
C            0.24712048274550       -4.18907686647588       -0.99019297305533
C            1.42928694880423       -5.01864743785244        1.00963906437140
C            2.52075548916300       -2.40770846068565        0.91540186597631
C            3.32126175041256       -2.56690537292738       -0.37076095081634
H            0.42913410942376        0.38565259342111        0.74213310032561
H            0.61283368007053        0.45416409157742       -0.99586172907721
H            2.00671577308351        0.09972387086630        0.00043279222369
H           -0.48835994571098       -1.63753839674125       -0.39764970356423
H            1.05147757627626       -1.87992330860220       -1.21594802645334
H            0.92174166237014       -1.02800649647472        2.29713627140963
H           -1.64226532891621       -2.63582189168420        1.82079793371238
H           -1.38959141596273       -1.42643460132487        3.05585181065145
H           -1.35616387726549       -0.94971377231226        1.37862012317823
H            1.79674981616725       -3.07717945914483        3.44575248293452
H            0.40536645460153       -2.35812559249842        4.20831789294844
H            0.19310869194771       -3.82207668872598        3.27551630959552
H           -0.42924528263020       -3.97335652794531        1.00534902457897
H            1.13203373543506       -4.10246340098873       -1.61303551328757
H           -0.09022751280159       -5.22065363492868       -1.05657526057471
H           -0.54451047836479       -3.57504222878783       -1.40702698604794
H            1.69080892820504       -4.92081808634772        2.05651114907540
H            0.87844312107241       -5.95135591912142        0.91082847689660
H            2.33764163283265       -5.11922725853096        0.42316138872559
H            2.76547506955192       -1.43966812407492        1.35488930139700
H            2.84141970957779       -3.17314053574888        1.61630531218997
H            3.20268213964105       -1.72622320551839       -1.04748069916538
H            4.37235284548222       -2.61144532478224       -0.09431494434909
H            3.08666602288609       -3.48337664621009       -0.90108874304465

          :  Hamiltonian                  GFN2-xTB          :
         :: total energy             -36.179212754046 Eh    ::
         :: gradient norm              0.000588511708 Eh/a0 ::
         :: HOMO-LUMO gap              8.852330343081 eV    ::
         :: SCC energy               -36.704804594393 Eh    ::
         :: -> dispersion             -0.028734693763 Eh    ::
         :: repulsion energy           0.525591840347 Eh    ::

    * Orbital Energies and Occupations

         #    Occupation            Energy/Eh            Energy/eV
      -------------------------------------------------------------
         1        2.0000           -0.8402226             -22.8636
       ...           ...                  ...                  ...
        22        2.0000           -0.6238605             -16.9761
        23        2.0000           -0.6206819             -16.8896
        24        2.0000           -0.6142222             -16.7138
        25        2.0000           -0.6092119             -16.5775
        26        2.0000           -0.6065620             -16.5054
        27        2.0000           -0.6049548             -16.4617
        28        2.0000           -0.6042369             -16.4421
        29        2.0000           -0.5955683             -16.2062
        30        2.0000           -0.5950122             -16.1911
        31        2.0000           -0.5892677             -16.0348
        32        2.0000           -0.5868876             -15.9700
        33        2.0000           -0.5780954             -15.7308
        34        2.0000           -0.5765047             -15.6875 (HOMO)
        35                         -0.2511875              -6.8352 (LUMO)
        36                         -0.1881065              -5.1186
        37                         -0.1620869              -4.4106
        38                         -0.1554587              -4.2302
        39                         -0.0682066              -1.8560
        40                         -0.0554548              -1.5090
        41                         -0.0536050              -1.4587
        42                         -0.0509518              -1.3865
        43                         -0.0423868              -1.1534
        44                         -0.0365071              -0.9934
        45                         -0.0276010              -0.7511
       ...                                ...                  ...
        68                          0.1955225               5.3204
      -------------------------------------------------------------
                  HL-Gap            0.3253172 Eh            8.8523 eV

     #   Z          covCN         q      C6AA      α(0)
     1   6 C        3.750    -0.127    22.998     6.839
     2   6 C        3.752    -0.033    21.220     6.569
     3   7 N        3.608     0.079    19.862     6.619
     4   6 C        3.794     0.019    20.265     6.410
     5   6 C        3.755    -0.130    23.049     6.845
     6   6 C        3.756    -0.130    23.051     6.846
     7   6 C        3.784     0.021    20.243     6.409
     8   6 C        3.756    -0.131    23.063     6.847
     9   6 C        3.757    -0.132    23.082     6.850
    10   6 C        3.750    -0.029    21.148     6.558
    11   6 C        3.750    -0.124    22.946     6.832
    12   1 H        0.925     0.062     2.175     2.306
    13   1 H        0.925     0.078     1.997     2.210
    14   1 H        0.925     0.064     2.157     2.297
    15   1 H        0.925     0.083     1.952     2.185
    16   1 H        0.925     0.093     1.846     2.125
    17   1 H        0.924     0.075     2.029     2.228
    18   1 H        0.925     0.060     2.198     2.319
    19   1 H        0.925     0.081     1.969     2.194
    20   1 H        0.925     0.064     2.152     2.294
    21   1 H        0.925     0.057     2.234     2.337
    22   1 H        0.925     0.079     1.986     2.204
    23   1 H        0.925     0.067     2.118     2.276
    24   1 H        0.924     0.076     2.023     2.224
    25   1 H        0.925     0.061     2.182     2.310
    26   1 H        0.925     0.080     1.976     2.198
    27   1 H        0.925     0.059     2.205     2.322
    28   1 H        0.925     0.063     2.162     2.299
    29   1 H        0.925     0.076     2.021     2.223
    30   1 H        0.925     0.067     2.119     2.276
    31   1 H        0.924     0.078     2.003     2.213
    32   1 H        0.925     0.088     1.902     2.157
    33   1 H        0.925     0.064     2.151     2.294
    34   1 H        0.925     0.076     2.016     2.220
    35   1 H        0.925     0.063     2.164     2.300

Wiberg/Mayer (AO) data.
largest (>0.10) Wiberg bond orders for each atom

     #   Z sym  total        # sym  WBO       # sym  WBO       # sym  WBO
 ---------------------------------------------------------------------------
     1   6 C    3.984 --     2 C    1.021    12 H    0.979    14 H    0.979
                            13 H    0.974
     2   6 C    3.937 --     1 C    1.021    15 H    0.963    16 H    0.960
                             3 N    0.935
     3   7 N    3.785 --    10 C    0.937     2 C    0.935     4 C    0.904
                             7 C    0.898
     4   6 C    3.939 --     6 C    1.013     5 C    1.013    17 H    0.956
                             3 N    0.904
     5   6 C    3.985 --     4 C    1.013    20 H    0.977    18 H    0.974
                            19 H    0.972
     6   6 C    3.985 --     4 C    1.013    23 H    0.979    21 H    0.977
                            22 H    0.973
     7   6 C    3.937 --     9 C    1.012     8 C    1.012    24 H    0.954
                             3 N    0.898
     8   6 C    3.985 --     7 C    1.012    27 H    0.981    25 H    0.977
                            26 H    0.972
     9   6 C    3.984 --     7 C    1.012    30 H    0.979    28 H    0.974
                            29 H    0.973
    10   6 C    3.939 --    11 C    1.021    31 H    0.964    32 H    0.960
                             3 N    0.937
    11   6 C    3.984 --    10 C    1.021    33 H    0.980    35 H    0.976
                            34 H    0.974
    12   1 H    0.996 --     1 C    0.979
    13   1 H    0.993 --     1 C    0.974
    14   1 H    0.996 --     1 C    0.979
    15   1 H    0.993 --     2 C    0.963
    16   1 H    0.991 --     2 C    0.960
    17   1 H    0.994 --     4 C    0.956
    18   1 H    0.996 --     5 C    0.974
    19   1 H    0.993 --     5 C    0.972
    20   1 H    0.996 --     5 C    0.977
    21   1 H    0.997 --     6 C    0.977
    22   1 H    0.993 --     6 C    0.973
    23   1 H    0.995 --     6 C    0.979
    24   1 H    0.994 --     7 C    0.954
    25   1 H    0.996 --     8 C    0.977
    26   1 H    0.993 --     8 C    0.972
    27   1 H    0.996 --     8 C    0.981
    28   1 H    0.996 --     9 C    0.974
    29   1 H    0.994 --     9 C    0.973
    30   1 H    0.995 --     9 C    0.979
    31   1 H    0.994 --    10 C    0.964
    32   1 H    0.992 --    10 C    0.960
    33   1 H    0.996 --    11 C    0.980
    34   1 H    0.994 --    11 C    0.974
    35   1 H    0.996 --    11 C    0.976
 ---------------------------------------------------------------------------

molecular dipole:
                 x           y           z       tot (Debye)
 q only:        1.899      -4.811       1.500
   full:        1.881      -4.791       1.534      13.650

           -------------------------------------------------
          | TOTAL ENERGY              -36.179212754046 Eh   |
          | GRADIENT NORM               0.000588511708 Eh/α |
          | HOMO-LUMO GAP               8.852330343081 eV   |
           -------------------------------------------------

 * finished run on 2024/12/20 at 02:03:15.175
