   * xtb version 6.7.1 (edcfbbe) compiled by 'conda@3ef47c1a292c' on 2024-11-25

   ID    Z sym.   atoms
    1    7 N      1, 5
    2    6 C      2-4, 6-12
    3    1 H      13-25

          program call               : xtb C0028.xyz --opt --namespace C0028 --charge +1
          :  Hamiltonian                  GFN2-xTB          :
 * total energy  :   -33.4199622 Eh     change       -0.2280366E-08 Eh
 * total energy  :   -33.4519710 Eh     change       -0.3200877E-01 Eh
 * total energy  :   -33.4535573 Eh     change       -0.1586278E-02 Eh
 * total energy  :   -33.4539350 Eh     change       -0.3777415E-03 Eh
 * total energy  :   -33.4541537 Eh     change       -0.2186649E-03 Eh
 * total energy  :   -33.4543672 Eh     change       -0.2134699E-03 Eh
 * total energy  :   -33.4546010 Eh     change       -0.2337937E-03 Eh
 * total energy  :   -33.4548912 Eh     change       -0.2902265E-03 Eh
 * total energy  :   -33.4551778 Eh     change       -0.2866461E-03 Eh
 * total energy  :   -33.4554036 Eh     change       -0.2257943E-03 Eh
 * total energy  :   -33.4559783 Eh     change        0.1159625E-06 Eh
 * total energy  :   -33.4559851 Eh     change       -0.6741801E-05 Eh
 * total energy  :   -33.4559897 Eh     change       -0.4676834E-05 Eh
 * total energy  :   -33.4559964 Eh     change       -0.6689328E-05 Eh
 * total energy  :   -33.4560030 Eh     change       -0.6609951E-05 Eh
 * total energy  :   -33.4560086 Eh     change       -0.5556625E-05 Eh
 * total energy  :   -33.4560000 Eh     change        0.8605128E-05 Eh
 * total energy  :   -33.4560158 Eh     change       -0.1582801E-04 Eh
 * total energy  :   -33.4560178 Eh     change       -0.2027759E-05 Eh
   *** GEOMETRY OPTIMIZATION CONVERGED AFTER 45 ITERATIONS ***

 final structure:
================
25
 xtb: 6.7.1 (edcfbbe)
N            1.16801596976371        0.29688443052547        0.87662360086257
C            2.23770169441939        0.24619582861091        0.48149589928416
C            3.62449112612790        0.14174024275383        0.08977117351670
C            4.53026427023260        0.21201784891747        1.33435720472125
N            4.10218340501168       -0.76997424470577        2.31986537015848
C            4.58117368639250       -2.01919503040135        2.26068114964430
C            4.12630334727447       -3.00976533591545        3.11597076209568
C            4.66679892711560       -4.39380263874710        3.04898594244969
C            3.13285133212330       -2.66576366547241        4.03462234494379
C            2.63637087703558       -1.36800450298270        4.09480244146195
C            3.16525437731346       -0.43538587534521        3.20938572395372
C            1.56747352950698       -0.96336952123687        5.04538169102964
H            3.76372457395122       -0.80249509933650       -0.44419507972774
H            3.87145618192458        0.96115943611290       -0.58863226281701
H            5.56479092095222        0.01494663256209        1.04677879487901
H            4.47077088206580        1.20804666640755        1.77868689849225
H            5.34000345176658       -2.22481517344450        1.52044553115135
H            3.87992072666751       -5.08675371957870        2.75539232088582
H            5.48270600809955       -4.47262712767423        2.33772175627007
H            5.02135911517876       -4.70741408960287        4.02854204366300
H            2.74848113651643       -3.41960950176252        4.70526077724438
H            2.81892273908035        0.58703904563245        3.21577087844521
H            1.88169887442065       -0.10494775090755        5.63567982133864
H            0.67645124018213       -0.66792521329586        4.49244285388432
H            1.30768160687670       -1.77667164111245        5.71538236217000

          :  Hamiltonian                  GFN2-xTB          :
         :: total energy             -33.456017838048 Eh    ::
         :: gradient norm              0.000622815752 Eh/a0 ::
         :: HOMO-LUMO gap              2.951515716479 eV    ::
         :: SCC energy               -34.053149098408 Eh    ::
         :: -> dispersion             -0.020195690798 Eh    ::
         :: repulsion energy           0.597131260361 Eh    ::

    * Orbital Energies and Occupations

         #    Occupation            Energy/Eh            Energy/eV
      -------------------------------------------------------------
         1        2.0000           -0.8758496             -23.8331
       ...           ...                  ...                  ...
        19        2.0000           -0.6527077             -17.7611
        20        2.0000           -0.6426841             -17.4883
        21        2.0000           -0.6415375             -17.4571
        22        2.0000           -0.6405492             -17.4302
        23        2.0000           -0.6228485             -16.9486
        24        2.0000           -0.6184628             -16.8292
        25        2.0000           -0.6101826             -16.6039
        26        2.0000           -0.6040960             -16.4383
        27        2.0000           -0.6000041             -16.3269
        28        2.0000           -0.5976082             -16.2617
        29        2.0000           -0.5872178             -15.9790
        30        2.0000           -0.5791614             -15.7598
        31        2.0000           -0.5592915             -15.2191 (HOMO)
        32                         -0.4508253             -12.2676 (LUMO)
        33                         -0.4131771             -11.2431
        34                         -0.3469788              -9.4418
        35                         -0.3389956              -9.2245
        36                         -0.2990659              -8.1380
        37                         -0.1809763              -4.9246
        38                         -0.0808141              -2.1991
        39                         -0.0647404              -1.7617
        40                         -0.0582772              -1.5858
        41                         -0.0481579              -1.3104
        42                         -0.0189603              -0.5159
       ...                                ...                  ...
        61                          1.0094551              27.4687
      -------------------------------------------------------------
                  HL-Gap            0.1084662 Eh            2.9515 eV

     #   Z          covCN         q      C6AA      α(0)
     1   7 N        0.911    -0.198    25.307     7.276
     2   6 C        1.899     0.111    28.368     8.602
     3   6 C        3.804    -0.064    21.722     6.635
     4   6 C        3.766    -0.022    21.003     6.532
     5   7 N        2.747     0.093    19.630     6.580
     6   6 C        2.896     0.009    27.805     8.646
     7   6 C        2.959     0.046    26.955     8.516
     8   6 C        3.759    -0.132    23.096     6.851
     9   6 C        2.936    -0.016    28.410     8.742
    10   6 C        2.959     0.050    26.886     8.505
    11   6 C        2.898     0.016    27.664     8.624
    12   6 C        3.759    -0.135    23.141     6.858
    13   1 H        0.924     0.093     1.846     2.125
    14   1 H        0.924     0.112     1.676     2.025
    15   1 H        0.924     0.096     1.825     2.113
    16   1 H        0.924     0.096     1.821     2.111
    17   1 H        0.926     0.096     1.821     2.110
    18   1 H        0.925     0.097     1.817     2.108
    19   1 H        0.925     0.076     2.021     2.223
    20   1 H        0.925     0.095     1.834     2.118
    21   1 H        0.926     0.099     1.792     2.093
    22   1 H        0.926     0.104     1.745     2.066
    23   1 H        0.925     0.091     1.871     2.139
    24   1 H        0.925     0.101     1.778     2.085
    25   1 H        0.925     0.086     1.922     2.168

Wiberg/Mayer (AO) data.
largest (>0.10) Wiberg bond orders for each atom

     #   Z sym  total        # sym  WBO       # sym  WBO       # sym  WBO
 ---------------------------------------------------------------------------
     1   7 N    3.021 --     2 C    2.866
     2   6 C    3.951 --     1 N    2.866     3 C    1.049
     3   6 C    3.987 --     2 C    1.049     4 C    0.964    13 H    0.944
                            14 H    0.936
     4   6 C    3.945 --     5 N    0.969    16 H    0.965     3 C    0.964
                            15 H    0.963
     5   7 N    3.754 --    11 C    1.334     6 C    1.308     4 C    0.969
     6   6 C    3.957 --     7 C    1.416     5 N    1.308    17 H    0.956
     7   6 C    3.981 --     6 C    1.416     9 C    1.378     8 C    1.044
     8   6 C    3.982 --     7 C    1.044    19 H    0.981    20 H    0.956
                            18 H    0.950
     9   6 C    3.979 --    10 C    1.403     7 C    1.378    21 H    0.960
    10   6 C    3.980 --     9 C    1.403    11 C    1.389    12 C    1.045
    11   6 C    3.956 --    10 C    1.389     5 N    1.334    22 H    0.954
    12   6 C    3.981 --    10 C    1.045    25 H    0.979    23 H    0.956
                            24 H    0.948
    13   1 H    0.991 --     3 C    0.944
    14   1 H    0.986 --     3 C    0.936
    15   1 H    0.991 --     4 C    0.963
    16   1 H    0.990 --     4 C    0.965
    17   1 H    0.990 --     6 C    0.956
    18   1 H    0.990 --     8 C    0.950
    19   1 H    0.994 --     8 C    0.981
    20   1 H    0.991 --     8 C    0.956
    21   1 H    0.990 --     9 C    0.960
    22   1 H    0.989 --    11 C    0.954
    23   1 H    0.991 --    12 C    0.956
    24   1 H    0.989 --    12 C    0.948
    25   1 H    0.992 --    12 C    0.979
 ---------------------------------------------------------------------------

molecular dipole:
                 x           y           z       tot (Debye)
 q only:        7.656      -2.726       5.146
   full:        8.144      -2.667       4.898      25.088

           -------------------------------------------------
          | TOTAL ENERGY              -33.456017838048 Eh   |
          | GRADIENT NORM               0.000622815752 Eh/α |
          | HOMO-LUMO GAP               2.951515716479 eV   |
           -------------------------------------------------

 * finished run on 2024/12/20 at 02:03:21.154
