   * xtb version 6.7.1 (edcfbbe) compiled by 'conda@3ef47c1a292c' on 2024-11-25

   ID    Z sym.   atoms
    1    6 C      1-7, 9, 11-22
    2    7 N      8
    3    8 O      10
    4    1 H      23-64

          program call               : xtb C0020.xyz --opt --namespace C0020 --charge +1
          :  Hamiltonian                  GFN2-xTB          :
 * total energy  :   -70.8663442 Eh     change       -0.3136904E-09 Eh
 * total energy  :   -70.8738024 Eh     change       -0.7458227E-02 Eh
 * total energy  :   -70.8756626 Eh     change       -0.1860202E-02 Eh
 * total energy  :   -70.8760380 Eh     change       -0.3753729E-03 Eh
 * total energy  :   -70.8764608 Eh     change       -0.4228775E-03 Eh
 * total energy  :   -70.8766680 Eh     change       -0.2071639E-03 Eh
 * total energy  :   -70.8768768 Eh     change       -0.2087389E-03 Eh
 * total energy  :   -70.8770771 Eh     change       -0.2003932E-03 Eh
 * total energy  :   -70.8772815 Eh     change       -0.2043290E-03 Eh
 * total energy  :   -70.8775017 Eh     change       -0.2201793E-03 Eh
 * total energy  :   -70.8797377 Eh     change       -0.2467523E-04 Eh
 * total energy  :   -70.8797629 Eh     change       -0.2524723E-04 Eh
 * total energy  :   -70.8797807 Eh     change       -0.1773191E-04 Eh
 * total energy  :   -70.8797896 Eh     change       -0.8932287E-05 Eh
 * total energy  :   -70.8798042 Eh     change       -0.1462477E-04 Eh
 * total energy  :   -70.8798099 Eh     change       -0.5718118E-05 Eh
 * total energy  :   -70.8798186 Eh     change       -0.8633014E-05 Eh
 * total energy  :   -70.8798281 Eh     change       -0.9527822E-05 Eh
 * total energy  :   -70.8798331 Eh     change       -0.4986296E-05 Eh
   *** GEOMETRY OPTIMIZATION CONVERGED AFTER 41 ITERATIONS ***

 final structure:
================
64
 xtb: 6.7.1 (edcfbbe)
C            3.35453099373324      -12.97828640166812       -0.49713679685506
C            2.18279191496882      -12.24843835725321       -1.14249638424052
C            0.86243430058434      -12.45050143685593       -0.39666796712451
C            0.85444371159982      -11.94466891325267        1.04774781652086
C            1.19100406172772      -10.46088041927686        1.22160148632501
C            0.30642938769848       -9.50045231605416        0.41725042410277
C           -1.18801168319968       -9.54970044745374        0.74804638542567
N           -1.69677868027515       -8.53524141523066        1.72548897698170
C           -1.68190973046760       -7.16245197440290        1.07148106178070
O           -2.40898629598126       -7.20656428168939       -0.08511609403420
C           -3.51859568719239       -6.28560687603879       -0.22552499874465
C           -3.02435021064295       -4.86296124380877       -0.49633840650646
C           -2.45921252253616       -4.63626945153279       -1.90157118617253
C           -1.09326934853880       -5.29227451114759       -2.09388855642996
C           -3.48202055177997       -5.10461950680834       -2.93671162458605
C           -3.88396009391424       -6.55898886752698       -2.72388557103510
C           -4.41461992957790       -6.88742999752844       -1.31959563783325
C           -5.92644429178491       -6.62164642417746       -1.12214143268422
C           -6.49155305256489       -7.52994905361339       -0.02575413649452
C           -6.32649953579845       -5.17920031936034       -0.82530550393350
C           -3.09278405090185       -8.87954843767852        2.05539928292558
C           -0.90142526805332       -8.50391952518151        2.96001813370585
H            3.59907353411542      -12.55769222050679        0.47512196836350
H            4.23627464433549      -12.89941519528885       -1.12770398547861
H            3.12136390655120      -14.03252832699605       -0.36877370972994
H            2.41497117412598      -11.18439532310396       -1.22131937157516
H            2.05209448887289      -12.62529546221151       -2.15881212364819
H            0.05847990315860      -11.97117536746197       -0.96091278481093
H            0.64140788905230      -13.51946747345058       -0.37282484651035
H           -0.12535999293799      -12.16409186942159        1.48150961016361
H            1.58177793899435      -12.51615028380553        1.62458995177962
H            1.15591846140162      -10.22579317701876        2.28674305725857
H            2.21899392667299      -10.29977278259488        0.89675021484283
H            0.69723668516498       -8.48754468506142        0.51753019498844
H            0.40966160729364       -9.76048490800630       -0.63612974295224
H           -1.76674325393116       -9.38556404271939       -0.16251365542009
H           -1.43228109371704      -10.53656785944891        1.14199017305735
H           -2.08287751167950       -6.44605245671471        1.80031490340548
H           -0.63170457402030       -6.91909773872089        0.86732170424932
H           -4.06718162901767       -6.28191414270850        0.72846207231982
H           -2.26446060301933       -4.60523311239797        0.24759810810489
H           -3.86606103374953       -4.18785316012888       -0.34835580764308
H           -2.32197354132303       -3.55624120732677       -2.02406011895743
H           -1.14589652554826       -6.36770973710132       -1.95542141193883
H           -0.72354978624143       -5.09085815220627       -3.09591299434988
H           -0.37708643923576       -4.88389850069324       -1.38292031069999
H           -4.36002538106596       -4.46097232412532       -2.88829851081547
H           -3.05947597102881       -5.00074703352623       -3.93723472571312
H           -3.01040434150348       -7.18634077138785       -2.90842674388828
H           -4.64083464539976       -6.83618708024765       -3.45878023350629
H           -4.30755457134352       -7.97573450003128       -1.21590981331412
H           -6.40699725048480       -6.91162049009564       -2.06233369239405
H           -6.06989381318224       -7.28514660752937        0.94857667796785
H           -7.56857657011579       -7.40245409495458        0.04054364022109
H           -6.29146241967800       -8.57847762075838       -0.24087457927929
H           -5.96095785865198       -4.49584591542869       -1.58423870203056
H           -7.41162989080516       -5.10722190082497       -0.81167463010368
H           -5.96313299210305       -4.85776795958786        0.14839162795850
H           -3.14071921029403       -9.87070971218126        2.50159882401452
H           -3.49784132829265       -8.15796202459381        2.76336695235282
H           -3.69654861279633       -8.86649499302484        1.14932339781222
H           -0.89150720017763       -9.49373579334619        3.41301528880948
H            0.12050650988411       -8.19840220217002        2.75003651791200
H           -1.33619606533706       -7.79954161353190        3.66797833812594

          :  Hamiltonian                  GFN2-xTB          :
         :: total energy             -70.879833095312 Eh    ::
         :: gradient norm              0.000944997336 Eh/a0 ::
         :: HOMO-LUMO gap              7.336626221133 eV    ::
         :: SCC energy               -71.847958517325 Eh    ::
         :: -> dispersion             -0.057735137989 Eh    ::
         :: repulsion energy           0.968125422013 Eh    ::

    * Orbital Energies and Occupations

         #    Occupation            Energy/Eh            Energy/eV
      -------------------------------------------------------------
         1        2.0000           -0.8644613             -23.5232
       ...           ...                  ...                  ...
        54        2.0000           -0.5414434             -14.7334
        55        2.0000           -0.5409462             -14.7199
        56        2.0000           -0.5367054             -14.6045
        57        2.0000           -0.5350958             -14.5607
        58        2.0000           -0.5290149             -14.3952
        59        2.0000           -0.5247850             -14.2801
        60        2.0000           -0.5182189             -14.1015
        61        2.0000           -0.5142514             -13.9935
        62        2.0000           -0.5092329             -13.8569
        63        2.0000           -0.5069227             -13.7941
        64        2.0000           -0.5043044             -13.7228
        65        2.0000           -0.5025442             -13.6749
        66        2.0000           -0.5007944             -13.6273 (HOMO)
        67                         -0.2311783              -6.2907 (LUMO)
        68                         -0.1807001              -4.9171
        69                         -0.1450140              -3.9460
        70                         -0.1364275              -3.7124
        71                         -0.1215175              -3.3067
        72                         -0.0683535              -1.8600
        73                         -0.0580600              -1.5799
        74                         -0.0490806              -1.3356
        75                         -0.0368352              -1.0023
        76                         -0.0314453              -0.8557
        77                         -0.0273467              -0.7441
       ...                                ...                  ...
       130                          0.2519315               6.8554
      -------------------------------------------------------------
                  HL-Gap            0.2696161 Eh            7.3366 eV

     #   Z          covCN         q      C6AA      α(0)
     1   6 C        3.752    -0.107    22.603     6.780
     2   6 C        3.799    -0.056    21.575     6.613
     3   6 C        3.800    -0.063    21.710     6.634
     4   6 C        3.800    -0.063    21.712     6.634
     5   6 C        3.799    -0.070    21.839     6.654
     6   6 C        3.799    -0.072    21.884     6.661
     7   6 C        3.758    -0.040    21.344     6.587
     8   7 N        3.618     0.107    19.401     6.542
     9   6 C        3.643     0.123    18.897     6.250
    10   8 O        1.700    -0.300    18.999     5.885
    11   6 C        3.735     0.111    18.848     6.196
    12   6 C        3.805    -0.072    21.865     6.657
    13   6 C        3.851    -0.013    20.768     6.482
    14   6 C        3.753    -0.110    22.665     6.789
    15   6 C        3.806    -0.065    21.745     6.638
    16   6 C        3.803    -0.064    21.717     6.635
    17   6 C        3.850    -0.028    21.046     6.525
    18   6 C        3.848    -0.020    20.892     6.501
    19   6 C        3.756    -0.111    22.671     6.789
    20   6 C        3.755    -0.111    22.674     6.790
    21   6 C        3.723    -0.086    22.262     6.738
    22   6 C        3.713    -0.092    22.390     6.761
    23   1 H        0.925     0.034     2.530     2.487
    24   1 H        0.925     0.042     2.425     2.435
    25   1 H        0.925     0.041     2.433     2.439
    26   1 H        0.924     0.028     2.616     2.529
    27   1 H        0.924     0.038     2.476     2.461
    28   1 H        0.924     0.024     2.675     2.558
    29   1 H        0.924     0.044     2.400     2.423
    30   1 H        0.924     0.020     2.737     2.587
    31   1 H        0.925     0.053     2.280     2.361
    32   1 H        0.924     0.031     2.571     2.507
    33   1 H        0.925     0.060     2.196     2.317
    34   1 H        0.924     0.045     2.378     2.412
    35   1 H        0.925     0.079     1.985     2.203
    36   1 H        0.924     0.097     1.810     2.104
    37   1 H        0.924     0.089     1.885     2.147
    38   1 H        0.924     0.062     2.179     2.309
    39   1 H        0.924     0.076     2.017     2.221
    40   1 H        0.923     0.019     2.755     2.596
    41   1 H        0.924     0.027     2.623     2.533
    42   1 H        0.925     0.057     2.231     2.336
    43   1 H        0.924     0.039     2.463     2.454
    44   1 H        0.925     0.043     2.411     2.428
    45   1 H        0.925     0.045     2.381     2.413
    46   1 H        0.925     0.028     2.618     2.530
    47   1 H        0.925     0.041     2.441     2.443
    48   1 H        0.924     0.046     2.370     2.407
    49   1 H        0.924     0.043     2.406     2.426
    50   1 H        0.924     0.045     2.384     2.414
    51   1 H        0.923     0.039     2.469     2.457
    52   1 H        0.924     0.048     2.342     2.393
    53   1 H        0.925     0.023     2.687     2.563
    54   1 H        0.925     0.053     2.282     2.362
    55   1 H        0.925     0.031     2.579     2.511
    56   1 H        0.925     0.047     2.363     2.404
    57   1 H        0.925     0.050     2.321     2.382
    58   1 H        0.925     0.030     2.584     2.514
    59   1 H        0.925     0.093     1.846     2.125
    60   1 H        0.925     0.088     1.896     2.153
    61   1 H        0.925     0.108     1.710     2.045
    62   1 H        0.925     0.103     1.755     2.072
    63   1 H        0.925     0.100     1.781     2.087
    64   1 H        0.925     0.090     1.880     2.144

Wiberg/Mayer (AO) data.
largest (>0.10) Wiberg bond orders for each atom

     #   Z sym  total        # sym  WBO       # sym  WBO       # sym  WBO
 ---------------------------------------------------------------------------
     1   6 C    3.996 --     2 C    1.020    25 H    0.987    24 H    0.986
                            23 H    0.986
     2   6 C    3.997 --     1 C    1.020     3 C    1.008    27 H    0.977
                            26 H    0.976
     3   6 C    3.996 --     2 C    1.008     4 C    1.007    28 H    0.976
                            29 H    0.976
     4   6 C    3.995 --     3 C    1.007     5 C    1.007    31 H    0.972
                            30 H    0.972
     5   6 C    3.992 --     4 C    1.007     6 C    1.005    32 H    0.975
                            33 H    0.971
     6   6 C    3.984 --     5 C    1.005     7 C    1.005    34 H    0.965
                            35 H    0.964
     7   6 C    3.918 --     6 C    1.005    36 H    0.964    37 H    0.960
                             8 N    0.917
     8   7 N    3.798 --    22 C    0.964    21 C    0.959     7 C    0.917
                             9 C    0.889
     9   6 C    3.934 --    10 O    1.065    38 H    0.957    39 H    0.950
                             8 N    0.889
    10   8 O    2.120 --     9 C    1.065    11 C    0.904
    11   6 C    3.913 --    12 C    0.995    17 C    0.980    40 H    0.957
                            10 O    0.904
    12   6 C    3.993 --    13 C    0.995    11 C    0.995    41 H    0.972
                            42 H    0.966
    13   6 C    3.994 --    14 C    1.010    15 C    0.997    12 C    0.995
                            43 H    0.967
    14   6 C    3.996 --    13 C    1.010    46 H    0.987    45 H    0.985
                            44 H    0.982
    15   6 C    3.996 --    16 C    1.010    13 C    0.997    48 H    0.974
                            47 H    0.970
    16   6 C    3.995 --    15 C    1.010    17 C    0.994    49 H    0.974
                            50 H    0.973
    17   6 C    3.988 --    16 C    0.994    11 C    0.980    18 C    0.979
                            51 H    0.960
    18   6 C    3.992 --    20 C    1.011    19 C    1.008    17 C    0.979
                            52 H    0.965
    19   6 C    3.995 --    18 C    1.008    55 H    0.986    54 H    0.984
                            53 H    0.984
    20   6 C    3.995 --    18 C    1.011    57 H    0.983    58 H    0.983
                            56 H    0.977
    21   6 C    3.928 --    60 H    0.976    59 H    0.975    61 H    0.970
                             8 N    0.959
    22   6 C    3.930 --    64 H    0.975    62 H    0.973    63 H    0.971
                             8 N    0.964
    23   1 H    0.999 --     1 C    0.986
    24   1 H    0.998 --     1 C    0.986
    25   1 H    0.998 --     1 C    0.987
    26   1 H    0.999 --     2 C    0.976
    27   1 H    0.999 --     2 C    0.977
    28   1 H    0.999 --     3 C    0.976
    29   1 H    0.998 --     3 C    0.976
    30   1 H    1.000 --     4 C    0.972
    31   1 H    0.997 --     4 C    0.972
    32   1 H    0.999 --     5 C    0.975
    33   1 H    0.996 --     5 C    0.971
    34   1 H    0.998 --     6 C    0.965
    35   1 H    0.993 --     6 C    0.964
    36   1 H    0.991 --     7 C    0.964
    37   1 H    0.992 --     7 C    0.960
    38   1 H    0.996 --     9 C    0.957
    39   1 H    0.994 --     9 C    0.950
    40   1 H    1.000 --    11 C    0.957
    41   1 H    0.999 --    12 C    0.972
    42   1 H    0.997 --    12 C    0.966
    43   1 H    0.998 --    13 C    0.967
    44   1 H    0.998 --    14 C    0.982
    45   1 H    0.998 --    14 C    0.985
    46   1 H    0.999 --    14 C    0.987
    47   1 H    0.998 --    15 C    0.970
    48   1 H    0.998 --    15 C    0.974
    49   1 H    0.998 --    16 C    0.974
    50   1 H    0.998 --    16 C    0.973
    51   1 H    0.999 --    17 C    0.960
    52   1 H    0.997 --    18 C    0.965
    53   1 H    0.999 --    19 C    0.984
    54   1 H    0.997 --    19 C    0.984
    55   1 H    0.999 --    19 C    0.986
    56   1 H    0.998 --    20 C    0.977
    57   1 H    0.997 --    20 C    0.983
    58   1 H    0.999 --    20 C    0.983
    59   1 H    0.991 --    21 C    0.975
    60   1 H    0.992 --    21 C    0.976
    61   1 H    0.988 --    21 C    0.970
    62   1 H    0.989 --    22 C    0.973
    63   1 H    0.990 --    22 C    0.971
    64   1 H    0.992 --    22 C    0.975
 ---------------------------------------------------------------------------

molecular dipole:
                 x           y           z       tot (Debye)
 q only:       -3.484     -15.822       2.425
   full:       -3.519     -15.690       2.767      41.470

           -------------------------------------------------
          | TOTAL ENERGY              -70.879833095312 Eh   |
          | GRADIENT NORM               0.000944997336 Eh/α |
          | HOMO-LUMO GAP               7.336626221133 eV   |
           -------------------------------------------------

 * finished run on 2024/12/20 at 02:03:13.408
