   * xtb version 6.7.1 (edcfbbe) compiled by 'conda@3ef47c1a292c' on 2024-11-25

   ID    Z sym.   atoms
    1    6 C      1-3, 5-8, 10, 12-18, 21, 23-26
    2    7 N      4, 9, 22
    3    8 O      11, 19, 20
    4    1 H      27-54

          program call               : xtb C0027.xyz --opt --namespace C0027 --charge +1
          :  Hamiltonian                  GFN2-xTB          :
 * total energy  :   -77.7189403 Eh     change       -0.9472245E-09 Eh
 * total energy  :   -77.7291674 Eh     change       -0.1022704E-01 Eh
 * total energy  :   -77.7316473 Eh     change       -0.2479927E-02 Eh
 * total energy  :   -77.7325701 Eh     change       -0.9228374E-03 Eh
 * total energy  :   -77.7332802 Eh     change       -0.7100916E-03 Eh
 * total energy  :   -77.7337599 Eh     change       -0.4796318E-03 Eh
 * total energy  :   -77.7342588 Eh     change       -0.4989899E-03 Eh
 * total energy  :   -77.7347438 Eh     change       -0.4849279E-03 Eh
 * total energy  :   -77.7351456 Eh     change       -0.4018119E-03 Eh
 * total energy  :   -77.7354431 Eh     change       -0.2975580E-03 Eh
 * total energy  :   -77.7368946 Eh     change       -0.8155257E-05 Eh
 * total energy  :   -77.7369014 Eh     change       -0.6769900E-05 Eh
 * total energy  :   -77.7369070 Eh     change       -0.5594979E-05 Eh
 * total energy  :   -77.7369123 Eh     change       -0.5372883E-05 Eh
 * total energy  :   -77.7369181 Eh     change       -0.5746312E-05 Eh
 * total energy  :   -77.7369241 Eh     change       -0.6024415E-05 Eh
 * total energy  :   -77.7369299 Eh     change       -0.5746177E-05 Eh
 * total energy  :   -77.7369349 Eh     change       -0.5098189E-05 Eh
 * total energy  :   -77.7369397 Eh     change       -0.4719516E-05 Eh
   *** GEOMETRY OPTIMIZATION CONVERGED AFTER 79 ITERATIONS ***

 final structure:
================
54
 xtb: 6.7.1 (edcfbbe)
C            0.10664933538342        1.02539280107384        0.60687351669980
C            0.82001165915766        2.32537384056294        0.26009365606896
C            1.86130427033758        2.14547363195940       -0.85120929180179
N            1.23330068305343        1.76659035592427       -2.09535260817401
C            0.60152221383385        2.61039724795903       -2.95492675574329
C            0.06114124946811        1.86194405581563       -3.96677155436424
C           -0.72933974498221        2.34685637462188       -5.12742998199617
C            0.15559718018840        2.75112725039930       -6.34468405309610
N            0.83016846051640        1.60137642871793       -6.89625038552778
C            0.40294232149545        0.71023202870953       -7.86310877724052
O            0.60732413920353       -0.47607630422718       -7.68883766774104
C           -0.17606957543947        1.26192765200744       -9.10153032500511
C           -1.22089748977988        0.58612501978441       -9.72760108145564
C           -1.72080517854169        1.04806197019659      -10.93020165548442
C           -1.16669619719815        2.17127796285007      -11.52539556052125
C           -0.10762323888802        2.82947119020084      -10.91959620711271
C            0.39078610942987        2.38004248983158       -9.70961405027664
C           -0.74170140424666        3.50302723352348       -7.34381245528384
O           -0.44425892974454        4.56391746360793       -7.81165119070184
O           -1.89952144500517        2.88127596896269       -7.52829372293915
C           -2.82300049836760        3.52352909874252       -8.40745430639910
N            0.38469528488392        0.55483694140420       -3.69386094469140
C            0.07415164999934       -0.62925583911146       -4.47401224177889
C            1.32659701026787       -1.46630632901610       -4.78962232638763
C            1.45497307257195       -2.71106954152954       -3.92116876418056
C            1.08201288054370        0.53182324364132       -2.55751895976779
H           -0.47425752773088        0.65168016641322       -0.23448674613139
H           -0.57694532561485        1.19101547903117        1.43403521677720
H            0.81971018269171        0.26210432931016        0.90894324813080
H            0.09160246861882        3.07946822134944       -0.04266922868281
H            1.34103793127269        2.69966490002551        1.14088816139392
H            2.40242663168178        3.08030312460730       -1.01068358139492
H            2.57267576054587        1.36592886004166       -0.57200070452860
H            0.57335504373654        3.67000550878894       -2.80368721775595
H           -1.44576143203455        1.59494622364110       -5.45929336537899
H           -1.28615790458061        3.23003172481203       -4.81114901236621
H            0.91809439810280        3.47011713766152       -6.01779502077831
H            1.42173059745734        1.13711935250159       -6.21545080441874
H           -1.63013754615708       -0.29650713713572       -9.25980682237172
H           -2.53514472883183        0.52749362902559      -11.41020046408107
H           -1.55312105306104        2.52749292938727      -12.46815827312970
H            0.33572567206443        3.69269527912049      -11.39126569446946
H            1.23373512389818        2.87583841446353       -9.25221605121520
H           -3.09724904230771        4.50190957526063       -8.01024591128151
H           -2.37393082372441        3.65207804968681       -9.39268609286909
H           -3.68997592820331        2.87177343614197       -8.46245895228005
H           -0.64399183229419       -1.23551178320147       -3.91480708748384
H           -0.39715110691797       -0.31598072702360       -5.40385234020254
H            1.27222010311983       -1.76777480896781       -5.83635347955328
H            2.21867625046920       -0.84457315700743       -4.67955099187320
H            0.59724784542399       -3.36283135055850       -4.06349419645273
H            2.34546644425001       -3.26453300500524       -4.20474783733173
H            1.53133567860646       -2.47232049566883       -2.86198569196576
H            1.46951030144854       -0.35329611336137       -2.09345336342001

          :  Hamiltonian                  GFN2-xTB          :
         :: total energy             -77.736939669174 Eh    ::
         :: gradient norm              0.000356076248 Eh/a0 ::
         :: HOMO-LUMO gap              2.539464410714 eV    ::
         :: SCC energy               -78.826545737103 Eh    ::
         :: -> dispersion             -0.057474711646 Eh    ::
         :: repulsion energy           1.089606067928 Eh    ::

    * Orbital Energies and Occupations

         #    Occupation            Energy/Eh            Energy/eV
      -------------------------------------------------------------
         1        2.0000           -0.8858732             -24.1058
       ...           ...                  ...                  ...
        58        2.0000           -0.5645766             -15.3629
        59        2.0000           -0.5629298             -15.3181
        60        2.0000           -0.5625684             -15.3083
        61        2.0000           -0.5586334             -15.2012
        62        2.0000           -0.5508652             -14.9898
        63        2.0000           -0.5482479             -14.9186
        64        2.0000           -0.5309769             -14.4486
        65        2.0000           -0.5253107             -14.2944
        66        2.0000           -0.5104589             -13.8903
        67        2.0000           -0.5081515             -13.8275
        68        2.0000           -0.4943272             -13.4513
        69        2.0000           -0.4927123             -13.4074
        70        2.0000           -0.4904970             -13.3471 (HOMO)
        71                         -0.3971734             -10.8076 (LUMO)
        72                         -0.3651347              -9.9358
        73                         -0.3510066              -9.5514
        74                         -0.3418588              -9.3025
        75                         -0.3091070              -8.4112
        76                         -0.2849377              -7.7536
        77                         -0.1794413              -4.8828
        78                         -0.1782714              -4.8510
        79                         -0.1397963              -3.8041
        80                         -0.1105281              -3.0076
        81                         -0.0956012              -2.6014
       ...                                ...                  ...
       132                          0.5816363              15.8271
      -------------------------------------------------------------
                  HL-Gap            0.0933236 Eh            2.5395 eV

     #   Z          covCN         q      C6AA      α(0)
     1   6 C        3.752    -0.116    22.781     6.807
     2   6 C        3.801    -0.066    21.762     6.642
     3   6 C        3.743    -0.026    21.111     6.555
     4   7 N        2.853     0.062    20.160     6.669
     5   6 C        3.083    -0.026    28.552     8.760
     6   6 C        3.094     0.042    26.945     8.508
     7   6 C        3.806    -0.081    22.043     6.684
     8   6 C        3.781     0.021    20.240     6.409
     9   7 N        2.687    -0.211    25.603     7.515
    10   6 C        2.755     0.277    22.320     7.736
    11   8 O        0.860    -0.426    22.202     6.317
    12   6 C        2.975    -0.018    28.455     8.750
    13   6 C        2.923    -0.018    28.458     8.748
    14   6 C        2.918    -0.025    28.628     8.774
    15   6 C        2.920    -0.022    28.554     8.763
    16   6 C        2.919    -0.023    28.579     8.767
    17   6 C        2.921    -0.026    28.642     8.776
    18   6 C        2.725     0.355    20.974     7.497
    19   8 O        0.856    -0.370    21.091     6.157
    20   8 O        1.704    -0.251    18.160     5.754
    21   6 C        3.658     0.021    20.501     6.498
    22   7 N        2.864     0.041    20.529     6.729
    23   6 C        3.741    -0.028    21.152     6.562
    24   6 C        3.799    -0.071    21.855     6.656
    25   6 C        3.751    -0.115    22.772     6.805
    26   6 C        3.093     0.048    26.812     8.487
    27   1 H        0.925     0.033     2.541     2.493
    28   1 H        0.925     0.067     2.115     2.274
    29   1 H        0.925     0.051     2.307     2.375
    30   1 H        0.924     0.057     2.233     2.337
    31   1 H        0.925     0.075     2.029     2.228
    32   1 H        0.924     0.087     1.912     2.162
    33   1 H        0.924     0.084     1.939     2.177
    34   1 H        0.926     0.098     1.807     2.102
    35   1 H        0.924     0.087     1.909     2.161
    36   1 H        0.924     0.083     1.950     2.184
    37   1 H        0.924     0.074     2.039     2.233
    38   1 H        0.860     0.179     1.218     1.729
    39   1 H        0.926     0.051     2.301     2.372
    40   1 H        0.926     0.051     2.304     2.374
    41   1 H        0.926     0.052     2.292     2.367
    42   1 H        0.926     0.054     2.272     2.357
    43   1 H        0.926     0.044     2.401     2.423
    44   1 H        0.924     0.078     1.998     2.210
    45   1 H        0.924     0.077     2.009     2.216
    46   1 H        0.925     0.085     1.932     2.174
    47   1 H        0.924     0.086     1.922     2.168
    48   1 H        0.925     0.096     1.826     2.113
    49   1 H        0.924     0.100     1.788     2.091
    50   1 H        0.924     0.041     2.438     2.442
    51   1 H        0.925     0.055     2.254     2.348
    52   1 H        0.925     0.063     2.163     2.300
    53   1 H        0.925     0.031     2.570     2.507
    54   1 H        0.926     0.113     1.673     2.023

Wiberg/Mayer (AO) data.
largest (>0.10) Wiberg bond orders for each atom

     #   Z sym  total        # sym  WBO       # sym  WBO       # sym  WBO
 ---------------------------------------------------------------------------
     1   6 C    3.992 --     2 C    1.022    27 H    0.986    29 H    0.986
                            28 H    0.982
     2   6 C    3.985 --     1 C    1.022     3 C    0.983    30 H    0.975
                            31 H    0.968
     3   6 C    3.939 --     2 C    0.983     4 N    0.970    33 H    0.966
                            32 H    0.963
     4   7 N    3.715 --    26 C    1.364     5 C    1.223     3 C    0.970
     5   6 C    3.943 --     6 C    1.542     4 N    1.223    34 H    0.963
     6   6 C    3.955 --     5 C    1.542    22 N    1.198     7 C    1.031
     7   6 C    3.986 --     6 C    1.031    36 H    0.960    35 H    0.959
                             8 C    0.942
     8   6 C    3.977 --     9 N    1.001    37 H    0.958     7 C    0.942
                            18 C    0.924
     9   7 N    3.349 --    10 C    1.152     8 C    1.001    38 H    0.931
                            11 O    0.166
    10   6 C    3.937 --    11 O    1.696     9 N    1.152    12 C    1.012
    11   8 O    2.019 --    10 C    1.696     9 N    0.166
    12   6 C    3.987 --    13 C    1.386    17 C    1.381    10 C    1.012
                            15 C    0.104
    13   6 C    3.990 --    14 C    1.453    12 C    1.386    39 H    0.968
                            16 C    0.109
    14   6 C    3.991 --    13 C    1.453    15 C    1.432    40 H    0.969
                            17 C    0.108
    15   6 C    3.990 --    16 C    1.435    14 C    1.432    41 H    0.970
                            12 C    0.104
    16   6 C    3.991 --    17 C    1.446    15 C    1.435    42 H    0.968
                            13 C    0.109
    17   6 C    3.991 --    16 C    1.446    12 C    1.381    43 H    0.969
                            14 C    0.108
    18   6 C    3.930 --    19 O    1.778    20 O    1.158     8 C    0.924
    19   8 O    2.074 --    18 C    1.778    20 O    0.186
    20   8 O    2.327 --    18 C    1.158    21 C    0.940    19 O    0.186
    21   6 C    3.905 --    46 H    0.980    44 H    0.975    45 H    0.973
                            20 O    0.940
    22   7 N    3.697 --    26 C    1.351     6 C    1.198    23 C    0.962
    23   6 C    3.930 --    24 C    0.985    22 N    0.962    48 H    0.961
                            47 H    0.955
    24   6 C    3.980 --    25 C    1.022    23 C    0.985    50 H    0.974
                            49 H    0.963
    25   6 C    3.992 --    24 C    1.022    51 H    0.985    53 H    0.984
                            52 H    0.982
    26   6 C    3.945 --     4 N    1.364    22 N    1.351    54 H    0.950
    27   1 H    0.999 --     1 C    0.986
    28   1 H    0.995 --     1 C    0.982
    29   1 H    0.997 --     1 C    0.986
    30   1 H    0.997 --     2 C    0.975
    31   1 H    0.993 --     2 C    0.968
    32   1 H    0.992 --     3 C    0.963
    33   1 H    0.993 --     3 C    0.966
    34   1 H    0.990 --     5 C    0.963
    35   1 H    0.992 --     7 C    0.959
    36   1 H    0.993 --     7 C    0.960
    37   1 H    0.994 --     8 C    0.958
    38   1 H    0.967 --     9 N    0.931
    39   1 H    0.997 --    13 C    0.968
    40   1 H    0.997 --    14 C    0.969
    41   1 H    0.997 --    15 C    0.970
    42   1 H    0.996 --    16 C    0.968
    43   1 H    0.998 --    17 C    0.969
    44   1 H    0.994 --    21 C    0.975
    45   1 H    0.994 --    21 C    0.973
    46   1 H    0.993 --    21 C    0.980
    47   1 H    0.992 --    23 C    0.955
    48   1 H    0.990 --    23 C    0.961
    49   1 H    0.990 --    24 C    0.963
    50   1 H    0.998 --    24 C    0.974
    51   1 H    0.997 --    25 C    0.985
    52   1 H    0.995 --    25 C    0.982
    53   1 H    0.999 --    25 C    0.984
    54   1 H    0.987 --    26 C    0.950
 ---------------------------------------------------------------------------

molecular dipole:
                 x           y           z       tot (Debye)
 q only:        0.225       2.774      -6.249
   full:        0.298       2.816      -6.052      16.982

           -------------------------------------------------
          | TOTAL ENERGY              -77.736939669174 Eh   |
          | GRADIENT NORM               0.000356076248 Eh/α |
          | HOMO-LUMO GAP               2.539464410714 eV   |
           -------------------------------------------------

 * finished run on 2024/12/20 at 02:03:20.334
