   * xtb version 6.7.1 (edcfbbe) compiled by 'conda@3ef47c1a292c' on 2024-11-25

   ID    Z sym.   atoms
    1    6 C      1, 2, 4-8
    2    7 N      3
    3    1 H      9-16

          program call               : xtb C0024.xyz --opt --namespace C0024 --charge +1
          :  Hamiltonian                  GFN2-xTB          :
 * total energy  :   -21.5331945 Eh     change       -0.3051248E-09 Eh
 * total energy  :   -21.5353612 Eh     change       -0.2166711E-02 Eh
 * total energy  :   -21.5356983 Eh     change       -0.3370904E-03 Eh
 * total energy  :   -21.5357233 Eh     change       -0.2493776E-04 Eh
 * total energy  :   -21.5357305 Eh     change       -0.7217757E-05 Eh
 * total energy  :   -21.5357328 Eh     change       -0.2300779E-05 Eh
   *** GEOMETRY OPTIMIZATION CONVERGED AFTER 6 ITERATIONS ***

 final structure:
================
16
 xtb: 6.7.1 (edcfbbe)
C            1.02659541750901       -0.26903124948712        0.04034911151276
C            0.20188727929521       -0.20561181338719        1.07400528487151
N           -1.21214767510572       -0.25282663215350        1.02983507597098
C           -1.88744243041098       -0.43501626383122       -0.11835011067710
C           -3.26434382753224       -0.47609011748971       -0.14220315429717
C           -3.97622904562605       -0.32858365931185        1.04216660278605
C           -3.26548393883608       -0.14370051426050        2.22157648889108
C           -1.88866009885135       -0.11060483144429        2.18440625879479
H            0.72813877972944       -0.36472643108067       -0.98916297406803
H            2.08793640420257       -0.22267729087296        0.21202407453609
H            0.58668756310753       -0.10303317375794        2.07850157792385
H           -1.31291503330933       -0.55167044031124       -1.02318300951653
H           -3.77317645897881       -0.62386840549958       -1.08152650644183
H           -5.05446330922855       -0.35828744338983        1.04582702737347
H           -3.77343248552776       -0.02587676799594        3.16555171553611
H           -1.30890114043688        0.03262503427355        3.08496253680396

          :  Hamiltonian                  GFN2-xTB          :
         :: total energy             -21.535732794277 Eh    ::
         :: gradient norm              0.000388852397 Eh/a0 ::
         :: HOMO-LUMO gap              3.272160593423 eV    ::
         :: SCC energy               -21.937657254760 Eh    ::
         :: -> dispersion             -0.010846016216 Eh    ::
         :: repulsion energy           0.401924460483 Eh    ::

    * Orbital Energies and Occupations

         #    Occupation            Energy/Eh            Energy/eV
      -------------------------------------------------------------
         1        2.0000           -0.8894626             -24.2035
       ...           ...                  ...                  ...
         8        2.0000           -0.7499401             -20.4069
         9        2.0000           -0.7296003             -19.8534
        10        2.0000           -0.7207282             -19.6120
        11        2.0000           -0.7049865             -19.1837
        12        2.0000           -0.6901215             -18.7792
        13        2.0000           -0.6822072             -18.5638
        14        2.0000           -0.6619073             -18.0114
        15        2.0000           -0.6520865             -17.7442
        16        2.0000           -0.6333087             -17.2332
        17        2.0000           -0.6291479             -17.1200
        18        2.0000           -0.6233436             -16.9620
        19        2.0000           -0.6215850             -16.9142
        20        2.0000           -0.5985900             -16.2885 (HOMO)
        21                         -0.4783403             -13.0163 (LUMO)
        22                         -0.4356969             -11.8559
        23                         -0.3819049             -10.3922
        24                         -0.3082414              -8.3877
        25                         -0.1683131              -4.5800
        26                         -0.0813614              -2.2140
        27                         -0.0726798              -1.9777
        28                         -0.0359734              -0.9789
        29                         -0.0237939              -0.6475
        30                         -0.0197039              -0.5362
        31                          0.0116581               0.3172
       ...                                ...                  ...
        40                          0.4637327              12.6188
      -------------------------------------------------------------
                  HL-Gap            0.1202497 Eh            3.2722 eV

     #   Z          covCN         q      C6AA      α(0)
     1   6 C        2.836    -0.066    29.638     8.921
     2   6 C        2.853     0.002    27.975     8.669
     3   7 N        2.750     0.124    19.127     6.495
     4   6 C        2.889     0.032    27.273     8.562
     5   6 C        2.915    -0.008    28.214     8.710
     6   6 C        2.924     0.016    27.644     8.622
     7   6 C        2.915    -0.007    28.206     8.709
     8   6 C        2.901     0.032    27.275     8.563
     9   1 H        0.926     0.096     1.823     2.111
    10   1 H        0.926     0.118     1.633     1.998
    11   1 H        0.926     0.099     1.798     2.097
    12   1 H        0.926     0.114     1.662     2.016
    13   1 H        0.926     0.112     1.680     2.027
    14   1 H        0.926     0.112     1.683     2.028
    15   1 H        0.926     0.112     1.676     2.024
    16   1 H        0.926     0.112     1.679     2.026

Wiberg/Mayer (AO) data.
largest (>0.10) Wiberg bond orders for each atom

     #   Z sym  total        # sym  WBO       # sym  WBO       # sym  WBO
 ---------------------------------------------------------------------------
     1   6 C    3.969 --     2 C    1.900     9 H    0.961    10 H    0.961
     2   6 C    3.942 --     1 C    1.900     3 N    1.031    11 H    0.952
     3   7 N    3.777 --     8 C    1.297     4 C    1.296     2 C    1.031
     4   6 C    3.956 --     5 C    1.476     3 N    1.296    12 H    0.949
     5   6 C    3.980 --     4 C    1.476     6 C    1.413    13 H    0.958
     6   6 C    3.969 --     7 C    1.415     5 C    1.413    14 H    0.960
     7   6 C    3.980 --     8 C    1.474     6 C    1.415    15 H    0.958
     8   6 C    3.956 --     7 C    1.474     3 N    1.297    16 H    0.953
     9   1 H    0.991 --     1 C    0.961
    10   1 H    0.985 --     1 C    0.961
    11   1 H    0.990 --     2 C    0.952
    12   1 H    0.987 --     4 C    0.949
    13   1 H    0.987 --     5 C    0.958
    14   1 H    0.987 --     6 C    0.960
    15   1 H    0.987 --     7 C    0.958
    16   1 H    0.987 --     8 C    0.953
 ---------------------------------------------------------------------------

molecular dipole:
                 x           y           z       tot (Debye)
 q only:       -3.194      -0.521       1.722
   full:       -3.185      -0.519       1.734       9.312

           -------------------------------------------------
          | TOTAL ENERGY              -21.535732794277 Eh   |
          | GRADIENT NORM               0.000388852397 Eh/α |
          | HOMO-LUMO GAP               3.272160593423 eV   |
           -------------------------------------------------

 * finished run on 2024/12/20 at 02:03:15.359
