   * xtb version 6.7.1 (edcfbbe) compiled by 'conda@3ef47c1a292c' on 2024-11-25

   ID    Z sym.   atoms
    1    6 C      1-3, 5-8
    2    7 N      4
    3    1 H      9-22

          program call               : xtb C0022.xyz --opt --namespace C0022 --charge +1
          :  Hamiltonian                  GFN2-xTB          :
 * total energy  :   -24.5604125 Eh     change       -0.1033058E-09 Eh
 * total energy  :   -24.5632011 Eh     change       -0.2788558E-02 Eh
 * total energy  :   -24.5639136 Eh     change       -0.7125287E-03 Eh
 * total energy  :   -24.5640624 Eh     change       -0.1488048E-03 Eh
 * total energy  :   -24.5641387 Eh     change       -0.7630159E-04 Eh
 * total energy  :   -24.5641673 Eh     change       -0.2856116E-04 Eh
 * total energy  :   -24.5642097 Eh     change       -0.4245411E-04 Eh
 * total energy  :   -24.5642276 Eh     change       -0.1789188E-04 Eh
 * total energy  :   -24.5642545 Eh     change       -0.2688778E-04 Eh
 * total energy  :   -24.5642292 Eh     change        0.2534415E-04 Eh
 * total energy  :   -24.5642816 Eh     change       -0.7010698E-05 Eh
 * total energy  :   -24.5642893 Eh     change       -0.7738040E-05 Eh
 * total energy  :   -24.5642965 Eh     change       -0.7157670E-05 Eh
 * total energy  :   -24.5643021 Eh     change       -0.5614301E-05 Eh
 * total energy  :   -24.5643073 Eh     change       -0.5245596E-05 Eh
 * total energy  :   -24.5643130 Eh     change       -0.5667905E-05 Eh
 * total energy  :   -24.5643190 Eh     change       -0.5967623E-05 Eh
 * total energy  :   -24.5643244 Eh     change       -0.5388061E-05 Eh
 * total energy  :   -24.5643287 Eh     change       -0.4313734E-05 Eh
   *** GEOMETRY OPTIMIZATION CONVERGED AFTER 21 ITERATIONS ***

 final structure:
================
22
 xtb: 6.7.1 (edcfbbe)
C            1.02794718024121       -0.18218290013554       -0.00803281147025
C            0.34381621456583       -0.19832290969315        1.12195820640423
C           -1.15610639596891       -0.28394763322982        1.16155170721991
N           -1.62447718981127       -1.69770852350675        1.30628140152650
C           -1.11884085291293       -2.35740132818710        2.55422702417024
C           -1.59698311983474       -1.68076942872779        3.80544908825572
C           -2.48871713209958       -2.21579161593438        4.61978651214042
C           -3.09190858276673       -1.78501930256588        1.21957848190448
H            0.54852314070038       -0.21837229423491       -0.97336694906101
H            2.10095232940638       -0.11165577098641       -0.01656412789493
H            0.85145797964777       -0.13281007686319        2.07302204461755
H           -1.56124122410189        0.29253559663824        1.99394668690671
H           -1.57126288171196        0.10563629664844        0.22941649100677
H           -1.22331222163223       -2.21691025020054        0.51734204727945
H           -1.46062816006210       -3.39462973297895        2.54240596067320
H           -0.02710958098531       -2.34693389272763        2.51591688404581
H           -1.13881189766407       -0.73212937858424        4.04390973129026
H           -2.79012337347510       -1.72290815650278        5.52685712737163
H           -2.94293020432706       -3.17406506497902        4.42681204108147
H           -3.44512959461438       -1.33331832066230        0.29479206217199
H           -3.40931994476137       -2.82570981407255        1.24586691892690
H           -3.53560448783172       -1.26156549851375        2.06493347143355

          :  Hamiltonian                  GFN2-xTB          :
         :: total energy             -24.564328670355 Eh    ::
         :: gradient norm              0.000211273847 Eh/a0 ::
         :: HOMO-LUMO gap              5.172922138760 eV    ::
         :: SCC energy               -24.971131641153 Eh    ::
         :: -> dispersion             -0.013968350768 Eh    ::
         :: repulsion energy           0.406802970799 Eh    ::

    * Orbital Energies and Occupations

         #    Occupation            Energy/Eh            Energy/eV
      -------------------------------------------------------------
         1        2.0000           -0.8738544             -23.7788
       ...           ...                  ...                  ...
        11        2.0000           -0.6962239             -18.9452
        12        2.0000           -0.6809527             -18.5297
        13        2.0000           -0.6651232             -18.0989
        14        2.0000           -0.6593989             -17.9432
        15        2.0000           -0.6570284             -17.8787
        16        2.0000           -0.6456191             -17.5682
        17        2.0000           -0.6434122             -17.5081
        18        2.0000           -0.6160585             -16.7638
        19        2.0000           -0.6133240             -16.6894
        20        2.0000           -0.5876699             -15.9913
        21        2.0000           -0.5849206             -15.9165
        22        2.0000           -0.5733630             -15.6020
        23        2.0000           -0.5670774             -15.4310 (HOMO)
        24                         -0.3769760             -10.2580 (LUMO)
        25                         -0.3667979              -9.9811
        26                         -0.2218105              -6.0358
        27                         -0.1482114              -4.0330
        28                         -0.1423316              -3.8730
        29                         -0.1224686              -3.3325
        30                         -0.0540304              -1.4702
        31                         -0.0458865              -1.2486
        32                         -0.0359889              -0.9793
        33                         -0.0210583              -0.5730
        34                         -0.0069724              -0.1897
       ...                                ...                  ...
        46                          0.4592189              12.4960
      -------------------------------------------------------------
                  HL-Gap            0.1901014 Eh            5.1729 eV

     #   Z          covCN         q      C6AA      α(0)
     1   6 C        2.838    -0.077    29.904     8.962
     2   6 C        2.885    -0.048    29.198     8.859
     3   6 C        3.747    -0.036    21.289     6.581
     4   7 N        3.576     0.051    20.351     6.700
     5   6 C        3.747    -0.035    21.262     6.577
     6   6 C        2.884    -0.043    29.077     8.840
     7   6 C        2.838    -0.076    29.885     8.959
     8   6 C        3.697    -0.094    22.465     6.780
     9   1 H        0.926     0.067     2.116     2.275
    10   1 H        0.926     0.086     1.919     2.167
    11   1 H        0.926     0.069     2.100     2.266
    12   1 H        0.924     0.100     1.788     2.091
    13   1 H        0.924     0.092     1.860     2.133
    14   1 H        0.859     0.225     0.986     1.556
    15   1 H        0.924     0.092     1.864     2.135
    16   1 H        0.924     0.095     1.829     2.115
    17   1 H        0.926     0.065     2.136     2.286
    18   1 H        0.926     0.085     1.929     2.172
    19   1 H        0.926     0.070     2.086     2.258
    20   1 H        0.925     0.101     1.772     2.082
    21   1 H        0.925     0.103     1.760     2.075
    22   1 H        0.925     0.108     1.712     2.046

Wiberg/Mayer (AO) data.
largest (>0.10) Wiberg bond orders for each atom

     #   Z sym  total        # sym  WBO       # sym  WBO       # sym  WBO
 ---------------------------------------------------------------------------
     1   6 C    3.980 --     2 C    1.983     9 H    0.972    10 H    0.971
     2   6 C    3.981 --     1 C    1.983     3 C    1.014    11 H    0.962
     3   6 C    3.922 --     2 C    1.014    13 H    0.964    12 H    0.962
                             4 N    0.918
     4   7 N    3.773 --     8 C    0.963    14 H    0.918     3 C    0.918
                             5 C    0.916
     5   6 C    3.923 --     6 C    1.018    15 H    0.965    16 H    0.958
                             4 N    0.916
     6   6 C    3.981 --     7 C    1.980     5 C    1.018    17 H    0.961
     7   6 C    3.980 --     6 C    1.980    19 H    0.971    18 H    0.971
     8   6 C    3.919 --    20 H    0.975    21 H    0.974    22 H    0.973
                             4 N    0.963
     9   1 H    0.995 --     1 C    0.972
    10   1 H    0.992 --     1 C    0.971
    11   1 H    0.995 --     2 C    0.962
    12   1 H    0.990 --     3 C    0.962
    13   1 H    0.992 --     3 C    0.964
    14   1 H    0.949 --     4 N    0.918
    15   1 H    0.992 --     5 C    0.965
    16   1 H    0.991 --     5 C    0.958
    17   1 H    0.996 --     6 C    0.961
    18   1 H    0.993 --     7 C    0.971
    19   1 H    0.995 --     7 C    0.971
    20   1 H    0.990 --     8 C    0.975
    21   1 H    0.989 --     8 C    0.974
    22   1 H    0.988 --     8 C    0.973
 ---------------------------------------------------------------------------

molecular dipole:
                 x           y           z       tot (Debye)
 q only:       -2.996      -2.964       2.950
   full:       -2.955      -3.080       2.762      12.923

           -------------------------------------------------
          | TOTAL ENERGY              -24.564328670355 Eh   |
          | GRADIENT NORM               0.000211273847 Eh/α |
          | HOMO-LUMO GAP               5.172922138760 eV   |
           -------------------------------------------------

 * finished run on 2024/12/20 at 02:03:14.369
