   * xtb version 6.7.1 (edcfbbe) compiled by 'conda@3ef47c1a292c' on 2024-11-25

   ID    Z sym.   atoms
    1    6 C      1-10, 12-21
    2    7 N      11
    3    1 H      22-57

          program call               : xtb C0029.xyz --opt --namespace C0029 --charge +1
          :  Hamiltonian                  GFN2-xTB          :
 * total energy  :   -63.7409046 Eh     change       -0.1005830E-08 Eh
 * total energy  :   -63.7443044 Eh     change       -0.3399763E-02 Eh
 * total energy  :   -63.7449674 Eh     change       -0.6629797E-03 Eh
 * total energy  :   -63.7451348 Eh     change       -0.1674199E-03 Eh
 * total energy  :   -63.7453623 Eh     change       -0.2275536E-03 Eh
 * total energy  :   -63.7455095 Eh     change       -0.1471744E-03 Eh
 * total energy  :   -63.7456516 Eh     change       -0.1420499E-03 Eh
 * total energy  :   -63.7457506 Eh     change       -0.9904300E-04 Eh
 * total energy  :   -63.7458007 Eh     change       -0.5010383E-04 Eh
 * total energy  :   -63.7458401 Eh     change       -0.3935683E-04 Eh
 * total energy  :   -63.7465773 Eh     change       -0.1557699E-04 Eh
 * total energy  :   -63.7465924 Eh     change       -0.1510570E-04 Eh
 * total energy  :   -63.7466038 Eh     change       -0.1136352E-04 Eh
 * total energy  :   -63.7466123 Eh     change       -0.8585682E-05 Eh
 * total energy  :   -63.7466193 Eh     change       -0.6936597E-05 Eh
 * total energy  :   -63.7466257 Eh     change       -0.6451584E-05 Eh
 * total energy  :   -63.7466330 Eh     change       -0.7230951E-05 Eh
 * total energy  :   -63.7466400 Eh     change       -0.7065581E-05 Eh
 * total energy  :   -63.7466446 Eh     change       -0.4574916E-05 Eh
   *** GEOMETRY OPTIMIZATION CONVERGED AFTER 40 ITERATIONS ***

 final structure:
================
57
 xtb: 6.7.1 (edcfbbe)
C            1.13054351795037        0.54811468242096        0.46449236946178
C            0.69470337567742        1.48299750583058       -0.65736191076783
C            1.07604443691424        0.97368611205031       -2.04813755142368
C            0.42804627141885       -0.35357367768214       -2.44783969746122
C           -1.10171004828568       -0.34064552677647       -2.48706168848784
C           -1.71605239396370        0.68838514904290       -3.43880927763440
C           -1.24998287795359        0.58309555908854       -4.89318490541913
C           -1.47584729046858       -0.78497224968064       -5.54116851470432
C           -2.94151744859261       -1.19860703972530       -5.67379274725661
C           -3.72716634079875       -0.37849454797864       -6.70823766291514
N           -3.15925590576896       -0.56681473200573       -8.03090758738526
C           -2.30355704193858        0.33097948426307       -8.52767721868295
C           -1.66236931035990        0.10369829861755       -9.72935795707456
C           -1.89833345684471       -1.07584060958074      -10.41590397716200
C           -2.80191672788331       -2.00831791669400       -9.89759365130023
C           -3.41652728471695       -1.69899094301231       -8.69421529670673
C           -3.13800661191345       -3.26993009527585      -10.61608667382777
C           -4.30724558160504       -3.05388153839890      -11.59778343750340
C           -3.97750959773706       -2.14098063774751      -12.77794286085977
C           -2.88856965021082       -2.66582015796712      -13.71761385295894
C           -3.24052526496284       -4.00136170575806      -14.36254809159512
H            0.59120003208555       -0.39509479631850        0.42550017416252
H            0.93630496136775        1.00640026131741        1.43109198563333
H            2.19594361490693        0.33979311636021        0.39353171640190
H           -0.38348080794008        1.64380243541253       -0.60013130809934
H            1.17444099232606        2.45367496035650       -0.51200974478407
H            0.82284008152510        1.74056250393974       -2.78384283780057
H            2.16014473307923        0.84065622145180       -2.08212617090625
H            0.81731224672144       -0.64384796724804       -3.42693378395525
H            0.73996778899230       -1.12593883416553       -1.74333634948026
H           -1.44828743226285       -1.34182884806727       -2.75543381685942
H           -1.48134084204506       -0.13625795255886       -1.48526542131935
H           -2.80418189995652        0.59591319788747       -3.39131389893554
H           -1.47047606167422        1.69009582035549       -3.08389959758385
H           -1.75315779872204        1.36454458414802       -5.46944037152695
H           -0.18173017921714        0.79780395972833       -4.93598269823336
H           -0.99647106533163       -0.79669437903293       -6.52552989910201
H           -0.97033232122410       -1.53957781904181       -4.93957883595279
H           -2.99154305314455       -2.25458166837190       -5.94809472792775
H           -3.44044721260392       -1.08349570099146       -4.71263127583294
H           -4.76950129376507       -0.70336538593420       -6.71855246814992
H           -3.69285060900104        0.68014615266357       -6.45094510620477
H           -2.13364851773034        1.23023612323843       -7.95596238467565
H           -0.97601725932633        0.84135468803037      -10.11262813727913
H           -1.38270774227329       -1.27966033150031      -11.34101570635147
H           -4.12469518757259       -2.37976498098738       -8.24382964829703
H           -2.26982656584584       -3.62566936457277      -11.16890476991499
H           -3.42922972226537       -4.03723025027741       -9.89777804451751
H           -4.61164021186151       -4.02975171586787      -11.97332483144960
H           -5.15446644536755       -2.63304063277548      -11.05102770814768
H           -4.89323146985536       -2.01074816594702      -13.35807996612849
H           -3.68781549913177       -1.15216262172193      -12.40895563769768
H           -2.74394722000070       -1.92285013663505      -14.50474125039350
H           -1.93665439081595       -2.76313844718232      -13.18970662829593
H           -4.21353321285891       -3.94725518401367      -14.84473794578784
H           -2.50098049311959       -4.25542116293973      -15.11740982592618
H           -3.25969470404841       -4.80574309171636      -13.63103088701784

          :  Hamiltonian                  GFN2-xTB          :
         :: total energy             -63.746644607848 Eh    ::
         :: gradient norm              0.000626370971 Eh/a0 ::
         :: HOMO-LUMO gap              1.009122082036 eV    ::
         :: SCC energy               -64.747134210266 Eh    ::
         :: -> dispersion             -0.048679983717 Eh    ::
         :: repulsion energy           1.000489602418 Eh    ::

    * Orbital Energies and Occupations

         #    Occupation            Energy/Eh            Energy/eV
      -------------------------------------------------------------
         1        2.0000           -0.8657728             -23.5589
       ...           ...                  ...                  ...
        48        2.0000           -0.5499210             -14.9641
        49        2.0000           -0.5403448             -14.7035
        50        2.0000           -0.5338348             -14.5264
        51        2.0000           -0.5302999             -14.4302
        52        2.0000           -0.5265282             -14.3276
        53        2.0000           -0.5235133             -14.2455
        54        2.0000           -0.5184962             -14.1090
        55        2.0000           -0.5146654             -14.0048
        56        2.0000           -0.5087026             -13.8425
        57        2.0000           -0.5045519             -13.7296
        58        2.0000           -0.4877590             -13.2726
        59        2.0000           -0.4838694             -13.1668
        60        2.0000           -0.4803887             -13.0720 (HOMO)
        61                         -0.4433042             -12.0629 (LUMO)
        62                         -0.4109934             -11.1837
        63                         -0.2942472              -8.0069
        64                         -0.1586288              -4.3165
        65                         -0.0746197              -2.0305
        66                         -0.0595528              -1.6205
        67                         -0.0424702              -1.1557
        68                         -0.0377223              -1.0265
        69                         -0.0297264              -0.8089
        70                         -0.0260647              -0.7093
        71                         -0.0130510              -0.3551
       ...                                ...                  ...
       120                          0.4525623              12.3148
      -------------------------------------------------------------
                  HL-Gap            0.0370846 Eh            1.0091 eV

     #   Z          covCN         q      C6AA      α(0)
     1   6 C        3.751    -0.104    22.544     6.771
     2   6 C        3.799    -0.053    21.533     6.607
     3   6 C        3.801    -0.058    21.624     6.621
     4   6 C        3.800    -0.059    21.637     6.623
     5   6 C        3.800    -0.060    21.662     6.627
     6   6 C        3.800    -0.061    21.676     6.629
     7   6 C        3.800    -0.061    21.672     6.628
     8   6 C        3.800    -0.065    21.745     6.639
     9   6 C        3.802    -0.069    21.813     6.649
    10   6 C        3.760    -0.033    21.208     6.565
    11   7 N        2.749     0.106    19.414     6.544
    12   6 C        2.892     0.027    27.401     8.582
    13   6 C        2.913    -0.017    28.437     8.744
    14   6 C        2.930    -0.001    28.062     8.688
    15   6 C        2.965     0.045    26.987     8.521
    16   6 C        2.901     0.018    27.601     8.614
    17   6 C        3.808    -0.075    21.919     6.665
    18   6 C        3.802    -0.059    21.641     6.623
    19   6 C        3.800    -0.063    21.712     6.634
    20   6 C        3.799    -0.055    21.564     6.612
    21   6 C        3.751    -0.109    22.649     6.787
    22   1 H        0.925     0.034     2.532     2.488
    23   1 H        0.925     0.037     2.493     2.469
    24   1 H        0.925     0.037     2.494     2.469
    25   1 H        0.924     0.030     2.590     2.517
    26   1 H        0.924     0.032     2.564     2.504
    27   1 H        0.924     0.025     2.657     2.549
    28   1 H        0.924     0.034     2.535     2.490
    29   1 H        0.924     0.023     2.688     2.564
    30   1 H        0.924     0.040     2.450     2.448
    31   1 H        0.924     0.024     2.668     2.555
    32   1 H        0.924     0.044     2.400     2.423
    33   1 H        0.924     0.025     2.656     2.548
    34   1 H        0.924     0.046     2.368     2.406
    35   1 H        0.924     0.018     2.769     2.602
    36   1 H        0.924     0.049     2.331     2.388
    37   1 H        0.924     0.019     2.751     2.594
    38   1 H        0.925     0.065     2.143     2.289
    39   1 H        0.924     0.049     2.334     2.389
    40   1 H        0.925     0.082     1.956     2.187
    41   1 H        0.924     0.085     1.925     2.169
    42   1 H        0.925     0.091     1.869     2.138
    43   1 H        0.926     0.103     1.760     2.074
    44   1 H        0.926     0.099     1.795     2.095
    45   1 H        0.926     0.100     1.787     2.091
    46   1 H        0.926     0.099     1.796     2.096
    47   1 H        0.925     0.080     1.974     2.197
    48   1 H        0.924     0.064     2.158     2.297
    49   1 H        0.925     0.069     2.092     2.262
    50   1 H        0.924     0.037     2.491     2.468
    51   1 H        0.924     0.053     2.282     2.362
    52   1 H        0.924     0.022     2.701     2.570
    53   1 H        0.924     0.041     2.431     2.438
    54   1 H        0.924     0.024     2.667     2.554
    55   1 H        0.925     0.044     2.393     2.419
    56   1 H        0.925     0.046     2.369     2.407
    57   1 H        0.925     0.037     2.495     2.470

Wiberg/Mayer (AO) data.
largest (>0.10) Wiberg bond orders for each atom

     #   Z sym  total        # sym  WBO       # sym  WBO       # sym  WBO
 ---------------------------------------------------------------------------
     1   6 C    3.997 --     2 C    1.020    24 H    0.987    23 H    0.987
                            22 H    0.986
     2   6 C    3.998 --     1 C    1.020     3 C    1.008    26 H    0.978
                            25 H    0.976
     3   6 C    3.997 --     2 C    1.008     4 C    1.008    28 H    0.977
                            27 H    0.976
     4   6 C    3.997 --     5 C    1.008     3 C    1.008    29 H    0.975
                            30 H    0.974
     5   6 C    3.996 --     4 C    1.008     6 C    1.007    31 H    0.975
                            32 H    0.973
     6   6 C    3.996 --     5 C    1.007     7 C    1.007    33 H    0.975
                            34 H    0.973
     7   6 C    3.995 --     6 C    1.007     8 C    1.007    35 H    0.974
                            36 H    0.973
     8   6 C    3.993 --     9 C    1.009     7 C    1.007    37 H    0.973
                            38 H    0.966
     9   6 C    3.982 --     8 C    1.009    10 C    0.974    39 H    0.974
                            40 H    0.961
    10   6 C    3.935 --     9 C    0.974    11 N    0.964    42 H    0.962
                            41 H    0.962
    11   7 N    3.763 --    12 C    1.326    16 C    1.323    10 C    0.964
    12   6 C    3.957 --    13 C    1.444    11 N    1.326    43 H    0.954
    13   6 C    3.983 --    12 C    1.444    14 C    1.442    44 H    0.961
    14   6 C    3.975 --    13 C    1.442    15 C    1.366    45 H    0.959
    15   6 C    3.977 --    16 C    1.420    14 C    1.366    17 C    1.031
    16   6 C    3.958 --    15 C    1.420    11 N    1.323    46 H    0.955
    17   6 C    3.985 --    15 C    1.031    48 H    0.967    18 C    0.964
                            47 H    0.960
    18   6 C    3.988 --    19 C    1.010    50 H    0.977    49 H    0.967
                            17 C    0.964
    19   6 C    3.995 --    18 C    1.010    20 C    1.007    52 H    0.973
                            51 H    0.971
    20   6 C    3.997 --    21 C    1.020    19 C    1.007    53 H    0.977
                            54 H    0.973
    21   6 C    3.994 --    20 C    1.020    55 H    0.987    56 H    0.986
                            57 H    0.986
    22   1 H    0.999 --     1 C    0.986
    23   1 H    0.999 --     1 C    0.987
    24   1 H    0.999 --     1 C    0.987
    25   1 H    0.999 --     2 C    0.976
    26   1 H    0.999 --     2 C    0.978
    27   1 H    0.999 --     3 C    0.976
    28   1 H    0.999 --     3 C    0.977
    29   1 H    0.999 --     4 C    0.975
    30   1 H    0.998 --     4 C    0.974
    31   1 H    0.999 --     5 C    0.975
    32   1 H    0.998 --     5 C    0.973
    33   1 H    0.999 --     6 C    0.975
    34   1 H    0.998 --     6 C    0.973
    35   1 H    1.000 --     7 C    0.974
    36   1 H    0.998 --     7 C    0.973
    37   1 H    1.000 --     8 C    0.973
    38   1 H    0.995 --     8 C    0.966
    39   1 H    0.998 --     9 C    0.974
    40   1 H    0.992 --     9 C    0.961
    41   1 H    0.992 --    10 C    0.962
    42   1 H    0.991 --    10 C    0.962
    43   1 H    0.989 --    12 C    0.954
    44   1 H    0.990 --    13 C    0.961
    45   1 H    0.990 --    14 C    0.959
    46   1 H    0.990 --    16 C    0.955
    47   1 H    0.993 --    17 C    0.960
    48   1 H    0.996 --    17 C    0.967
    49   1 H    0.993 --    18 C    0.967
    50   1 H    0.999 --    18 C    0.977
    51   1 H    0.996 --    19 C    0.971
    52   1 H    0.999 --    19 C    0.973
    53   1 H    0.998 --    20 C    0.977
    54   1 H    0.999 --    20 C    0.973
    55   1 H    0.998 --    21 C    0.987
    56   1 H    0.998 --    21 C    0.986
    57   1 H    0.999 --    21 C    0.986
 ---------------------------------------------------------------------------

molecular dipole:
                 x           y           z       tot (Debye)
 q only:       -5.296      -1.960     -16.121
   full:       -5.350      -1.867     -16.115      43.418

           -------------------------------------------------
          | TOTAL ENERGY              -63.746644607848 Eh   |
          | GRADIENT NORM               0.000626370971 Eh/α |
          | HOMO-LUMO GAP               1.009122082036 eV   |
           -------------------------------------------------

 * finished run on 2024/12/20 at 02:03:23.498
