   * xtb version 6.7.1 (edcfbbe) compiled by 'conda@3ef47c1a292c' on 2024-11-25

   ID    Z sym.   atoms
    1    6 C      1-4, 6, 8-12
    2    7 N      5, 7
    3    1 H      13-21

          program call               : xtb C0021.xyz --opt --namespace C0021 --charge +1
          :  Hamiltonian                  GFN2-xTB          :
 * total energy  :   -31.4168937 Eh     change       -0.1389203E-08 Eh
 * total energy  :   -31.4209213 Eh     change       -0.4027544E-02 Eh
 * total energy  :   -31.4216440 Eh     change       -0.7227602E-03 Eh
 * total energy  :   -31.4217265 Eh     change       -0.8244593E-04 Eh
 * total energy  :   -31.4217989 Eh     change       -0.7243098E-04 Eh
 * total energy  :   -31.4218482 Eh     change       -0.4933707E-04 Eh
 * total energy  :   -31.4218951 Eh     change       -0.4688681E-04 Eh
 * total energy  :   -31.4219833 Eh     change       -0.8816742E-04 Eh
 * total energy  :   -31.4220839 Eh     change       -0.1006231E-03 Eh
 * total energy  :   -31.4221484 Eh     change       -0.6452691E-04 Eh
 * total energy  :   -31.4221777 Eh     change       -0.2930240E-04 Eh
 * total energy  :   -31.4221900 Eh     change       -0.1226020E-04 Eh
 * total energy  :   -31.4221920 Eh     change       -0.1960093E-05 Eh
   *** GEOMETRY OPTIMIZATION CONVERGED AFTER 13 ITERATIONS ***

 final structure:
================
21
 xtb: 6.7.1 (edcfbbe)
C            0.62292911959092        1.18874453296026       -0.09077672356228
C            1.39598233152486        0.09776998374612        0.27260315531698
C            0.81188616413892       -1.16201756568365        0.33785506473545
C           -0.53864461747866       -1.24844949869842        0.03052129800027
N           -1.27681051216453       -0.21503129685390       -0.34103723809686
C           -0.71685784903270        0.97660456506459       -0.39959248619742
N           -1.25263598581003       -2.48948816235018        0.06493430551081
C           -2.29222192831644       -2.64414850634861       -0.77039038111209
C           -3.01589638626273       -3.81645490048109       -0.79142743397166
C           -2.66028262849311       -4.85289753187614        0.06299788740911
C           -1.59247094045835       -4.66410266996847        0.93270886841965
C           -0.90897319504752       -3.46741733159324        0.91688167535124
H            1.04704916754098        2.17762501739793       -0.14503230917149
H            2.44435431559329        0.21481612290004        0.49826513048077
H            1.40631790892792       -2.02793129642630        0.58063810155194
H           -1.36753201447763        1.78228480206692       -0.70507821953589
H           -2.52175798905618       -1.79676708752765       -1.40057951198462
H           -3.84505685617164       -3.91616093887765       -1.47349085618591
H           -3.20622907527312       -5.78326773793385        0.05851307966697
H           -1.29604271125513       -5.43543901741367        1.62547907545452
H           -0.09554631801922       -3.27372148210288        1.59912751792073

          :  Hamiltonian                  GFN2-xTB          :
         :: total energy             -31.422191968189 Eh    ::
         :: gradient norm              0.000733645512 Eh/a0 ::
         :: HOMO-LUMO gap              1.775493450000 eV    ::
         :: SCC energy               -31.984008521464 Eh    ::
         :: -> dispersion             -0.018397972674 Eh    ::
         :: repulsion energy           0.561816553275 Eh    ::

    * Orbital Energies and Occupations

         #    Occupation            Energy/Eh            Energy/eV
      -------------------------------------------------------------
         1        2.0000           -0.8781424             -23.8955
       ...           ...                  ...                  ...
        17        2.0000           -0.6711810             -18.2638
        18        2.0000           -0.6655410             -18.1103
        19        2.0000           -0.6618523             -18.0099
        20        2.0000           -0.6436076             -17.5135
        21        2.0000           -0.6318169             -17.1926
        22        2.0000           -0.6219046             -16.9229
        23        2.0000           -0.6206827             -16.8896
        24        2.0000           -0.6139533             -16.7065
        25        2.0000           -0.6125717             -16.6689
        26        2.0000           -0.5930983             -16.1390
        27        2.0000           -0.5894833             -16.0407
        28        2.0000           -0.5717191             -15.5573
        29        2.0000           -0.5305130             -14.4360 (HOMO)
        30                         -0.4652648             -12.6605 (LUMO)
        31                         -0.4259188             -11.5898
        32                         -0.4001525             -10.8887
        33                         -0.3863573             -10.5133
        34                         -0.3047007              -8.2913
        35                         -0.2602419              -7.0815
        36                         -0.1657723              -4.5109
        37                         -0.0682162              -1.8563
        38                         -0.0299727              -0.8156
        39                         -0.0276792              -0.7532
        40                         -0.0123412              -0.3358
       ...                                ...                  ...
        57                          0.4862095              13.2304
      -------------------------------------------------------------
                  HL-Gap            0.0652482 Eh            1.7755 eV

     #   Z          covCN         q      C6AA      α(0)
     1   6 C        2.913    -0.019    28.489     8.752
     2   6 C        2.931     0.003    27.948     8.670
     3   6 C        2.913    -0.040    28.985     8.828
     4   6 C        2.930     0.125    25.266     8.243
     5   7 N        1.846    -0.209    26.382     7.612
     6   6 C        2.909     0.073    26.375     8.421
     7   7 N        2.760     0.101    19.494     6.558
     8   6 C        2.895     0.040    27.100     8.535
     9   6 C        2.915    -0.007    28.199     8.708
    10   6 C        2.924     0.016    27.663     8.625
    11   6 C        2.915    -0.009    28.252     8.716
    12   6 C        2.886     0.034    27.237     8.556
    13   1 H        0.926     0.086     1.916     2.164
    14   1 H        0.926     0.084     1.941     2.178
    15   1 H        0.926     0.069     2.100     2.266
    16   1 H        0.926     0.086     1.917     2.165
    17   1 H        0.926     0.131     1.529     1.934
    18   1 H        0.926     0.111     1.684     2.029
    19   1 H        0.926     0.109     1.703     2.041
    20   1 H        0.926     0.109     1.705     2.042
    21   1 H        0.926     0.107     1.719     2.051

Wiberg/Mayer (AO) data.
largest (>0.10) Wiberg bond orders for each atom

     #   Z sym  total        # sym  WBO       # sym  WBO       # sym  WBO
 ---------------------------------------------------------------------------
     1   6 C    3.975 --     2 C    1.451     6 C    1.401    13 H    0.965
                             4 C    0.103
     2   6 C    3.982 --     1 C    1.451     3 C    1.425    14 H    0.964
     3   6 C    3.988 --     2 C    1.425     4 C    1.392    15 H    0.962
                             6 C    0.101
     4   6 C    3.949 --     3 C    1.392     5 N    1.389     7 N    0.979
                             1 C    0.103
     5   7 N    3.082 --     6 C    1.451     4 C    1.389
     6   6 C    3.967 --     5 N    1.451     1 C    1.401    16 H    0.958
                             3 C    0.101
     7   7 N    3.765 --    12 C    1.305     8 C    1.303     4 C    0.979
     8   6 C    3.947 --     9 C    1.468     7 N    1.303    17 H    0.946
     9   6 C    3.979 --     8 C    1.468    10 C    1.419    18 H    0.958
    10   6 C    3.960 --     9 C    1.419    11 C    1.414    19 H    0.961
    11   6 C    3.980 --    12 C    1.472    10 C    1.414    20 H    0.959
    12   6 C    3.956 --    11 C    1.472     7 N    1.305    21 H    0.953
    13   1 H    0.992 --     1 C    0.965
    14   1 H    0.992 --     2 C    0.964
    15   1 H    0.995 --     3 C    0.962
    16   1 H    0.992 --     6 C    0.958
    17   1 H    0.983 --     8 C    0.946
    18   1 H    0.987 --     9 C    0.958
    19   1 H    0.988 --    10 C    0.961
    20   1 H    0.988 --    11 C    0.959
    21   1 H    0.988 --    12 C    0.953
 ---------------------------------------------------------------------------

molecular dipole:
                 x           y           z       tot (Debye)
 q only:       -2.141      -4.771       0.107
   full:       -1.772      -4.740       0.213      12.875

           -------------------------------------------------
          | TOTAL ENERGY              -31.422191968189 Eh   |
          | GRADIENT NORM               0.000733645512 Eh/α |
          | HOMO-LUMO GAP               1.775493450000 eV   |
           -------------------------------------------------

 * finished run on 2024/12/20 at 02:03:13.893
