   * xtb version 6.7.1 (edcfbbe) compiled by 'conda@3ef47c1a292c' on 2024-11-25

   ID    Z sym.   atoms
    1    6 C      1, 3, 4, 6-11
    2    8 O      2
    3    7 N      5
    4    1 H      12-33

          program call               : xtb C0025.xyz --opt --namespace C0025 --charge +1
          :  Hamiltonian                  GFN2-xTB          :
 * total energy  :   -37.0642760 Eh     change       -0.5154988E-10 Eh
 * total energy  :   -37.0720565 Eh     change       -0.7780545E-02 Eh
 * total energy  :   -37.0740688 Eh     change       -0.2012229E-02 Eh
 * total energy  :   -37.0742161 Eh     change       -0.1472825E-03 Eh
 * total energy  :   -37.0744040 Eh     change       -0.1879579E-03 Eh
 * total energy  :   -37.0745031 Eh     change       -0.9904635E-04 Eh
 * total energy  :   -37.0746332 Eh     change       -0.1301187E-03 Eh
 * total energy  :   -37.0746963 Eh     change       -0.6313060E-04 Eh
 * total energy  :   -37.0747246 Eh     change       -0.2832833E-04 Eh
 * total energy  :   -37.0747384 Eh     change       -0.1380784E-04 Eh
 * total energy  :   -37.0747539 Eh     change       -0.1540591E-04 Eh
 * total energy  :   -37.0747684 Eh     change       -0.1453583E-04 Eh
 * total energy  :   -37.0747759 Eh     change       -0.7540265E-05 Eh
 * total energy  :   -37.0747911 Eh     change       -0.1515444E-04 Eh
 * total energy  :   -37.0747944 Eh     change       -0.3269478E-05 Eh
   *** GEOMETRY OPTIMIZATION CONVERGED AFTER 15 ITERATIONS ***

 final structure:
================
33
 xtb: 6.7.1 (edcfbbe)
C            1.53592538644229        1.34127344061973       -1.32737521409567
O            1.09058158454723        0.88821193449447       -0.06486256358337
C            1.12866288322235        1.88296537388046        0.92887045635212
C            0.44030381332334        1.39869065186552        2.20978599647895
N            0.85324395639125        0.05713129170557        2.71038679461010
C            2.34376848627645       -0.10423589235206        2.66066074837830
C            3.15271985771202        0.84611883511457        3.53174654835940
C            0.42961281737805       -0.08410376695350        4.14055778897887
C           -1.06444555310684       -0.13359132983175        4.41491033363725
C            0.28537989231440       -1.06653235136565        1.87932937382254
C           -1.07940548331950       -0.86011019708141        1.23901301428182
H            1.45955461692621        0.49173326657720       -2.00043276113440
H            2.57466788132607        1.68137805418596       -1.27968471507814
H            0.90931215448116        2.15859129373791       -1.69444312286521
H            2.16904350478173        2.18719762844952        1.12020667892539
H            0.58640979534899        2.78068629972731        0.59367220811385
H            0.64176152447869        2.13565375110274        2.98849918950171
H           -0.63356972265125        1.36645586028422        2.03866212687441
H            2.56637379289374       -1.13128791293224        2.95870253610913
H            2.64047905911255        0.01198660807764        1.61836604754290
H            3.04438345945117        0.63402494508947        4.59130919286115
H            4.20218955056991        0.70694164620225        3.28319988906238
H            2.91078123732629        1.88946817442794        3.35236542322589
H            0.88610683822736       -1.00069664918302        4.52091266145472
H            0.85268277872250        0.75823002647572        4.68878731526543
H           -1.52579809998463       -1.03459239026147        4.02404408343225
H           -1.19795679419497       -0.14589488927065        5.49446460408999
H           -1.58536269941537        0.73991280056968        4.03440142481553
H            0.98392142893111       -1.24873417825868        1.06282150347371
H            0.26571340090121       -1.94777545502409        2.52289788650639
H           -1.02338882161328       -0.13270617641423        0.43499369413830
H           -1.36596979207258       -1.81048786990313        0.79400131713491
H           -1.85955273472675       -0.57823282375625        1.93754953932958

          :  Hamiltonian                  GFN2-xTB          :
         :: total energy             -37.074794352836 Eh    ::
         :: gradient norm              0.000819812059 Eh/a0 ::
         :: HOMO-LUMO gap              8.097744908677 eV    ::
         :: SCC energy               -37.548735327045 Eh    ::
         :: -> dispersion             -0.025057929931 Eh    ::
         :: repulsion energy           0.473940974209 Eh    ::

    * Orbital Energies and Occupations

         #    Occupation            Energy/Eh            Energy/eV
      -------------------------------------------------------------
         1        2.0000           -0.8504120             -23.1409
       ...           ...                  ...                  ...
        22        2.0000           -0.6334511             -17.2371
        23        2.0000           -0.6280052             -17.0889
        24        2.0000           -0.6189088             -16.8414
        25        2.0000           -0.6142632             -16.7150
        26        2.0000           -0.6105140             -16.6129
        27        2.0000           -0.6082362             -16.5510
        28        2.0000           -0.6026636             -16.3993
        29        2.0000           -0.5972026             -16.2507
        30        2.0000           -0.5965357             -16.2326
        31        2.0000           -0.5887034             -16.0194
        32        2.0000           -0.5811591             -15.8141
        33        2.0000           -0.5793103             -15.7638
        34        2.0000           -0.5335290             -14.5181 (HOMO)
        35                         -0.2359423              -6.4203 (LUMO)
        36                         -0.1712479              -4.6599
        37                         -0.1606988              -4.3728
        38                         -0.1563491              -4.2545
        39                         -0.1115309              -3.0349
        40                         -0.0627460              -1.7074
        41                         -0.0506976              -1.3796
        42                         -0.0393680              -1.0713
        43                         -0.0309947              -0.8434
        44                         -0.0192383              -0.5235
        45                         -0.0177944              -0.4842
       ...                                ...                  ...
        66                          0.1633993               4.4463
      -------------------------------------------------------------
                  HL-Gap            0.2975866 Eh            8.0977 eV

     #   Z          covCN         q      C6AA      α(0)
     1   6 C        3.652     0.027    20.428     6.491
     2   8 O        1.700    -0.317    19.299     5.931
     3   6 C        3.700     0.074    19.499     6.315
     4   6 C        3.750    -0.038    21.321     6.585
     5   7 N        3.616     0.107    19.401     6.542
     6   6 C        3.763    -0.035    21.244     6.570
     7   6 C        3.750    -0.129    23.031     6.844
     8   6 C        3.758    -0.032    21.189     6.563
     9   6 C        3.751    -0.128    23.022     6.843
    10   6 C        3.754    -0.032    21.209     6.567
    11   6 C        3.751    -0.131    23.086     6.852
    12   1 H        0.925     0.077     2.011     2.218
    13   1 H        0.924     0.043     2.411     2.428
    14   1 H        0.924     0.048     2.351     2.398
    15   1 H        0.923     0.044     2.395     2.420
    16   1 H        0.923     0.057     2.236     2.338
    17   1 H        0.924     0.085     1.926     2.170
    18   1 H        0.925     0.105     1.743     2.064
    19   1 H        0.924     0.080     1.979     2.200
    20   1 H        0.925     0.098     1.805     2.101
    21   1 H        0.925     0.066     2.133     2.284
    22   1 H        0.925     0.085     1.932     2.173
    23   1 H        0.925     0.062     2.179     2.309
    24   1 H        0.924     0.082     1.961     2.190
    25   1 H        0.924     0.084     1.935     2.175
    26   1 H        0.925     0.072     2.067     2.248
    27   1 H        0.925     0.083     1.951     2.184
    28   1 H        0.925     0.063     2.167     2.302
    29   1 H        0.925     0.099     1.795     2.095
    30   1 H        0.924     0.078     1.997     2.210
    31   1 H        0.925     0.081     1.967     2.193
    32   1 H        0.925     0.081     1.972     2.196
    33   1 H        0.925     0.065     2.144     2.290

Wiberg/Mayer (AO) data.
largest (>0.10) Wiberg bond orders for each atom

     #   Z sym  total        # sym  WBO       # sym  WBO       # sym  WBO
 ---------------------------------------------------------------------------
     1   6 C    3.936 --    13 H    0.979     2 O    0.978    14 H    0.978
                            12 H    0.978
     2   8 O    2.070 --     3 C    0.995     1 C    0.978
     3   6 C    3.959 --     4 C    1.001     2 O    0.995    15 H    0.962
                            16 H    0.959
     4   6 C    3.943 --     3 C    1.001    17 H    0.965    18 H    0.958
                             5 N    0.945
     5   7 N    3.799 --     4 C    0.945     8 C    0.931     6 C    0.928
                            10 C    0.918
     6   6 C    3.934 --     7 C    1.022    19 H    0.969    20 H    0.962
                             5 N    0.928
     7   6 C    3.983 --     6 C    1.022    21 H    0.981    23 H    0.980
                            22 H    0.973
     8   6 C    3.936 --     9 C    1.022    24 H    0.967    25 H    0.964
                             5 N    0.931
     9   6 C    3.982 --     8 C    1.022    28 H    0.981    26 H    0.979
                            27 H    0.973
    10   6 C    3.927 --    11 C    1.023    30 H    0.969    29 H    0.964
                             5 N    0.918
    11   6 C    3.980 --    10 C    1.023    31 H    0.977    33 H    0.977
                            32 H    0.971
    12   1 H    0.994 --     1 C    0.978
    13   1 H    0.998 --     1 C    0.979
    14   1 H    0.998 --     1 C    0.978
    15   1 H    0.998 --     3 C    0.962
    16   1 H    0.996 --     3 C    0.959
    17   1 H    0.992 --     4 C    0.965
    18   1 H    0.989 --     4 C    0.958
    19   1 H    0.994 --     6 C    0.969
    20   1 H    0.990 --     6 C    0.962
    21   1 H    0.996 --     7 C    0.981
    22   1 H    0.992 --     7 C    0.973
    23   1 H    0.996 --     7 C    0.980
    24   1 H    0.993 --     8 C    0.967
    25   1 H    0.993 --     8 C    0.964
    26   1 H    0.995 --     9 C    0.979
    27   1 H    0.993 --     9 C    0.973
    28   1 H    0.996 --     9 C    0.981
    29   1 H    0.990 --    10 C    0.964
    30   1 H    0.994 --    10 C    0.969
    31   1 H    0.993 --    11 C    0.977
    32   1 H    0.993 --    11 C    0.971
    33   1 H    0.996 --    11 C    0.977
 ---------------------------------------------------------------------------

molecular dipole:
                 x           y           z       tot (Debye)
 q only:        1.594       0.569       4.769
   full:        1.721       0.727       4.768      13.017

           -------------------------------------------------
          | TOTAL ENERGY              -37.074794352836 Eh   |
          | GRADIENT NORM               0.000819812059 Eh/α |
          | HOMO-LUMO GAP               8.097744908677 eV   |
           -------------------------------------------------

 * finished run on 2024/12/20 at 02:03:16.101
