   * xtb version 6.7.1 (edcfbbe) compiled by 'conda@3ef47c1a292c' on 2024-11-25

   ID    Z sym.   atoms
    1    6 C      1, 3, 4, 6-8, 10-16
    2    7 N      2, 5
    3    8 O      9
    4    1 H      17-31

          program call               : xtb C0036.xyz --opt --namespace C0036 --charge +1
          :  Hamiltonian                  GFN2-xTB          :
 * total energy  :   -45.0051127 Eh     change       -0.8263115E-09 Eh
 * total energy  :   -45.0111300 Eh     change       -0.6017246E-02 Eh
 * total energy  :   -45.0129955 Eh     change       -0.1865512E-02 Eh
 * total energy  :   -45.0134033 Eh     change       -0.4077875E-03 Eh
 * total energy  :   -45.0137905 Eh     change       -0.3872472E-03 Eh
 * total energy  :   -45.0140634 Eh     change       -0.2729165E-03 Eh
 * total energy  :   -45.0144111 Eh     change       -0.3477264E-03 Eh
 * total energy  :   -45.0147667 Eh     change       -0.3555333E-03 Eh
 * total energy  :   -45.0150074 Eh     change       -0.2407188E-03 Eh
 * total energy  :   -45.0151285 Eh     change       -0.1211140E-03 Eh
 * total energy  :   -45.0166258 Eh     change       -0.5164953E-04 Eh
 * total energy  :   -45.0166657 Eh     change       -0.3993058E-04 Eh
 * total energy  :   -45.0166928 Eh     change       -0.2710920E-04 Eh
 * total energy  :   -45.0167128 Eh     change       -0.2003430E-04 Eh
 * total energy  :   -45.0167298 Eh     change       -0.1698390E-04 Eh
 * total energy  :   -45.0167484 Eh     change       -0.1858895E-04 Eh
 * total energy  :   -45.0167650 Eh     change       -0.1656302E-04 Eh
 * total energy  :   -45.0167738 Eh     change       -0.8850393E-05 Eh
 * total energy  :   -45.0167777 Eh     change       -0.3851056E-05 Eh
   *** GEOMETRY OPTIMIZATION CONVERGED AFTER 39 ITERATIONS ***

 final structure:
================
31
 xtb: 6.7.1 (edcfbbe)
C            0.66586344714529       -0.21666668722373        0.78530730595539
N            0.48728919879139        1.20963640895965        0.76779647494765
C            1.14126037279508        2.07672874990998       -0.05622717780508
C            0.68386355626160        3.32645644926390        0.22385121667782
N           -0.23211630570300        3.20713984006216        1.22750826672024
C           -0.34579570573071        1.91285401773801        1.52868255508165
C           -1.13371478999581        4.21807665094636        1.69134487318041
C           -2.57810524238042        3.78674226429348        1.28637177212061
O           -2.74136737295148        2.64623633627217        0.91632505160288
C           -3.62880196869612        4.78841056842890        1.39021487733394
C           -4.88931350489744        4.44462184377290        0.88562776552518
C           -5.92968494162304        5.34908719974470        0.94960593252638
C           -5.72937634212439        6.59387266196772        1.52029796873053
C           -4.48600381393869        6.95636247627554        2.04077182744086
C           -3.44179327536383        6.04983233294343        1.96854047854761
C           -4.30171398836905        8.30654865205307        2.65514806170600
H            0.42923198153917       -0.63405702882345       -0.19410567323434
H            0.00709670701589       -0.66145845281137        1.52734751204451
H            1.70004528765974       -0.46401996379388        1.02791080284826
H            1.86836178046176        1.75283622378623       -0.77250644241974
H            0.94622821713467        4.26998026014605       -0.20902552244490
H           -0.98976836735530        1.50378427889716        2.28188215619435
H           -1.09901459790578        4.29903432700044        2.78146055262929
H           -0.86987997673347        5.17492904255118        1.24230919530431
H           -5.02340782706566        3.46860208229680        0.44576695016145
H           -6.89854316259301        5.08436637684979        0.55626230542473
H           -6.54487866843133        7.29976663059998        1.57048838835762
H           -2.48542078516542        6.33019919131221        2.38351972626509
H           -4.43600423640821        9.08119666140168        1.90138233853850
H           -5.04577945656080        8.47324839683690        3.43158159505101
H           -3.31213621881421        8.41449220833999        3.09039886498355

          :  Hamiltonian                  GFN2-xTB          :
         :: total energy             -45.016777682055 Eh    ::
         :: gradient norm              0.000474813739 Eh/a0 ::
         :: HOMO-LUMO gap              2.738236255323 eV    ::
         :: SCC energy               -45.733980474078 Eh    ::
         :: -> dispersion             -0.027134610572 Eh    ::
         :: repulsion energy           0.717202792023 Eh    ::

    * Orbital Energies and Occupations

         #    Occupation            Energy/Eh            Energy/eV
      -------------------------------------------------------------
         1        2.0000           -0.8832626             -24.0348
       ...           ...                  ...                  ...
        29        2.0000           -0.6115770             -16.6419
        30        2.0000           -0.6007309             -16.3467
        31        2.0000           -0.5977238             -16.2649
        32        2.0000           -0.5935128             -16.1503
        33        2.0000           -0.5824522             -15.8493
        34        2.0000           -0.5754552             -15.6589
        35        2.0000           -0.5689864             -15.4829
        36        2.0000           -0.5586600             -15.2019
        37        2.0000           -0.5487339             -14.9318
        38        2.0000           -0.5348811             -14.5549
        39        2.0000           -0.5253234             -14.2948
        40        2.0000           -0.5233009             -14.2397
        41        2.0000           -0.5075797             -13.8119 (HOMO)
        42                         -0.4069514             -11.0737 (LUMO)
        43                         -0.3925462             -10.6817
        44                         -0.3604085              -9.8072
        45                         -0.3331034              -9.0642
        46                         -0.3090087              -8.4086
        47                         -0.2000134              -5.4426
        48                         -0.1693691              -4.6088
        49                         -0.1193012              -3.2464
        50                         -0.0833078              -2.2669
        51                         -0.0421427              -1.1468
        52                         -0.0384909              -1.0474
       ...                                ...                  ...
        79                          0.5537053              15.0671
      -------------------------------------------------------------
                  HL-Gap            0.1006283 Eh            2.7382 eV

     #   Z          covCN         q      C6AA      α(0)
     1   6 C        3.692    -0.085    22.320     6.760
     2   7 N        2.866     0.077    19.895     6.625
     3   6 C        3.070    -0.009    28.162     8.702
     4   6 C        3.065    -0.008    28.150     8.700
     5   7 N        2.872     0.071    19.996     6.642
     6   6 C        3.093     0.058    26.582     8.450
     7   6 C        3.743    -0.050    21.550     6.623
     8   6 C        2.823     0.227    23.239     7.899
     9   8 O        0.857    -0.360    20.891     6.128
    10   6 C        2.969    -0.019    28.481     8.754
    11   6 C        2.928    -0.014    28.363     8.734
    12   6 C        2.914    -0.020    28.507     8.755
    13   6 C        2.926    -0.018    28.464     8.749
    14   6 C        2.963     0.034    27.238     8.560
    15   6 C        2.924    -0.039    28.979     8.828
    16   6 C        3.759    -0.121    22.871     6.818
    17   1 H        0.924     0.107     1.720     2.051
    18   1 H        0.925     0.100     1.785     2.089
    19   1 H        0.924     0.103     1.754     2.071
    20   1 H        0.926     0.108     1.717     2.049
    21   1 H        0.926     0.103     1.760     2.075
    22   1 H        0.926     0.122     1.597     1.976
    23   1 H        0.924     0.100     1.781     2.087
    24   1 H        0.925     0.100     1.783     2.088
    25   1 H        0.926     0.072     2.068     2.249
    26   1 H        0.926     0.065     2.144     2.290
    27   1 H        0.926     0.066     2.128     2.281
    28   1 H        0.926     0.040     2.453     2.449
    29   1 H        0.925     0.069     2.101     2.267
    30   1 H        0.925     0.068     2.104     2.268
    31   1 H        0.925     0.053     2.283     2.363

Wiberg/Mayer (AO) data.
largest (>0.10) Wiberg bond orders for each atom

     #   Z sym  total        # sym  WBO       # sym  WBO       # sym  WBO
 ---------------------------------------------------------------------------
     1   6 C    3.935 --     2 N    0.991    18 H    0.976    19 H    0.964
                            17 H    0.962
     2   7 N    3.716 --     6 C    1.361     3 C    1.219     1 C    0.991
     3   6 C    3.949 --     4 C    1.602     2 N    1.219    20 H    0.962
     4   6 C    3.947 --     3 C    1.602     5 N    1.212    21 H    0.962
     5   7 N    3.707 --     6 C    1.341     4 C    1.212     7 C    0.997
     6   6 C    3.945 --     2 N    1.361     5 N    1.341    22 H    0.952
     7   6 C    3.946 --     5 N    0.997    24 H    0.958    23 H    0.943
                             8 C    0.915
     8   6 C    3.929 --     9 O    1.798    10 C    1.089     7 C    0.915
     9   8 O    2.107 --     8 C    1.798
    10   6 C    3.981 --    11 C    1.347    15 C    1.345     8 C    1.089
    11   6 C    3.985 --    12 C    1.454    10 C    1.347    25 H    0.965
    12   6 C    3.989 --    11 C    1.454    13 C    1.442    26 H    0.967
    13   6 C    3.986 --    12 C    1.442    14 C    1.375    27 H    0.967
    14   6 C    3.987 --    15 C    1.445    13 C    1.375    16 C    1.033
    15   6 C    3.991 --    14 C    1.445    10 C    1.345    28 H    0.964
    16   6 C    3.992 --    14 C    1.033    31 H    0.984    30 H    0.968
                            29 H    0.964
    17   1 H    0.988 --     1 C    0.962
    18   1 H    0.990 --     1 C    0.976
    19   1 H    0.988 --     1 C    0.964
    20   1 H    0.988 --     3 C    0.962
    21   1 H    0.989 --     4 C    0.962
    22   1 H    0.985 --     6 C    0.952
    23   1 H    0.989 --     7 C    0.943
    24   1 H    0.990 --     7 C    0.958
    25   1 H    0.994 --    11 C    0.965
    26   1 H    0.995 --    12 C    0.967
    27   1 H    0.995 --    13 C    0.967
    28   1 H    0.998 --    15 C    0.964
    29   1 H    0.995 --    16 C    0.964
    30   1 H    0.995 --    16 C    0.968
    31   1 H    0.997 --    16 C    0.984
 ---------------------------------------------------------------------------

molecular dipole:
                 x           y           z       tot (Debye)
 q only:       -1.338       6.147       2.345
   full:       -1.262       6.262       2.444      17.385

           -------------------------------------------------
          | TOTAL ENERGY              -45.016777682055 Eh   |
          | GRADIENT NORM               0.000474813739 Eh/α |
          | HOMO-LUMO GAP               2.738236255323 eV   |
           -------------------------------------------------

 * finished run on 2024/12/20 at 02:03:34.671
