   * xtb version 6.7.1 (edcfbbe) compiled by 'conda@3ef47c1a292c' on 2024-11-25

   ID    Z sym.   atoms
    1    6 C      1, 3-9, 11, 12, 14-16
    2    8 O      2, 10
    3    7 N      13
    4    1 H      17-36

          program call               : xtb C0034.xyz --opt --namespace C0034 --charge +1
          :  Hamiltonian                  GFN2-xTB          :
 * total energy  :   -48.6594984 Eh     change       -0.2293845E-09 Eh
 * total energy  :   -48.6680883 Eh     change       -0.8589887E-02 Eh
 * total energy  :   -48.6706173 Eh     change       -0.2529050E-02 Eh
 * total energy  :   -48.6710515 Eh     change       -0.4341819E-03 Eh
 * total energy  :   -48.6716328 Eh     change       -0.5812918E-03 Eh
 * total energy  :   -48.6718734 Eh     change       -0.2406016E-03 Eh
 * total energy  :   -48.6721994 Eh     change       -0.3260260E-03 Eh
 * total energy  :   -48.6724489 Eh     change       -0.2494333E-03 Eh
 * total energy  :   -48.6726839 Eh     change       -0.2350749E-03 Eh
 * total energy  :   -48.6729026 Eh     change       -0.2186762E-03 Eh
 * total energy  :   -48.6783392 Eh     change       -0.1677760E-04 Eh
 * total energy  :   -48.6783548 Eh     change       -0.1556297E-04 Eh
 * total energy  :   -48.6783690 Eh     change       -0.1421654E-04 Eh
 * total energy  :   -48.6783828 Eh     change       -0.1379191E-04 Eh
 * total energy  :   -48.6783970 Eh     change       -0.1422587E-04 Eh
 * total energy  :   -48.6784113 Eh     change       -0.1433099E-04 Eh
 * total energy  :   -48.6784237 Eh     change       -0.1234497E-04 Eh
 * total energy  :   -48.6784315 Eh     change       -0.7850925E-05 Eh
 * total energy  :   -48.6784354 Eh     change       -0.3903801E-05 Eh
   *** GEOMETRY OPTIMIZATION CONVERGED AFTER 65 ITERATIONS ***

 final structure:
================
36
 xtb: 6.7.1 (edcfbbe)
C           -0.91166979832538        4.30463745617452       -0.79342080319606
O            0.14858647657265        3.47109535433862       -0.37208749252548
C            0.38697832538565        3.33027986265825        0.94948517726146
C           -0.34407876328170        3.94186343627362        1.96932021246354
C           -0.00594829381115        3.71730588320572        3.29403663199837
C            1.04692521949498        2.89050667122646        3.62304858790886
C            1.79162081764601        2.26959012698426        2.61196133379773
C            1.45507802063289        2.49663870962979        1.27961159183399
C            2.89767947044754        1.40282793063619        3.02309640804868
O            3.18954358833729        1.20159870526506        4.18467259928438
C            3.72313589736818        0.73160429326574        1.91340721917796
C            4.84336784124933       -0.12688605739846        2.49699701281017
N            4.50433137639656       -1.55677950031294        2.77011489052997
C            4.39773219387077       -2.31094386595833        1.50886203313306
C            5.59501727676797       -2.13329874736168        3.57992387745513
C            3.24500091989452       -1.67924743440245        3.52733869640013
H           -0.75876147793464        5.33844905445691       -0.47199563506165
H           -1.87524486205792        3.94151530128569       -0.42512523526761
H           -0.90184167864163        4.26045631615604       -1.88068728308396
H           -1.17200538935174        4.59261262760556        1.73944183036946
H           -0.57661065602981        4.19766233207262        4.07336814955042
H            1.31695560310234        2.71144452209691        4.65157174223379
H            1.99659699457674        2.05451425920793        0.45956063969659
H            3.06450463965194        0.17967081005466        1.24520352349055
H            4.17782009812517        1.53259642180012        1.32767142011087
H            5.70947433610602       -0.12049334672952        1.83379260170065
H            5.12409517663153        0.32984059699878        3.45190934018122
H            5.34756700048554       -2.29286914377864        0.97704326612854
H            4.13277197574705       -3.34664887283942        1.71452620995020
H            3.63144379925335       -1.88161147340620        0.86736614086632
H            5.63978645651016       -1.64130557144837        4.55001741977278
H            5.42410390792686       -3.19701862633101        3.73655301240842
H            6.55168873757067       -2.00425293534327        3.07647556410186
H            3.27244055161311       -1.02924868794424        4.40114933353697
H            2.39644278937202       -1.38758960969285        2.91276241886456
H            3.10400142869915       -2.70965679835793        3.84773756409719

          :  Hamiltonian                  GFN2-xTB          :
         :: total energy             -48.678435424207 Eh    ::
         :: gradient norm              0.000192117039 Eh/a0 ::
         :: HOMO-LUMO gap              2.372052683346 eV    ::
         :: SCC energy               -49.360434256188 Eh    ::
         :: -> dispersion             -0.030268267942 Eh    ::
         :: repulsion energy           0.681998831981 Eh    ::

    * Orbital Energies and Occupations

         #    Occupation            Energy/Eh            Energy/eV
      -------------------------------------------------------------
         1        2.0000           -0.8621619             -23.4606
       ...           ...                  ...                  ...
        32        2.0000           -0.6118694             -16.6498
        33        2.0000           -0.6049739             -16.4622
        34        2.0000           -0.6035360             -16.4231
        35        2.0000           -0.5820546             -15.8385
        36        2.0000           -0.5816343             -15.8271
        37        2.0000           -0.5795121             -15.7693
        38        2.0000           -0.5578355             -15.1795
        39        2.0000           -0.5452783             -14.8378
        40        2.0000           -0.5402056             -14.6997
        41        2.0000           -0.5315663             -14.4647
        42        2.0000           -0.5148735             -14.0104
        43        2.0000           -0.5111081             -13.9080
        44        2.0000           -0.4805910             -13.0775 (HOMO)
        45                         -0.3934197             -10.7055 (LUMO)
        46                         -0.3205173              -8.7217
        47                         -0.2950501              -8.0287
        48                         -0.2205493              -6.0015
        49                         -0.1867005              -5.0804
        50                         -0.1525867              -4.1521
        51                         -0.1431459              -3.8952
        52                         -0.1366785              -3.7192
        53                         -0.0804788              -2.1899
        54                         -0.0609280              -1.6579
        55                         -0.0547434              -1.4896
       ...                                ...                  ...
        84                          0.5672598              15.4359
      -------------------------------------------------------------
                  HL-Gap            0.0871713 Eh            2.3721 eV

     #   Z          covCN         q      C6AA      α(0)
     1   6 C        3.644     0.027    20.456     6.501
     2   8 O        1.706    -0.255    18.229     5.765
     3   6 C        2.862     0.154    24.660     8.140
     4   6 C        2.917    -0.050    29.247     8.868
     5   6 C        2.916    -0.023    28.571     8.765
     6   6 C        2.925    -0.027    28.674     8.782
     7   6 C        2.969    -0.020    28.515     8.759
     8   6 C        2.921    -0.059    29.474     8.903
     9   6 C        2.822     0.225    23.279     7.906
    10   8 O        0.857    -0.382    21.318     6.190
    11   6 C        3.800    -0.101    22.419     6.741
    12   6 C        3.764    -0.040    21.332     6.583
    13   7 N        3.622     0.148    18.737     6.429
    14   6 C        3.722    -0.096    22.447     6.766
    15   6 C        3.731    -0.100    22.505     6.772
    16   6 C        3.721    -0.099    22.508     6.776
    17   1 H        0.924     0.053     2.285     2.364
    18   1 H        0.924     0.051     2.302     2.373
    19   1 H        0.925     0.077     2.012     2.218
    20   1 H        0.926     0.062     2.181     2.309
    21   1 H        0.926     0.062     2.177     2.307
    22   1 H        0.926     0.071     2.073     2.251
    23   1 H        0.926     0.052     2.294     2.369
    24   1 H        0.925     0.070     2.081     2.256
    25   1 H        0.924     0.093     1.848     2.126
    26   1 H        0.924     0.082     1.962     2.190
    27   1 H        0.924     0.115     1.655     2.012
    28   1 H        0.925     0.097     1.811     2.105
    29   1 H        0.925     0.099     1.795     2.095
    30   1 H        0.925     0.097     1.810     2.104
    31   1 H        0.925     0.106     1.727     2.055
    32   1 H        0.925     0.100     1.784     2.089
    33   1 H        0.925     0.097     1.809     2.103
    34   1 H        0.925     0.124     1.582     1.967
    35   1 H        0.925     0.095     1.834     2.118
    36   1 H        0.925     0.094     1.843     2.123

Wiberg/Mayer (AO) data.
largest (>0.10) Wiberg bond orders for each atom

     #   Z sym  total        # sym  WBO       # sym  WBO       # sym  WBO
 ---------------------------------------------------------------------------
     1   6 C    3.933 --    19 H    0.978    18 H    0.976    17 H    0.976
                             2 O    0.973
     2   8 O    2.262 --     3 C    1.095     1 C    0.973
     3   6 C    3.943 --     8 C    1.364     4 C    1.345     2 O    1.095
     4   6 C    3.990 --     5 C    1.436     3 C    1.345    20 H    0.964
     5   6 C    3.990 --     6 C    1.459     4 C    1.436    21 H    0.968
     6   6 C    3.988 --     5 C    1.459     7 C    1.342    22 H    0.965
     7   6 C    3.986 --     8 C    1.381     6 C    1.342     9 C    1.074
     8   6 C    3.989 --     7 C    1.381     3 C    1.364    23 H    0.964
     9   6 C    3.930 --    10 O    1.786     7 C    1.074    11 C    0.964
    10   8 O    2.061 --     9 C    1.786
    11   6 C    3.988 --    12 C    1.013     9 C    0.964    24 H    0.952
                            25 H    0.947
    12   6 C    3.927 --    11 C    1.013    26 H    0.969    27 H    0.955
                            13 N    0.926
    13   7 N    3.818 --    14 C    0.961    15 C    0.957    16 C    0.954
                            12 C    0.926
    14   6 C    3.931 --    28 H    0.975    29 H    0.975    30 H    0.972
                            13 N    0.961
    15   6 C    3.926 --    33 H    0.976    32 H    0.974    31 H    0.974
                            13 N    0.957
    16   6 C    3.919 --    36 H    0.976    35 H    0.975    34 H    0.964
                            13 N    0.954
    17   1 H    0.997 --     1 C    0.976
    18   1 H    0.997 --     1 C    0.976
    19   1 H    0.994 --     1 C    0.978
    20   1 H    0.996 --     4 C    0.964
    21   1 H    0.996 --     5 C    0.968
    22   1 H    0.995 --     6 C    0.965
    23   1 H    0.997 --     8 C    0.964
    24   1 H    0.995 --    11 C    0.952
    25   1 H    0.991 --    11 C    0.947
    26   1 H    0.993 --    12 C    0.969
    27   1 H    0.987 --    12 C    0.955
    28   1 H    0.991 --    14 C    0.975
    29   1 H    0.990 --    14 C    0.975
    30   1 H    0.991 --    14 C    0.972
    31   1 H    0.989 --    15 C    0.974
    32   1 H    0.990 --    15 C    0.974
    33   1 H    0.991 --    15 C    0.976
    34   1 H    0.985 --    16 C    0.964
    35   1 H    0.991 --    16 C    0.975
    36   1 H    0.991 --    16 C    0.976
 ---------------------------------------------------------------------------

molecular dipole:
                 x           y           z       tot (Debye)
 q only:        6.851      -1.424       4.040
   full:        6.769      -1.336       3.831      20.059

           -------------------------------------------------
          | TOTAL ENERGY              -48.678435424207 Eh   |
          | GRADIENT NORM               0.000192117039 Eh/α |
          | HOMO-LUMO GAP               2.372052683346 eV   |
           -------------------------------------------------

 * finished run on 2024/12/20 at 02:03:32.279
