   * xtb version 6.7.1 (edcfbbe) compiled by 'conda@3ef47c1a292c' on 2024-11-25

   ID    Z sym.   atoms
    1    6 C      1-7, 9, 11, 12, 14, 15
    2    8 O      8
    3    7 N      10, 13
    4    1 H      16-38

          program call               : xtb C0035.xyz --opt --namespace C0035 --charge +1
          :  Hamiltonian                  GFN2-xTB          :
 * total energy  :   -46.9581128 Eh     change       -0.1958753E-09 Eh
 * total energy  :   -46.9631625 Eh     change       -0.5049710E-02 Eh
 * total energy  :   -46.9643179 Eh     change       -0.1155352E-02 Eh
 * total energy  :   -46.9645160 Eh     change       -0.1981047E-03 Eh
 * total energy  :   -46.9646259 Eh     change       -0.1099156E-03 Eh
 * total energy  :   -46.9646530 Eh     change       -0.2707846E-04 Eh
 * total energy  :   -46.9646998 Eh     change       -0.4684955E-04 Eh
 * total energy  :   -46.9647331 Eh     change       -0.3327250E-04 Eh
 * total energy  :   -46.9647903 Eh     change       -0.5723141E-04 Eh
 * total energy  :   -46.9648599 Eh     change       -0.6957708E-04 Eh
 * total energy  :   -46.9653704 Eh     change       -0.9939448E-05 Eh
 * total energy  :   -46.9653773 Eh     change       -0.6914857E-05 Eh
 * total energy  :   -46.9653842 Eh     change       -0.6946908E-05 Eh
 * total energy  :   -46.9653914 Eh     change       -0.7178104E-05 Eh
 * total energy  :   -46.9653978 Eh     change       -0.6418557E-05 Eh
 * total energy  :   -46.9654044 Eh     change       -0.6515613E-05 Eh
 * total energy  :   -46.9654112 Eh     change       -0.6799781E-05 Eh
 * total energy  :   -46.9654164 Eh     change       -0.5287959E-05 Eh
 * total energy  :   -46.9654196 Eh     change       -0.3149893E-05 Eh
   *** GEOMETRY OPTIMIZATION CONVERGED AFTER 33 ITERATIONS ***

 final structure:
================
38
 xtb: 6.7.1 (edcfbbe)
C            0.47772816905668        0.12526723324842        1.25039133948386
C            0.14455091102887        1.53094819734313        0.76433175920967
C            0.89414855135363        1.92566708950563       -0.50918525977539
C            0.60736318862311        1.03926435976106       -1.72346222821959
C           -0.86200524398950        0.99416572780551       -2.15163997279881
C           -1.50055260479615        2.35407319792805       -2.46571641161105
C           -0.78258083201981        3.24361317638376       -3.48525075937878
O           -1.22505489937768        3.10697602915792       -4.84099851315664
C           -1.01822637782945        1.90190027380163       -5.45828628642378
N            0.41464871096945        1.67953292086471       -5.72156773420944
C            1.22683477564231        2.57985173869527       -6.34364183539771
C            2.48161862590114        2.05310687717020       -6.34868076481968
N            2.41625824587523        0.84070621037985       -5.72764243384393
C            1.15775188971982        0.63887381114494       -5.35212514692828
C            3.52496660929836       -0.05372384155814       -5.52937526743326
H            0.10530633352919       -0.63222588142364        0.56488152887153
H            0.02182013870965       -0.05088422842568        2.22092861886212
H            1.55354355715852        0.00187151128443        1.35312227918187
H           -0.93208673930663        1.61815869634152        0.60970132464348
H            0.41682903906452        2.24507212690203        1.54373953272705
H            0.65610708586709        2.96299891727584       -0.75336811558839
H            1.96696751151795        1.87806287387770       -0.30682935592420
H            1.23093453502977        1.38710251206899       -2.55521857759579
H            0.92321182069587        0.01898242376981       -1.49796129867440
H           -0.95273056762001        0.31437082862624       -3.00426656027396
H           -1.44331883242969        0.54803473247017       -1.34407177281699
H           -2.52431423619393        2.19785600233728       -2.81227492548758
H           -1.56360009638462        2.91701386561812       -1.53495182343508
H           -1.00355666310412        4.29047309633982       -3.27274405503436
H            0.30405604664995        3.10808527397982       -3.43555153014180
H           -1.38244324585625        1.03876145728606       -4.88793792555237
H           -1.53798958304636        1.95448254734207       -6.42217151784374
H            0.85511351922781        3.51269133727277       -6.71695444945982
H            3.39540805139168        2.44943822468156       -6.74256480554079
H            0.79712644518205       -0.23076555384363       -4.83752546067436
H            3.21152385291243       -0.90710376089448       -4.93243235384271
H            3.89725432924454       -0.40891230239334       -6.49132064264204
H            4.33534797829184        0.46428229787821       -5.01584859846436

          :  Hamiltonian                  GFN2-xTB          :
         :: total energy             -46.965419595690 Eh    ::
         :: gradient norm              0.000472403018 Eh/a0 ::
         :: HOMO-LUMO gap              2.509860093896 eV    ::
         :: SCC energy               -47.613365657040 Eh    ::
         :: -> dispersion             -0.030735808019 Eh    ::
         :: repulsion energy           0.647946061351 Eh    ::

    * Orbital Energies and Occupations

         #    Occupation            Energy/Eh            Energy/eV
      -------------------------------------------------------------
         1        2.0000           -0.9032579             -24.5789
       ...           ...                  ...                  ...
        31        2.0000           -0.5947073             -16.1828
        32        2.0000           -0.5926880             -16.1279
        33        2.0000           -0.5844627             -15.9040
        34        2.0000           -0.5780654             -15.7300
        35        2.0000           -0.5690514             -15.4847
        36        2.0000           -0.5590836             -15.2134
        37        2.0000           -0.5576301             -15.1739
        38        2.0000           -0.5462240             -14.8635
        39        2.0000           -0.5370304             -14.6133
        40        2.0000           -0.5328534             -14.4997
        41        2.0000           -0.5171089             -14.0713
        42        2.0000           -0.5116247             -13.9220
        43        2.0000           -0.5063992             -13.7798 (HOMO)
        44                         -0.4141635             -11.2700 (LUMO)
        45                         -0.3762121             -10.2373
        46                         -0.2002801              -5.4499
        47                         -0.1403042              -3.8179
        48                         -0.1155466              -3.1442
        49                         -0.0746808              -2.0322
        50                         -0.0447520              -1.2178
        51                         -0.0405165              -1.1025
        52                         -0.0357461              -0.9727
        53                         -0.0309282              -0.8416
        54                         -0.0275120              -0.7486
       ...                                ...                  ...
        83                          0.4591496              12.4941
      -------------------------------------------------------------
                  HL-Gap            0.0922357 Eh            2.5099 eV

     #   Z          covCN         q      C6AA      α(0)
     1   6 C        3.751    -0.106    22.579     6.776
     2   6 C        3.800    -0.056    21.584     6.615
     3   6 C        3.800    -0.061    21.677     6.629
     4   6 C        3.799    -0.056    21.582     6.615
     5   6 C        3.799    -0.061    21.679     6.630
     6   6 C        3.798    -0.079    22.008     6.680
     7   6 C        3.688     0.062    19.725     6.357
     8   8 O        1.701    -0.284    18.723     5.842
     9   6 C        3.630     0.124    18.937     6.266
    10   7 N        2.868     0.034    20.654     6.750
    11   6 C        3.066     0.006    27.822     8.649
    12   6 C        3.073    -0.008    28.147     8.699
    13   7 N        2.867     0.080    19.847     6.617
    14   6 C        3.090     0.052    26.734     8.475
    15   6 C        3.692    -0.087    22.361     6.766
    16   1 H        0.925     0.032     2.561     2.503
    17   1 H        0.925     0.044     2.401     2.423
    18   1 H        0.925     0.038     2.480     2.463
    19   1 H        0.924     0.034     2.533     2.489
    20   1 H        0.924     0.040     2.449     2.447
    21   1 H        0.924     0.031     2.579     2.512
    22   1 H        0.924     0.037     2.491     2.468
    23   1 H        0.924     0.000     3.052     2.732
    24   1 H        0.924     0.041     2.442     2.444
    25   1 H        0.924     0.010     2.891     2.659
    26   1 H        0.924     0.058     2.218     2.329
    27   1 H        0.924     0.057     2.238     2.339
    28   1 H        0.925     0.065     2.143     2.289
    29   1 H        0.924     0.080     1.983     2.202
    30   1 H        0.924     0.031     2.569     2.506
    31   1 H        0.924     0.074     2.039     2.233
    32   1 H        0.924     0.102     1.771     2.081
    33   1 H        0.926     0.121     1.606     1.982
    34   1 H        0.926     0.114     1.666     2.019
    35   1 H        0.926     0.115     1.658     2.013
    36   1 H        0.925     0.101     1.774     2.083
    37   1 H        0.924     0.110     1.700     2.039
    38   1 H        0.924     0.110     1.699     2.038

Wiberg/Mayer (AO) data.
largest (>0.10) Wiberg bond orders for each atom

     #   Z sym  total        # sym  WBO       # sym  WBO       # sym  WBO
 ---------------------------------------------------------------------------
     1   6 C    3.996 --     2 C    1.020    18 H    0.987    17 H    0.986
                            16 H    0.986
     2   6 C    3.996 --     1 C    1.020     3 C    1.008    20 H    0.977
                            19 H    0.976
     3   6 C    3.996 --     2 C    1.008     4 C    1.007    22 H    0.976
                            21 H    0.976
     4   6 C    3.997 --     5 C    1.007     3 C    1.007    24 H    0.974
                            23 H    0.972
     5   6 C    3.995 --     4 C    1.007     6 C    1.006    26 H    0.972
                            25 H    0.970
     6   6 C    3.990 --     5 C    1.006     7 C    1.000    27 H    0.972
                            28 H    0.970
     7   6 C    3.926 --     6 C    1.000    29 H    0.968    30 H    0.967
                             8 O    0.942
     8   8 O    2.131 --     9 C    1.054     7 C    0.942
     9   6 C    3.929 --     8 O    1.054    31 H    0.947    32 H    0.947
                            10 N    0.920
    10   7 N    3.699 --    14 C    1.359    11 C    1.228     9 C    0.920
    11   6 C    3.948 --    12 C    1.599    10 N    1.228    33 H    0.958
    12   6 C    3.947 --    11 C    1.599    13 N    1.222    34 H    0.960
    13   7 N    3.724 --    14 C    1.369    12 C    1.222    15 C    0.990
    14   6 C    3.947 --    13 N    1.369    10 N    1.359    35 H    0.952
    15   6 C    3.931 --    13 N    0.990    36 H    0.975    38 H    0.963
                            37 H    0.960
    16   1 H    0.999 --     1 C    0.986
    17   1 H    0.998 --     1 C    0.986
    18   1 H    0.999 --     1 C    0.987
    19   1 H    0.999 --     2 C    0.976
    20   1 H    0.998 --     2 C    0.977
    21   1 H    0.999 --     3 C    0.976
    22   1 H    0.999 --     3 C    0.976
    23   1 H    1.000 --     4 C    0.972
    24   1 H    0.998 --     4 C    0.974
    25   1 H    1.000 --     5 C    0.970
    26   1 H    0.997 --     5 C    0.972
    27   1 H    0.997 --     6 C    0.972
    28   1 H    0.996 --     6 C    0.970
    29   1 H    0.994 --     7 C    0.968
    30   1 H    0.999 --     7 C    0.967
    31   1 H    0.994 --     9 C    0.947
    32   1 H    0.989 --     9 C    0.947
    33   1 H    0.985 --    11 C    0.958
    34   1 H    0.987 --    12 C    0.960
    35   1 H    0.987 --    14 C    0.952
    36   1 H    0.989 --    15 C    0.975
    37   1 H    0.988 --    15 C    0.960
    38   1 H    0.987 --    15 C    0.963
 ---------------------------------------------------------------------------

molecular dipole:
                 x           y           z       tot (Debye)
 q only:        2.765       2.133      -9.751
   full:        2.814       1.944      -9.770      26.310

           -------------------------------------------------
          | TOTAL ENERGY              -46.965419595690 Eh   |
          | GRADIENT NORM               0.000472403018 Eh/α |
          | HOMO-LUMO GAP               2.509860093896 eV   |
           -------------------------------------------------

 * finished run on 2024/12/20 at 02:03:33.483
