   * xtb version 6.7.1 (edcfbbe) compiled by 'conda@3ef47c1a292c' on 2024-11-25

   ID    Z sym.   atoms
    1    6 C      1-3, 5-10
    2    7 N      4
    3    1 H      11-28

          program call               : xtb C0033.xyz --opt --namespace C0033 --charge +1
          :  Hamiltonian                  GFN2-xTB          :
 * total energy  :   -30.9078564 Eh     change       -0.2939515E-10 Eh
 * total energy  :   -30.9139890 Eh     change       -0.6132586E-02 Eh
 * total energy  :   -30.9152558 Eh     change       -0.1266830E-02 Eh
 * total energy  :   -30.9153697 Eh     change       -0.1138587E-03 Eh
 * total energy  :   -30.9154448 Eh     change       -0.7509966E-04 Eh
 * total energy  :   -30.9154764 Eh     change       -0.3163280E-04 Eh
 * total energy  :   -30.9155259 Eh     change       -0.4950433E-04 Eh
 * total energy  :   -30.9155809 Eh     change       -0.5500789E-04 Eh
 * total energy  :   -30.9156101 Eh     change       -0.2919661E-04 Eh
 * total energy  :   -30.9156598 Eh     change       -0.4971304E-04 Eh
 * total energy  :   -30.9175681 Eh     change       -0.1127429E-03 Eh
 * total energy  :   -30.9176451 Eh     change       -0.7700498E-04 Eh
 * total energy  :   -30.9177020 Eh     change       -0.5693832E-04 Eh
 * total energy  :   -30.9177528 Eh     change       -0.5077359E-04 Eh
 * total energy  :   -30.9177968 Eh     change       -0.4398762E-04 Eh
 * total energy  :   -30.9177551 Eh     change        0.4168655E-04 Eh
 * total energy  :   -30.9178182 Eh     change       -0.6308738E-04 Eh
 * total energy  :   -30.9178240 Eh     change       -0.5865727E-05 Eh
 * total energy  :   -30.9178257 Eh     change       -0.1613498E-05 Eh
   *** GEOMETRY OPTIMIZATION CONVERGED AFTER 36 ITERATIONS ***

 final structure:
================
28
 xtb: 6.7.1 (edcfbbe)
C            1.49992391225729        0.74944660538583       -0.41916455602637
C            0.73242061139078        1.00492026048702       -1.46297094146048
C           -0.58584505205898        0.32883097469873       -1.69870911933055
N           -1.76675003437827        1.24958867409148       -1.59196512785189
C           -2.99595469600479        0.47839873015553       -1.83499682960146
C           -3.48530551429251        0.01005280237585       -2.98063882381230
C           -4.77513449423047       -0.74522329520582       -2.93728983204674
C           -2.92309183550788        0.16154616442370       -4.35903260282165
C           -1.65080609497516        2.39064468650462       -2.52264628164105
C           -1.82519344834701        1.78834244559102       -0.21843420857988
H            1.21360036904526        0.04846477797258        0.34749168392432
H            2.45875906244036        1.22090218475355       -0.29685541126604
H            1.06135295965714        1.69318896886371       -2.22808379416823
H           -0.59726437157107       -0.11451631482797       -2.69625060167058
H           -0.73162666149838       -0.47041701004893       -0.96858038911019
H           -3.53147784406329        0.27212988566594       -0.92286085437476
H           -5.48626048646203       -0.29420933838443       -3.62592868469357
H           -4.61182612371919       -1.76977596203065       -3.26647473275273
H           -5.21151730387123       -0.76569396203979       -1.94420127672986
H           -3.23947621950039        1.11260046612803       -4.78746021751508
H           -1.83839135078700        0.10695939665669       -4.39831673318034
H           -3.31758318450571       -0.62343423384623       -4.99941197018427
H           -2.60633249780038        2.90998808163545       -2.57347874241278
H           -0.89272819327381        3.08521650569056       -2.16686806326651
H           -1.37866415404769        2.05439725454812       -3.51800525196605
H           -1.93753613060245        0.97906335606108        0.50089998453931
H           -0.90464033340064        2.32450809919566        0.00625243886600
H           -2.67009088989176        2.46822979549820       -0.12382906086650

          :  Hamiltonian                  GFN2-xTB          :
         :: total energy             -30.917825652387 Eh    ::
         :: gradient norm              0.000930447935 Eh/a0 ::
         :: HOMO-LUMO gap              4.878675333877 eV    ::
         :: SCC energy               -31.418854818258 Eh    ::
         :: -> dispersion             -0.020469507031 Eh    ::
         :: repulsion energy           0.501029165871 Eh    ::

    * Orbital Energies and Occupations

         #    Occupation            Energy/Eh            Energy/eV
      -------------------------------------------------------------
         1        2.0000           -0.8556885             -23.2845
       ...           ...                  ...                  ...
        17        2.0000           -0.6435566             -17.5121
        18        2.0000           -0.6408974             -17.4397
        19        2.0000           -0.6392405             -17.3946
        20        2.0000           -0.6338899             -17.2490
        21        2.0000           -0.6323523             -17.2072
        22        2.0000           -0.6078345             -16.5400
        23        2.0000           -0.6044732             -16.4486
        24        2.0000           -0.6004848             -16.3400
        25        2.0000           -0.5927810             -16.1304
        26        2.0000           -0.5828250             -15.8595
        27        2.0000           -0.5768908             -15.6980
        28        2.0000           -0.5610547             -15.2671
        29        2.0000           -0.5483719             -14.9220 (HOMO)
        30                         -0.3690839             -10.0433 (LUMO)
        31                         -0.3563468              -9.6967
        32                         -0.2135802              -5.8118
        33                         -0.1453687              -3.9557
        34                         -0.1393092              -3.7908
        35                         -0.1257552              -3.4220
        36                         -0.0659130              -1.7936
        37                         -0.0365979              -0.9959
        38                         -0.0313838              -0.8540
        39                         -0.0157464              -0.4285
        40                         -0.0134347              -0.3656
       ...                                ...                  ...
        58                          0.4756084              12.9420
      -------------------------------------------------------------
                  HL-Gap            0.1792880 Eh            4.8787 eV

     #   Z          covCN         q      C6AA      α(0)
     1   6 C        2.838    -0.077    29.909     8.962
     2   6 C        2.884    -0.046    29.139     8.850
     3   6 C        3.767    -0.033    21.210     6.564
     4   7 N        3.623     0.136    18.931     6.462
     5   6 C        2.869    -0.059    29.456     8.897
     6   6 C        2.936     0.040    27.111     8.539
     7   6 C        3.767    -0.129    23.021     6.838
     8   6 C        3.757    -0.126    22.969     6.833
     9   6 C        3.717    -0.091    22.361     6.755
    10   6 C        3.731    -0.089    22.299     6.740
    11   1 H        0.926     0.067     2.113     2.273
    12   1 H        0.926     0.080     1.974     2.197
    13   1 H        0.926     0.061     2.192     2.315
    14   1 H        0.924     0.085     1.928     2.171
    15   1 H        0.924     0.086     1.914     2.164
    16   1 H        0.926     0.075     2.033     2.230
    17   1 H        0.925     0.086     1.921     2.167
    18   1 H        0.925     0.084     1.935     2.175
    19   1 H        0.925     0.063     2.166     2.301
    20   1 H        0.925     0.077     2.009     2.216
    21   1 H        0.925     0.052     2.298     2.370
    22   1 H        0.925     0.082     1.963     2.191
    23   1 H        0.925     0.093     1.846     2.125
    24   1 H        0.925     0.096     1.825     2.113
    25   1 H        0.925     0.100     1.782     2.087
    26   1 H        0.925     0.095     1.830     2.115
    27   1 H        0.925     0.095     1.833     2.117
    28   1 H        0.925     0.097     1.810     2.104

Wiberg/Mayer (AO) data.
largest (>0.10) Wiberg bond orders for each atom

     #   Z sym  total        # sym  WBO       # sym  WBO       # sym  WBO
 ---------------------------------------------------------------------------
     1   6 C    3.980 --     2 C    1.979    11 H    0.972    12 H    0.971
     2   6 C    3.982 --     1 C    1.979     3 C    1.017    13 H    0.962
     3   6 C    3.936 --     2 C    1.017    15 H    0.966    14 H    0.955
                             4 N    0.911
     4   7 N    3.812 --    10 C    0.961     9 C    0.955     5 C    0.926
                             3 C    0.911
     5   6 C    3.897 --     6 C    1.847    16 H    0.955     4 N    0.926
     6   6 C    3.979 --     5 C    1.847     8 C    1.033     7 C    1.032
     7   6 C    3.987 --     6 C    1.032    19 H    0.981    17 H    0.959
                            18 H    0.957
     8   6 C    3.990 --     6 C    1.033    22 H    0.975    21 H    0.967
                            20 H    0.954
     9   6 C    3.931 --    23 H    0.977    24 H    0.974    25 H    0.970
                             4 N    0.955
    10   6 C    3.931 --    28 H    0.976    26 H    0.975    27 H    0.972
                             4 N    0.961
    11   1 H    0.995 --     1 C    0.972
    12   1 H    0.993 --     1 C    0.971
    13   1 H    0.996 --     2 C    0.962
    14   1 H    0.993 --     3 C    0.955
    15   1 H    0.993 --     3 C    0.966
    16   1 H    0.994 --     5 C    0.955
    17   1 H    0.992 --     7 C    0.959
    18   1 H    0.992 --     7 C    0.957
    19   1 H    0.996 --     7 C    0.981
    20   1 H    0.994 --     8 C    0.954
    21   1 H    0.997 --     8 C    0.967
    22   1 H    0.993 --     8 C    0.975
    23   1 H    0.991 --     9 C    0.977
    24   1 H    0.991 --     9 C    0.974
    25   1 H    0.990 --     9 C    0.970
    26   1 H    0.991 --    10 C    0.975
    27   1 H    0.991 --    10 C    0.972
    28   1 H    0.991 --    10 C    0.976
 ---------------------------------------------------------------------------

molecular dipole:
                 x           y           z       tot (Debye)
 q only:       -3.528       1.976      -3.568
   full:       -3.523       1.966      -3.580      13.710

           -------------------------------------------------
          | TOTAL ENERGY              -30.917825652387 Eh   |
          | GRADIENT NORM               0.000930447935 Eh/α |
          | HOMO-LUMO GAP               4.878675333877 eV   |
           -------------------------------------------------

 * finished run on 2024/12/20 at 02:03:30.674
