   * xtb version 6.7.1 (edcfbbe) compiled by 'conda@3ef47c1a292c' on 2024-11-25

   ID    Z sym.   atoms
    1    6 C      1-6, 8, 10-15
    2    7 N      7
    3   16 S      9
    4    1 H      16-33

          program call               : xtb C0030.xyz --opt --namespace C0030 --charge +1
          :  Hamiltonian                  GFN2-xTB          :
 * total energy  :   -42.7946348 Eh     change       -0.1678501E-08 Eh
 * total energy  :   -42.7988550 Eh     change       -0.4220207E-02 Eh
 * total energy  :   -42.7995046 Eh     change       -0.6496660E-03 Eh
 * total energy  :   -42.7996459 Eh     change       -0.1412872E-03 Eh
 * total energy  :   -42.7997427 Eh     change       -0.9672541E-04 Eh
 * total energy  :   -42.7997750 Eh     change       -0.3237631E-04 Eh
 * total energy  :   -42.7998113 Eh     change       -0.3628050E-04 Eh
 * total energy  :   -42.7998442 Eh     change       -0.3284693E-04 Eh
 * total energy  :   -42.7998812 Eh     change       -0.3706460E-04 Eh
 * total energy  :   -42.7998996 Eh     change       -0.1835681E-04 Eh
 * total energy  :   -42.7999265 Eh     change       -0.2692579E-04 Eh
 * total energy  :   -42.7999421 Eh     change       -0.1556343E-04 Eh
 * total energy  :   -42.7999550 Eh     change       -0.1290585E-04 Eh
 * total energy  :   -42.7999676 Eh     change       -0.1263144E-04 Eh
 * total energy  :   -42.7999785 Eh     change       -0.1087061E-04 Eh
 * total energy  :   -42.7999862 Eh     change       -0.7716909E-05 Eh
 * total energy  :   -42.7999914 Eh     change       -0.5251309E-05 Eh
 * total energy  :   -42.7999951 Eh     change       -0.3612485E-05 Eh
   *** GEOMETRY OPTIMIZATION CONVERGED AFTER 18 ITERATIONS ***

 final structure:
================
33
 xtb: 6.7.1 (edcfbbe)
C            1.12557018408516       -0.17532759701508        0.05890918594994
C            0.46291616114390        0.42461828726417       -1.18766564751628
C            0.85431761019147       -0.23647055169271       -2.51065439447470
C            0.27018935463795       -1.62697585750328       -2.77883059341947
C           -1.25518667811962       -1.72355124465731       -2.70480310086269
C           -1.96145324538014       -0.82490377843418       -3.71251649056571
N            0.61608894457656       -1.49062462575720        0.39844076241549
C           -0.62127080387895       -1.67351448580468        0.81235391381018
S           -1.05420696370115       -3.27431914789255        1.12514296943755
C            0.55339856536562       -3.78073968301161        0.67471874694072
C            1.33165270813430       -2.66855261539253        0.30728741754257
C            2.65630218623412       -2.85456376941524       -0.08928481726293
C            3.16141252889388       -4.13673846329821       -0.11058393294095
C            2.37916565997354       -5.23422644624509        0.25389061793336
C            1.06817105758087       -5.06967136674406        0.65054035058686
H            0.94595541020657        0.48570283019990        0.91138222016134
H            2.20111000194349       -0.25134719506278       -0.09577115148687
H           -0.62068621074159        0.41788055956236       -1.07147864799412
H            0.77677374137267        1.46889697671591       -1.22715249308999
H            0.53337476000378        0.42785408174079       -3.31302165995249
H            1.94304880462997       -0.30101949874164       -2.56946933561969
H            0.57631996295759       -1.91441779645193       -3.78643467864699
H            0.70951907972799       -2.36200503475287       -2.10062502784263
H           -1.53386077547236       -2.76103182873318       -2.90303109442597
H           -1.60807784075469       -1.48598604125515       -1.69609551015295
H           -1.60494381055535       -1.03274051546054       -4.71787245371397
H           -3.03296573731044       -1.00477125913062       -3.68827599016997
H           -1.79094137785769        0.22642525455947       -3.49648764123121
H           -1.30329647352173       -0.85461576965425        0.95895555041287
H            3.27659626691411       -2.02314111383415       -0.38135660283967
H            4.18288728556620       -4.29532214802166       -0.41719415811311
H            2.80603998844133       -6.22377157091357        0.22448556237498
H            0.45620965471337       -5.91007858516673        0.93402812475580

          :  Hamiltonian                  GFN2-xTB          :
         :: total energy             -42.799995061644 Eh    ::
         :: gradient norm              0.000200224333 Eh/a0 ::
         :: HOMO-LUMO gap              2.198103242686 eV    ::
         :: SCC energy               -43.469307334221 Eh    ::
         :: -> dispersion             -0.033561959971 Eh    ::
         :: repulsion energy           0.669312272577 Eh    ::

    * Orbital Energies and Occupations

         #    Occupation            Energy/Eh            Energy/eV
      -------------------------------------------------------------
         1        2.0000           -0.9167794             -24.9468
       ...           ...                  ...                  ...
        28        2.0000           -0.6068975             -16.5145
        29        2.0000           -0.5977663             -16.2660
        30        2.0000           -0.5964015             -16.2289
        31        2.0000           -0.5918882             -16.1061
        32        2.0000           -0.5846442             -15.9090
        33        2.0000           -0.5732578             -15.5991
        34        2.0000           -0.5705768             -15.5262
        35        2.0000           -0.5662266             -15.4078
        36        2.0000           -0.5595128             -15.2251
        37        2.0000           -0.5560146             -15.1299
        38        2.0000           -0.5388713             -14.6634
        39        2.0000           -0.5352639             -14.5653
        40        2.0000           -0.5319440             -14.4749 (HOMO)
        41                         -0.4511652             -12.2768 (LUMO)
        42                         -0.3926435             -10.6844
        43                         -0.3768853             -10.2556
        44                         -0.3761586             -10.2358
        45                         -0.2893412              -7.8734
        46                         -0.2646148              -7.2005
        47                         -0.1928881              -5.2488
        48                         -0.1507128              -4.1011
        49                         -0.1336304              -3.6363
        50                         -0.1313536              -3.5743
        51                         -0.0703771              -1.9151
       ...                                ...                  ...
        83                          0.5182630              14.1027
      -------------------------------------------------------------
                  HL-Gap            0.0807788 Eh            2.1981 eV

     #   Z          covCN         q      C6AA      α(0)
     1   6 C        3.747    -0.025    21.095     6.551
     2   6 C        3.800    -0.070    21.844     6.655
     3   6 C        3.800    -0.069    21.817     6.650
     4   6 C        3.800    -0.064    21.723     6.636
     5   6 C        3.799    -0.051    21.495     6.601
     6   6 C        3.752    -0.110    22.662     6.789
     7   7 N        2.873     0.067    20.075     6.655
     8   6 C        2.929     0.027    27.396     8.584
     9  16 S        2.232     0.199   133.186    19.424
    10   6 C        3.006     0.014    27.695     8.633
    11   6 C        3.138     0.049    26.672     8.452
    12   6 C        2.913    -0.029    28.727     8.789
    13   6 C        2.921    -0.013    28.349     8.731
    14   6 C        2.923    -0.011    28.302     8.724
    15   6 C        2.929    -0.023    28.574     8.766
    16   1 H        0.924     0.083     1.949     2.183
    17   1 H        0.925     0.092     1.863     2.134
    18   1 H        0.925     0.059     2.211     2.325
    19   1 H        0.924     0.072     2.068     2.249
    20   1 H        0.925     0.065     2.141     2.288
    21   1 H        0.924     0.042     2.418     2.432
    22   1 H        0.924     0.052     2.291     2.367
    23   1 H        0.924     0.011     2.872     2.650
    24   1 H        0.924     0.035     2.514     2.479
    25   1 H        0.924     0.010     2.896     2.661
    26   1 H        0.925     0.048     2.340     2.392
    27   1 H        0.925     0.046     2.377     2.411
    28   1 H        0.925     0.040     2.445     2.445
    29   1 H        0.926     0.118     1.632     1.998
    30   1 H        0.926     0.077     2.012     2.218
    31   1 H        0.926     0.087     1.908     2.160
    32   1 H        0.926     0.089     1.887     2.148
    33   1 H        0.926     0.084     1.938     2.177

Wiberg/Mayer (AO) data.
largest (>0.10) Wiberg bond orders for each atom

     #   Z sym  total        # sym  WBO       # sym  WBO       # sym  WBO
 ---------------------------------------------------------------------------
     1   6 C    3.934 --     2 C    0.982    17 H    0.960    16 H    0.958
                             7 N    0.957
     2   6 C    3.982 --     3 C    1.008     1 C    0.982    18 H    0.968
                            19 H    0.967
     3   6 C    3.992 --     2 C    1.008     4 C    1.007    21 H    0.975
                            20 H    0.970
     4   6 C    3.996 --     5 C    1.007     3 C    1.007    23 H    0.974
                            22 H    0.973
     5   6 C    3.998 --     6 C    1.020     4 C    1.007    24 H    0.977
                            25 H    0.971
     6   6 C    3.993 --     5 C    1.020    27 H    0.986    26 H    0.986
                            28 H    0.986
     7   7 N    3.720 --     8 C    1.437    11 C    1.119     1 C    0.957
                             9 S    0.127
     8   6 C    3.956 --     7 N    1.437     9 S    1.351    29 H    0.953
     9  16 S    2.757 --     8 C    1.351    10 C    1.102     7 N    0.127
    10   6 C    3.953 --    15 C    1.372    11 C    1.294     9 S    1.102
    11   6 C    3.956 --    12 C    1.328    10 C    1.294     7 N    1.119
    12   6 C    3.986 --    13 C    1.495    11 C    1.328    30 H    0.956
                            15 C    0.113
    13   6 C    3.984 --    12 C    1.495    14 C    1.379    31 H    0.964
    14   6 C    3.983 --    15 C    1.479    13 C    1.379    32 H    0.963
    15   6 C    3.985 --    14 C    1.479    10 C    1.372    33 H    0.963
                            12 C    0.113
    16   1 H    0.993 --     1 C    0.958
    17   1 H    0.992 --     1 C    0.960
    18   1 H    0.996 --     2 C    0.968
    19   1 H    0.994 --     2 C    0.967
    20   1 H    0.995 --     3 C    0.970
    21   1 H    0.998 --     3 C    0.975
    22   1 H    0.997 --     4 C    0.973
    23   1 H    1.000 --     4 C    0.974
    24   1 H    0.999 --     5 C    0.977
    25   1 H    1.000 --     5 C    0.971
    26   1 H    0.997 --     6 C    0.986
    27   1 H    0.998 --     6 C    0.986
    28   1 H    0.998 --     6 C    0.986
    29   1 H    0.985 --     8 C    0.953
    30   1 H    0.994 --    12 C    0.956
    31   1 H    0.991 --    13 C    0.964
    32   1 H    0.992 --    14 C    0.963
    33   1 H    0.992 --    15 C    0.963
 ---------------------------------------------------------------------------

molecular dipole:
                 x           y           z       tot (Debye)
 q only:        1.335      -4.227       0.229
   full:        1.313      -4.131       0.341      11.052

           -------------------------------------------------
          | TOTAL ENERGY              -42.799995061644 Eh   |
          | GRADIENT NORM               0.000200224333 Eh/α |
          | HOMO-LUMO GAP               2.198103242686 eV   |
           -------------------------------------------------

 * finished run on 2024/12/20 at 02:03:24.160
