   * xtb version 6.7.1 (edcfbbe) compiled by 'conda@3ef47c1a292c' on 2024-11-25

   ID    Z sym.   atoms
    1    6 C      1, 3, 5, 7-19
    2    8 O      2, 4
    3    7 N      6
    4    1 H      20-39

          program call               : xtb C0037.xyz --opt --namespace C0037 --charge +1
          :  Hamiltonian                  GFN2-xTB          :
 * total energy  :   -55.0702258 Eh     change       -0.6457412E-09 Eh
 * total energy  :   -55.0836645 Eh     change       -0.1343871E-01 Eh
 * total energy  :   -55.0870750 Eh     change       -0.3410537E-02 Eh
 * total energy  :   -55.0876197 Eh     change       -0.5446876E-03 Eh
 * total energy  :   -55.0877947 Eh     change       -0.1750095E-03 Eh
 * total energy  :   -55.0879163 Eh     change       -0.1216208E-03 Eh
 * total energy  :   -55.0879710 Eh     change       -0.5464394E-04 Eh
 * total energy  :   -55.0880094 Eh     change       -0.3842143E-04 Eh
 * total energy  :   -55.0880315 Eh     change       -0.2213367E-04 Eh
 * total energy  :   -55.0880633 Eh     change       -0.3172771E-04 Eh
 * total energy  :   -55.1195783 Eh     change       -0.1145807E-04 Eh
 * total energy  :   -55.1195894 Eh     change       -0.1108092E-04 Eh
 * total energy  :   -55.1196001 Eh     change       -0.1074057E-04 Eh
 * total energy  :   -55.1196107 Eh     change       -0.1056556E-04 Eh
 * total energy  :   -55.1196212 Eh     change       -0.1050588E-04 Eh
 * total energy  :   -55.1196323 Eh     change       -0.1105824E-04 Eh
 * total energy  :   -55.1196429 Eh     change       -0.1058201E-04 Eh
 * total energy  :   -55.1196548 Eh     change       -0.1189490E-04 Eh
 * total energy  :   -55.1196559 Eh     change       -0.1141859E-05 Eh
   *** GEOMETRY OPTIMIZATION CONVERGED AFTER 122 ITERATIONS ***

 final structure:
================
39
 xtb: 6.7.1 (edcfbbe)
C           -0.79393357575424       -1.22713009998772        0.50909613034959
O           -0.11563729023667       -1.54734004294095        1.72624295129481
C            0.50983686347915       -0.57245884919025        2.35424343441972
O            0.56625643539076        0.57315997014389        2.00571924221752
C            1.25320172662135       -1.18108529776087        3.56327426019556
N            1.41835062647926       -0.32794617747417        4.76312435571106
C            0.09724661871988       -0.07356480713045        5.45110869140543
C           -0.99098471206726        0.42717021919497        4.54211596987887
C           -1.08391927509978        1.78069860148628        4.31120468962003
C           -2.03311068175217        2.30888364117904        3.43125313424740
C           -2.90144016729587        1.47252054574421        2.78887412896173
C           -2.88315607213040        0.08542779951188        3.03649623390202
C           -1.92575676594173       -0.46141860758145        3.93824647459475
C           -1.98140020348351       -1.85172807069751        4.18741248408164
C           -2.90045427686515       -2.65077531176337        3.56627711567469
C           -3.81827022930514       -2.11105171987228        2.65406982725754
C           -3.81102005549814       -0.76929320424838        2.40217803571642
C            2.28893391067225       -1.04510658358421        5.71745807874160
C            2.07322102912584        0.94584674318160        4.40678992524703
H           -1.63122118315524       -1.91581263938620        0.43392677748150
H           -0.11295866010021       -1.36632231215978       -0.33100458988435
H           -1.14129565892480       -0.19401269049779        0.53274972120889
H            0.72985481086709       -2.10029120856822        3.83137716484981
H            2.24783499230999       -1.44830045805377        3.19137981230784
H           -0.20385250932728       -1.00401431402787        5.93243431401541
H            0.28791466946133        0.66605371432744        6.23140331100149
H           -0.41429189291769        2.46198283794552        4.81553967397557
H           -2.06483474930130        3.37321133422368        3.26292688604787
H           -3.62769830218314        1.86338955102827        2.09259952557647
H           -1.31400062684887       -2.31073433235931        4.90248189572507
H           -2.92664356770941       -3.70781484553650        3.78240279789358
H           -4.53267897709773       -2.75861254870840        2.17054704341115
H           -4.52412168384201       -0.33353137407380        1.71882308424954
H            3.28199955154235       -1.18470724817053        5.29349100572857
H            2.38372760263074       -0.46989816586522        6.63698588497251
H            1.87319070883926       -2.02211321207892        5.95835055365193
H            3.03643908680181        0.74804453897719        3.93999357728653
H            1.45635087132536        1.49732861150889        3.69989937349679
H            2.23212161256857        1.54275601327116        5.30237702340929

          :  Hamiltonian                  GFN2-xTB          :
         :: total energy             -55.119655895510 Eh    ::
         :: gradient norm              0.000170120645 Eh/a0 ::
         :: HOMO-LUMO gap              3.005424599908 eV    ::
         :: SCC energy               -55.950227191140 Eh    ::
         :: -> dispersion             -0.044712296667 Eh    ::
         :: repulsion energy           0.830571295630 Eh    ::

    * Orbital Energies and Occupations

         #    Occupation            Energy/Eh            Energy/eV
      -------------------------------------------------------------
         1        2.0000           -0.8878297             -24.1591
       ...           ...                  ...                  ...
        38        2.0000           -0.5958438             -16.2137
        39        2.0000           -0.5935615             -16.1516
        40        2.0000           -0.5851567             -15.9229
        41        2.0000           -0.5758124             -15.6687
        42        2.0000           -0.5700939             -15.5130
        43        2.0000           -0.5659495             -15.4003
        44        2.0000           -0.5643222             -15.3560
        45        2.0000           -0.5544075             -15.0862
        46        2.0000           -0.5411320             -14.7249
        47        2.0000           -0.5301724             -14.4267
        48        2.0000           -0.5282653             -14.3748
        49        2.0000           -0.5148707             -14.0103
        50        2.0000           -0.4942668             -13.4497 (HOMO)
        51                         -0.3838195             -10.4443 (LUMO)
        52                         -0.3692418             -10.0476
        53                         -0.3417308              -9.2990
        54                         -0.3125133              -8.5039
        55                         -0.2610705              -7.1041
        56                         -0.2246532              -6.1131
        57                         -0.1845889              -5.0229
        58                         -0.1627611              -4.4290
        59                         -0.1486912              -4.0461
        60                         -0.1394056              -3.7934
        61                         -0.1005797              -2.7369
       ...                                ...                  ...
        96                          0.5795913              15.7715
      -------------------------------------------------------------
                  HL-Gap            0.1104473 Eh            3.0054 eV

     #   Z          covCN         q      C6AA      α(0)
     1   6 C        3.652     0.016    20.620     6.521
     2   8 O        1.705    -0.235    17.890     5.711
     3   6 C        2.714     0.363    20.841     7.473
     4   8 O        0.856    -0.387    21.430     6.207
     5   6 C        3.764    -0.065    21.787     6.653
     6   7 N        3.620     0.137    18.918     6.460
     7   6 C        3.763    -0.040    21.333     6.584
     8   6 C        2.963    -0.018    28.451     8.749
     9   6 C        2.923    -0.032    28.793     8.800
    10   6 C        2.913    -0.023    28.584     8.767
    11   6 C        2.921    -0.025    28.630     8.774
    12   6 C        2.988     0.018    27.591     8.616
    13   6 C        2.981     0.003    27.961     8.674
    14   6 C        2.916    -0.044    29.083     8.843
    15   6 C        2.916    -0.022    28.554     8.763
    16   6 C        2.915    -0.025    28.615     8.772
    17   6 C        2.921    -0.030    28.754     8.793
    18   6 C        3.730    -0.096    22.434     6.761
    19   6 C        3.717    -0.102    22.581     6.788
    20   1 H        0.925     0.091     1.867     2.136
    21   1 H        0.924     0.088     1.903     2.157
    22   1 H        0.924     0.084     1.935     2.175
    23   1 H        0.924     0.111     1.685     2.030
    24   1 H        0.924     0.108     1.718     2.050
    25   1 H        0.925     0.085     1.931     2.173
    26   1 H        0.924     0.086     1.917     2.165
    27   1 H        0.926     0.043     2.406     2.426
    28   1 H        0.926     0.059     2.211     2.325
    29   1 H        0.926     0.059     2.215     2.328
    30   1 H        0.926     0.020     2.739     2.588
    31   1 H        0.926     0.049     2.332     2.388
    32   1 H        0.926     0.054     2.275     2.359
    33   1 H        0.926     0.053     2.277     2.360
    34   1 H        0.925     0.099     1.797     2.096
    35   1 H        0.925     0.103     1.760     2.075
    36   1 H        0.925     0.095     1.829     2.115
    37   1 H        0.925     0.095     1.835     2.119
    38   1 H        0.925     0.132     1.519     1.928
    39   1 H        0.925     0.094     1.838     2.120

Wiberg/Mayer (AO) data.
largest (>0.10) Wiberg bond orders for each atom

     #   Z sym  total        # sym  WBO       # sym  WBO       # sym  WBO
 ---------------------------------------------------------------------------
     1   6 C    3.894 --    20 H    0.976    22 H    0.975    21 H    0.971
                             2 O    0.932
     2   8 O    2.353 --     3 C    1.187     1 C    0.932     4 O    0.190
     3   6 C    3.936 --     4 O    1.746     2 O    1.187     5 C    0.935
     4   8 O    2.072 --     3 C    1.746     2 O    0.190
     5   6 C    3.943 --    23 H    0.957     6 N    0.955    24 H    0.947
                             3 C    0.935
     6   7 N    3.810 --    18 C    0.957     5 C    0.955    19 C    0.952
                             7 C    0.900
     7   6 C    3.922 --     8 C    1.009    26 H    0.964    25 H    0.959
                             6 N    0.900
     8   6 C    3.975 --     9 C    1.508    13 C    1.249     7 C    1.009
                            11 C    0.113
     9   6 C    3.991 --     8 C    1.508    10 C    1.337    27 H    0.966
    10   6 C    3.990 --    11 C    1.542     9 C    1.337    28 H    0.968
    11   6 C    3.989 --    10 C    1.542    12 C    1.286    29 H    0.966
                             8 C    0.113
    12   6 C    3.990 --    11 C    1.286    17 C    1.276    13 C    1.248
    13   6 C    3.989 --    14 C    1.282     8 C    1.249    12 C    1.248
    14   6 C    3.991 --    15 C    1.555    13 C    1.282    30 H    0.959
                            17 C    0.118
    15   6 C    3.990 --    14 C    1.555    16 C    1.319    31 H    0.970
    16   6 C    3.991 --    17 C    1.559    15 C    1.319    32 H    0.969
    17   6 C    3.990 --    16 C    1.559    12 C    1.276    33 H    0.966
                            14 C    0.118
    18   6 C    3.927 --    36 H    0.975    34 H    0.974    35 H    0.974
                             6 N    0.957
    19   6 C    3.913 --    39 H    0.975    37 H    0.975    38 H    0.956
                             6 N    0.952
    20   1 H    0.991 --     1 C    0.976
    21   1 H    0.992 --     1 C    0.971
    22   1 H    0.993 --     1 C    0.975
    23   1 H    0.988 --     5 C    0.957
    24   1 H    0.988 --     5 C    0.947
    25   1 H    0.993 --     7 C    0.959
    26   1 H    0.992 --     7 C    0.964
    27   1 H    0.998 --     9 C    0.966
    28   1 H    0.995 --    10 C    0.968
    29   1 H    0.996 --    11 C    0.966
    30   1 H    0.999 --    14 C    0.959
    31   1 H    0.997 --    15 C    0.970
    32   1 H    0.996 --    16 C    0.969
    33   1 H    0.997 --    17 C    0.966
    34   1 H    0.989 --    18 C    0.974
    35   1 H    0.989 --    18 C    0.974
    36   1 H    0.991 --    18 C    0.975
    37   1 H    0.991 --    19 C    0.975
    38   1 H    0.983 --    19 C    0.956
    39   1 H    0.991 --    19 C    0.975
 ---------------------------------------------------------------------------

molecular dipole:
                 x           y           z       tot (Debye)
 q only:        1.202      -1.206       7.924
   full:        1.309      -1.371       8.075      21.083

           -------------------------------------------------
          | TOTAL ENERGY              -55.119655895510 Eh   |
          | GRADIENT NORM               0.000170120645 Eh/α |
          | HOMO-LUMO GAP               3.005424599908 eV   |
           -------------------------------------------------

 * finished run on 2024/12/20 at 02:03:37.796
