   * xtb version 6.7.1 (edcfbbe) compiled by 'conda@3ef47c1a292c' on 2024-11-25

   ID    Z sym.   atoms
    1    6 C      1, 3-8, 10, 11, 15
    2    7 N      2, 9
    3    9 F      12-14
    4    1 H      16-25

          program call               : xtb C0038.xyz --opt --namespace C0038 --charge +1
          :  Hamiltonian                  GFN2-xTB          :
 * total energy  :   -46.1733925 Eh     change       -0.9226824E-09 Eh
 * total energy  :   -46.1818266 Eh     change       -0.8434104E-02 Eh
 * total energy  :   -46.1834576 Eh     change       -0.1631030E-02 Eh
 * total energy  :   -46.1835346 Eh     change       -0.7695448E-04 Eh
 * total energy  :   -46.1835932 Eh     change       -0.5863751E-04 Eh
 * total energy  :   -46.1836333 Eh     change       -0.4005236E-04 Eh
 * total energy  :   -46.1836888 Eh     change       -0.5552324E-04 Eh
 * total energy  :   -46.1837732 Eh     change       -0.8436129E-04 Eh
 * total energy  :   -46.1838242 Eh     change       -0.5103943E-04 Eh
 * total energy  :   -46.1838652 Eh     change       -0.4101351E-04 Eh
 * total energy  :   -46.1839010 Eh     change       -0.4826044E-04 Eh
 * total energy  :   -46.1839146 Eh     change       -0.1355730E-04 Eh
 * total energy  :   -46.1839397 Eh     change       -0.2511138E-04 Eh
 * total energy  :   -46.1839547 Eh     change       -0.1504540E-04 Eh
 * total energy  :   -46.1839606 Eh     change       -0.5869258E-05 Eh
 * total energy  :   -46.1839709 Eh     change       -0.1035636E-04 Eh
 * total energy  :   -46.1839736 Eh     change       -0.2628020E-05 Eh
 * total energy  :   -46.1839796 Eh     change       -0.6047974E-05 Eh
 * total energy  :   -46.1839829 Eh     change       -0.3263176E-05 Eh
   *** GEOMETRY OPTIMIZATION CONVERGED AFTER 20 ITERATIONS ***

 final structure:
================
25
 xtb: 6.7.1 (edcfbbe)
C           -1.54108944975219        2.54200625897515        0.01249048562261
N           -1.13665216139921        1.15765066144897        0.01957209066659
C            0.16815265812752        0.71419006178663       -0.02020878917216
C            1.38356809730699        1.39290444317979       -0.05858792043928
C            2.52728316411576        0.62493386536148       -0.08575089229871
C            2.48059591523650       -0.77503952557992       -0.07430861292928
C            1.28608826019311       -1.46040204971515       -0.03706370261971
C            0.12371309052813       -0.69502357202428       -0.01192806507619
N           -1.20455927280624       -1.05131611516929        0.02690653899339
C           -1.92595244999243        0.07630336008343        0.05481705777550
C           -3.43705535132212        0.05683234609482        0.13315292850692
F           -3.95974200799594       -0.45947928937023       -0.98348522909127
F           -3.83490592007898       -0.70950931621240        1.15146342647284
F           -3.95473308428585        1.26439926148775        0.30505013381024
C           -1.69271463430220       -2.40684021493638        0.04867746508019
H           -2.03044540815360        2.80840367746809        0.94981564726732
H           -0.65852052706464        3.16197481150010       -0.11511510857872
H           -2.23266667889889        2.73913554406877       -0.80665878175678
H            1.43989021048689        2.46875679064285       -0.06323476417156
H            3.48810955523287        1.11361061141903       -0.11439631220235
H            3.40621820484740       -1.32780275701168       -0.09313998253792
H            1.25735526273999       -2.53710726278967       -0.02110824373253
H           -1.03404111259818       -3.02789360216573       -0.55645260382785
H           -1.70062303363933       -2.78873573969925        1.07180494681379
H           -2.70010332652548       -2.46798224884295       -0.35699171257515

          :  Hamiltonian                  GFN2-xTB          :
         :: total energy             -46.183982875035 Eh    ::
         :: gradient norm              0.000711894519 Eh/a0 ::
         :: HOMO-LUMO gap              3.143454139476 eV    ::
         :: SCC energy               -46.723471296279 Eh    ::
         :: -> dispersion             -0.023203583518 Eh    ::
         :: repulsion energy           0.539488421244 Eh    ::

    * Orbital Energies and Occupations

         #    Occupation            Energy/Eh            Energy/eV
      -------------------------------------------------------------
         1        2.0000           -1.0371897             -28.2234
       ...           ...                  ...                  ...
        28        2.0000           -0.6770372             -18.4231
        29        2.0000           -0.6632831             -18.0489
        30        2.0000           -0.6625219             -18.0281
        31        2.0000           -0.6604078             -17.9706
        32        2.0000           -0.6595016             -17.9460
        33        2.0000           -0.6425384             -17.4844
        34        2.0000           -0.6411808             -17.4474
        35        2.0000           -0.6400569             -17.4168
        36        2.0000           -0.6208098             -16.8931
        37        2.0000           -0.6025272             -16.3956
        38        2.0000           -0.5955589             -16.2060
        39        2.0000           -0.5813061             -15.8181
        40        2.0000           -0.5693132             -15.4918 (HOMO)
        41                         -0.4537934             -12.3483 (LUMO)
        42                         -0.3897586             -10.6059
        43                         -0.3840779             -10.4513
        44                         -0.2630686              -7.1585
        45                         -0.2177324              -5.9248
        46                         -0.1734821              -4.7207
        47                         -0.1392086              -3.7881
        48                         -0.1092830              -2.9737
        49                         -0.0777298              -2.1151
        50                         -0.0576337              -1.5683
        51                         -0.0440007              -1.1973
       ...                                ...                  ...
        70                          0.5120877              13.9346
      -------------------------------------------------------------
                  HL-Gap            0.1155198 Eh            3.1435 eV

     #   Z          covCN         q      C6AA      α(0)
     1   6 C        3.690    -0.083    22.286     6.756
     2   7 N        2.815     0.042    20.514     6.727
     3   6 C        3.115     0.045    26.836     8.486
     4   6 C        2.908    -0.028    28.701     8.785
     5   6 C        2.925    -0.011    28.298     8.724
     6   6 C        2.925    -0.011    28.294     8.723
     7   6 C        2.908    -0.029    28.718     8.787
     8   6 C        3.114     0.044    26.851     8.488
     9   7 N        2.819     0.041    20.520     6.728
    10   6 C        3.116     0.075    26.179     8.381
    11   6 C        3.330     0.495    17.252     6.591
    12   9 F        0.791    -0.177    10.998     3.917
    13   9 F        0.792    -0.175    10.976     3.914
    14   9 F        0.791    -0.167    10.904     3.901
    15   6 C        3.690    -0.082    22.258     6.752
    16   1 H        0.924     0.113     1.675     2.024
    17   1 H        0.925     0.111     1.687     2.031
    18   1 H        0.925     0.110     1.696     2.037
    19   1 H        0.926     0.083     1.952     2.185
    20   1 H        0.926     0.094     1.845     2.124
    21   1 H        0.926     0.094     1.845     2.124
    22   1 H        0.926     0.085     1.930     2.172
    23   1 H        0.925     0.112     1.682     2.028
    24   1 H        0.924     0.114     1.663     2.017
    25   1 H        0.925     0.107     1.719     2.050

Wiberg/Mayer (AO) data.
largest (>0.10) Wiberg bond orders for each atom

     #   Z sym  total        # sym  WBO       # sym  WBO       # sym  WBO
 ---------------------------------------------------------------------------
     1   6 C    3.922 --     2 N    0.983    17 H    0.969    18 H    0.961
                            16 H    0.958
     2   7 N    3.687 --    10 C    1.336     3 C    1.137     1 C    0.983
                             9 N    0.114
     3   6 C    3.949 --     4 C    1.326     8 C    1.263     2 N    1.137
     4   6 C    3.983 --     5 C    1.507     3 C    1.326    19 H    0.959
                             7 C    0.119
     5   6 C    3.982 --     4 C    1.507     6 C    1.361    20 H    0.964
     6   6 C    3.981 --     7 C    1.507     5 C    1.361    21 H    0.964
     7   6 C    3.982 --     6 C    1.507     8 C    1.326    22 H    0.961
                             4 C    0.119
     8   6 C    3.949 --     7 C    1.326     3 C    1.263     9 N    1.139
     9   7 N    3.690 --    10 C    1.336     8 C    1.139    15 C    0.985
                             2 N    0.114
    10   6 C    3.961 --     9 N    1.336     2 N    1.336    11 C    0.939
    11   6 C    3.869 --    14 F    0.977    13 F    0.961    12 F    0.957
                            10 C    0.939
    12   9 F    1.098 --    11 C    0.957
    13   9 F    1.099 --    11 C    0.961
    14   9 F    1.110 --    11 C    0.977
    15   6 C    3.923 --     9 N    0.985    25 H    0.970    23 H    0.965
                            24 H    0.953
    16   1 H    0.986 --     1 C    0.958
    17   1 H    0.987 --     1 C    0.969
    18   1 H    0.987 --     1 C    0.961
    19   1 H    0.993 --     4 C    0.959
    20   1 H    0.991 --     5 C    0.964
    21   1 H    0.991 --     6 C    0.964
    22   1 H    0.992 --     7 C    0.961
    23   1 H    0.987 --    15 C    0.965
    24   1 H    0.986 --    15 C    0.953
    25   1 H    0.988 --    15 C    0.970
 ---------------------------------------------------------------------------

molecular dipole:
                 x           y           z       tot (Debye)
 q only:       -0.072       0.075      -0.015
   full:       -0.230       0.090      -0.007       0.628

           -------------------------------------------------
          | TOTAL ENERGY              -46.183982875035 Eh   |
          | GRADIENT NORM               0.000711894519 Eh/α |
          | HOMO-LUMO GAP               3.143454139476 eV   |
           -------------------------------------------------

 * finished run on 2024/12/20 at 02:03:38.433
