   * xtb version 6.7.1 (edcfbbe) compiled by 'conda@3ef47c1a292c' on 2024-11-25

   ID    Z sym.   atoms
    1    6 C      1, 3, 4, 6, 8-20
    2    7 N      2, 5
    3   16 S      7
    4    1 H      21-37

          program call               : xtb C0032.xyz --opt --namespace C0032 --charge +1
          :  Hamiltonian                  GFN2-xTB          :
 * total energy  :   -53.7680240 Eh     change       -0.3710952E-09 Eh
 * total energy  :   -53.7731046 Eh     change       -0.5080600E-02 Eh
 * total energy  :   -53.7740486 Eh     change       -0.9439892E-03 Eh
 * total energy  :   -53.7742517 Eh     change       -0.2031048E-03 Eh
 * total energy  :   -53.7743664 Eh     change       -0.1147066E-03 Eh
 * total energy  :   -53.7744131 Eh     change       -0.4666814E-04 Eh
 * total energy  :   -53.7744723 Eh     change       -0.5924185E-04 Eh
 * total energy  :   -53.7745347 Eh     change       -0.6237362E-04 Eh
 * total energy  :   -53.7745905 Eh     change       -0.5583971E-04 Eh
 * total energy  :   -53.7746403 Eh     change       -0.4974374E-04 Eh
 * total energy  :   -53.7747787 Eh     change       -0.2138313E-04 Eh
 * total energy  :   -53.7747952 Eh     change       -0.1652488E-04 Eh
 * total energy  :   -53.7748122 Eh     change       -0.1704748E-04 Eh
 * total energy  :   -53.7748326 Eh     change       -0.2035358E-04 Eh
 * total energy  :   -53.7748618 Eh     change       -0.2925152E-04 Eh
 * total energy  :   -53.7748867 Eh     change       -0.2482907E-04 Eh
 * total energy  :   -53.7749005 Eh     change       -0.1387627E-04 Eh
 * total energy  :   -53.7749071 Eh     change       -0.6547055E-05 Eh
 * total energy  :   -53.7749115 Eh     change       -0.4397171E-05 Eh
   *** GEOMETRY OPTIMIZATION CONVERGED AFTER 22 ITERATIONS ***

 final structure:
================
37
 xtb: 6.7.1 (edcfbbe)
C            0.45093474138236        0.08184325889694        0.05745701311371
N            0.48587482858538       -1.30476701561810       -0.32051742107229
C           -0.03414232141728       -1.82319285466918       -1.47241509486148
C            0.14606354020457       -3.16843243618423       -1.43558823801379
N            0.78217469396092       -3.46537837986487       -0.26624743260549
C            0.99959161379243       -2.31982789651732        0.39802540374271
S            1.74225823927393       -2.22723114512853        1.96720110326245
C            2.89757853053980       -0.87315320224816        1.72308162752652
C            3.64722780223415       -0.78964092421215        0.55970600608366
C            4.57252858774878        0.23250184353021        0.43335203403329
C            4.75576929819300        1.14218072583475        1.46269084637343
C            4.01084285700562        1.03600693739805        2.62596633622917
C            3.07197311568394        0.02743242107362        2.76121300880526
C            1.21797646649696       -4.79229888283667        0.12882132591708
C            2.36773757720825       -5.23246665768514       -0.74813354184330
C            2.15173031395271       -6.08300222357999       -1.82357052271100
C            3.20859168244629       -6.46230503156704       -2.63328572421467
C            4.48347818985976       -5.98624321670493       -2.37839937118726
C            4.70312828711277       -5.13436092764648       -1.30832085088807
C            3.64894002556385       -4.75754698625309       -0.49535352930783
H            0.31420335194812        0.16873975824712        1.13503981240085
H           -0.38114709426957        0.56678423601688       -0.44891490778094
H            1.37941634793041        0.58540812774480       -0.22085839115244
H           -0.49085625947369       -1.20639124716304       -2.21867880229412
H           -0.12670055310112       -3.92417657064081       -2.14265423475322
H            3.52072405658346       -1.51178703097122       -0.23453302140730
H            5.15821976127038        0.30724387518172       -0.46967364696586
H            5.48601975595759        1.92901387553099        1.36010876410554
H            4.15706159491224        1.73723843941843        3.43205843228162
H            2.48897150192103       -0.06778993694748        3.66395035803504
H            1.52247347665542       -4.75229565609937        1.17637519493595
H            0.37291775547592       -5.47656380499725        0.02820988061713
H            1.16069529299406       -6.46625469220887       -2.01902172576052
H            3.03544024425067       -7.13270152308225       -3.46051106662682
H            5.30676164187794       -6.28434646592835       -3.00836068260711
H            5.69708796919972       -4.76851895936312       -1.10204038025294
H            3.82606308604161       -4.10730983075354        0.34987143884046

          :  Hamiltonian                  GFN2-xTB          :
         :: total energy             -53.774911489361 Eh    ::
         :: gradient norm              0.000293553973 Eh/a0 ::
         :: HOMO-LUMO gap              2.921933853027 eV    ::
         :: SCC energy               -54.688088231794 Eh    ::
         :: -> dispersion             -0.042292860025 Eh    ::
         :: repulsion energy           0.913176742433 Eh    ::

    * Orbital Energies and Occupations

         #    Occupation            Energy/Eh            Energy/eV
      -------------------------------------------------------------
         1        2.0000           -0.8842798             -24.0625
       ...           ...                  ...                  ...
        38        2.0000           -0.5865039             -15.9596
        39        2.0000           -0.5850784             -15.9208
        40        2.0000           -0.5821784             -15.8419
        41        2.0000           -0.5793543             -15.7650
        42        2.0000           -0.5511405             -14.9973
        43        2.0000           -0.5495834             -14.9549
        44        2.0000           -0.5446498             -14.8207
        45        2.0000           -0.5347615             -14.5516
        46        2.0000           -0.5335690             -14.5192
        47        2.0000           -0.5303913             -14.4327
        48        2.0000           -0.5150005             -14.0139
        49        2.0000           -0.5145193             -14.0008
        50        2.0000           -0.5118783             -13.9289 (HOMO)
        51                         -0.4044992             -11.0070 (LUMO)
        52                         -0.3676604             -10.0045
        53                         -0.3589124              -9.7665
        54                         -0.3520201              -9.5790
        55                         -0.3389226              -9.2226
        56                         -0.3327971              -9.0559
        57                         -0.3281808              -8.9303
        58                         -0.2861970              -7.7878
        59                         -0.2270283              -6.1778
        60                         -0.2108797              -5.7383
        61                         -0.1766226              -4.8061
       ...                                ...                  ...
       102                          0.5541600              15.0795
      -------------------------------------------------------------
                  HL-Gap            0.1073791 Eh            2.9219 eV

     #   Z          covCN         q      C6AA      α(0)
     1   6 C        3.691    -0.072    22.075     6.724
     2   7 N        2.873     0.036    20.605     6.742
     3   6 C        3.050    -0.009    28.187     8.707
     4   6 C        3.048    -0.005    28.097     8.694
     5   7 N        2.888     0.034    20.652     6.749
     6   6 C        3.101     0.120    25.237     8.232
     7  16 S        2.061    -0.062   143.640    20.172
     8   6 C        2.971     0.038    27.148     8.547
     9   6 C        2.947    -0.038    28.947     8.824
    10   6 C        2.923    -0.023    28.575     8.766
    11   6 C        2.919    -0.020    28.505     8.755
    12   6 C        2.922    -0.018    28.464     8.749
    13   6 C        2.961    -0.031    28.762     8.797
    14   6 C        3.747    -0.024    21.064     6.546
    15   6 C        2.973    -0.001    28.041     8.686
    16   6 C        2.922    -0.035    28.871     8.811
    17   6 C        2.919    -0.022    28.552     8.762
    18   6 C        2.920    -0.021    28.520     8.758
    19   6 C        2.919    -0.023    28.587     8.768
    20   6 C        2.923    -0.037    28.913     8.818
    21   1 H        0.925     0.096     1.826     2.113
    22   1 H        0.925     0.101     1.773     2.082
    23   1 H        0.924     0.092     1.859     2.132
    24   1 H        0.926     0.104     1.749     2.068
    25   1 H        0.927     0.107     1.726     2.055
    26   1 H        0.926     0.036     2.501     2.473
    27   1 H        0.926     0.060     2.198     2.319
    28   1 H        0.926     0.066     2.131     2.283
    29   1 H        0.926     0.067     2.115     2.274
    30   1 H        0.926     0.062     2.180     2.309
    31   1 H        0.924     0.090     1.880     2.144
    32   1 H        0.924     0.088     1.900     2.155
    33   1 H        0.926     0.041     2.430     2.438
    34   1 H        0.926     0.056     2.241     2.341
    35   1 H        0.926     0.057     2.229     2.334
    36   1 H        0.926     0.052     2.294     2.369
    37   1 H        0.926     0.036     2.507     2.476

Wiberg/Mayer (AO) data.
largest (>0.10) Wiberg bond orders for each atom

     #   Z sym  total        # sym  WBO       # sym  WBO       # sym  WBO
 ---------------------------------------------------------------------------
     1   6 C    3.938 --     2 N    0.993    22 H    0.972    21 H    0.970
                            23 H    0.960
     2   7 N    3.682 --     6 C    1.291     3 C    1.205     1 C    0.993
     3   6 C    3.945 --     4 C    1.602     2 N    1.205    24 H    0.961
     4   6 C    3.948 --     3 C    1.602     5 N    1.212    25 H    0.960
     5   7 N    3.686 --     6 C    1.305     4 C    1.212    14 C    0.955
     6   6 C    3.947 --     5 N    1.305     2 N    1.291     7 S    1.095
     7  16 S    2.354 --     6 C    1.095     8 C    0.957
     8   6 C    3.940 --    13 C    1.408     9 C    1.402     7 S    0.957
                            11 C    0.102
     9   6 C    3.990 --    10 C    1.440     8 C    1.402    26 H    0.967
                            12 C    0.110
    10   6 C    3.989 --     9 C    1.440    11 C    1.435    27 H    0.966
                            13 C    0.108
    11   6 C    3.987 --    12 C    1.438    10 C    1.435    28 H    0.968
                             8 C    0.102
    12   6 C    3.988 --    11 C    1.438    13 C    1.437    29 H    0.966
                             9 C    0.110
    13   6 C    3.988 --    12 C    1.437     8 C    1.408    30 H    0.966
                            10 C    0.108
    14   6 C    3.933 --    15 C    0.980    31 H    0.959    32 H    0.958
                             5 N    0.955
    15   6 C    3.978 --    16 C    1.417    20 C    1.411    14 C    0.980
                            18 C    0.109
    16   6 C    3.990 --    17 C    1.440    15 C    1.417    33 H    0.968
                            19 C    0.110
    17   6 C    3.989 --    18 C    1.441    16 C    1.440    34 H    0.969
                            20 C    0.112
    18   6 C    3.989 --    17 C    1.441    19 C    1.437    35 H    0.969
                            15 C    0.109
    19   6 C    3.991 --    20 C    1.446    18 C    1.437    36 H    0.969
                            16 C    0.110
    20   6 C    3.992 --    19 C    1.446    15 C    1.411    37 H    0.968
                            17 C    0.112
    21   1 H    0.991 --     1 C    0.970
    22   1 H    0.989 --     1 C    0.972
    23   1 H    0.991 --     1 C    0.960
    24   1 H    0.989 --     3 C    0.961
    25   1 H    0.988 --     4 C    0.960
    26   1 H    0.999 --     9 C    0.967
    27   1 H    0.996 --    10 C    0.966
    28   1 H    0.995 --    11 C    0.968
    29   1 H    0.995 --    12 C    0.966
    30   1 H    0.996 --    13 C    0.966
    31   1 H    0.991 --    14 C    0.959
    32   1 H    0.991 --    14 C    0.958
    33   1 H    0.998 --    16 C    0.968
    34   1 H    0.996 --    17 C    0.969
    35   1 H    0.996 --    18 C    0.969
    36   1 H    0.997 --    19 C    0.969
    37   1 H    0.999 --    20 C    0.968
 ---------------------------------------------------------------------------

molecular dipole:
                 x           y           z       tot (Debye)
 q only:        2.888      -3.758      -0.539
   full:        2.882      -3.646      -0.588      11.908

           -------------------------------------------------
          | TOTAL ENERGY              -53.774911489361 Eh   |
          | GRADIENT NORM               0.000293553973 Eh/α |
          | HOMO-LUMO GAP               2.921933853027 eV   |
           -------------------------------------------------

 * finished run on 2024/12/20 at 02:03:29.922
