   * xtb version 6.7.1 (edcfbbe) compiled by 'conda@3ef47c1a292c' on 2024-11-25

   ID    Z sym.   atoms
    1    7 N      1, 5, 11
    2    6 C      2-4, 6-10
    3    1 H      12-21

          program call               : xtb C0039.xyz --opt --namespace C0039 --charge +1
          :  Hamiltonian                  GFN2-xTB          :
 * total energy  :   -30.5156515 Eh     change       -0.1872351E-09 Eh
 * total energy  :   -30.5496436 Eh     change       -0.3399211E-01 Eh
 * total energy  :   -30.5522811 Eh     change       -0.2637498E-02 Eh
 * total energy  :   -30.5534199 Eh     change       -0.1138780E-02 Eh
 * total energy  :   -30.5539440 Eh     change       -0.5241708E-03 Eh
 * total energy  :   -30.5543836 Eh     change       -0.4395874E-03 Eh
 * total energy  :   -30.5546068 Eh     change       -0.2231994E-03 Eh
 * total energy  :   -30.5546999 Eh     change       -0.9307897E-04 Eh
 * total energy  :   -30.5547419 Eh     change       -0.4196453E-04 Eh
 * total energy  :   -30.5547623 Eh     change       -0.2044077E-04 Eh
 * total energy  :   -30.5547897 Eh     change       -0.2737962E-04 Eh
 * total energy  :   -30.5548060 Eh     change       -0.1633507E-04 Eh
 * total energy  :   -30.5548159 Eh     change       -0.9830034E-05 Eh
 * total energy  :   -30.5548241 Eh     change       -0.8246433E-05 Eh
 * total energy  :   -30.5548319 Eh     change       -0.7801047E-05 Eh
 * total energy  :   -30.5548377 Eh     change       -0.5783303E-05 Eh
 * total energy  :   -30.5548409 Eh     change       -0.3199835E-05 Eh
   *** GEOMETRY OPTIMIZATION CONVERGED AFTER 17 ITERATIONS ***

 final structure:
================
21
 xtb: 6.7.1 (edcfbbe)
N            1.15196811845373        0.24770850851030        0.36359089704254
C            2.26579762483953        0.09241047400103        0.16700716465691
C            3.69270351126859       -0.00767726836441       -0.03281572280469
C            4.34430633467940        1.38244306942287        0.08912214185115
N            4.01584615882558        1.98262130743927        1.37408839599345
C            4.80761880170673        1.76218401438936        2.42703919448201
C            4.46073842149066        2.25810931962812        3.67415630857800
C            3.28960728589404        2.96196341544765        3.83553491859161
C            2.44851729557584        3.18513800069651        2.72339559092320
C            2.87965868313673        2.67263529414155        1.48964715555727
N            1.30319436466949        3.86791046112849        2.82355096537926
H            4.10186908934466       -0.69843799305187        0.70982951451904
H            3.88759317756831       -0.41506213451126       -1.02723046419704
H            5.42788013167595        1.28639342733408        0.00052382674964
H            3.98117055921638        2.03187377427753       -0.71061813765796
H            5.71225608693756        1.19770662610344        2.27005479141080
H            5.11488165143326        2.07955093096901        4.51179824099649
H            3.00658824621464        3.34502074148291        4.80308511975704
H            2.28581359591424        2.81911247281439        0.60077918497931
H            0.98091702995763        4.19547173424496        3.71837483109795
H            0.68383383119614        3.96279382389561        2.03716608209432

          :  Hamiltonian                  GFN2-xTB          :
         :: total energy             -30.554840881958 Eh    ::
         :: gradient norm              0.000877241000 Eh/a0 ::
         :: HOMO-LUMO gap              2.753988705566 eV    ::
         :: SCC energy               -31.094764858090 Eh    ::
         :: -> dispersion             -0.017051291331 Eh    ::
         :: repulsion energy           0.539923976132 Eh    ::

    * Orbital Energies and Occupations

         #    Occupation            Energy/Eh            Energy/eV
      -------------------------------------------------------------
         1        2.0000           -0.8739022             -23.7801
       ...           ...                  ...                  ...
        16        2.0000           -0.6759605             -18.3938
        17        2.0000           -0.6738037             -18.3351
        18        2.0000           -0.6675728             -18.1656
        19        2.0000           -0.6597771             -17.9534
        20        2.0000           -0.6491498             -17.6643
        21        2.0000           -0.6391855             -17.3931
        22        2.0000           -0.6320074             -17.1978
        23        2.0000           -0.6161420             -16.7661
        24        2.0000           -0.6116014             -16.6425
        25        2.0000           -0.6057090             -16.4822
        26        2.0000           -0.5995457             -16.3145
        27        2.0000           -0.5591562             -15.2154
        28        2.0000           -0.5490785             -14.9412 (HOMO)
        29                         -0.4478712             -12.1872 (LUMO)
        30                         -0.4024838             -10.9521
        31                         -0.3463952              -9.4259
        32                         -0.3385075              -9.2113
        33                         -0.2896457              -7.8817
        34                         -0.1818396              -4.9481
        35                         -0.1325399              -3.6066
        36                         -0.0689318              -1.8757
        37                         -0.0604820              -1.6458
        38                         -0.0509493              -1.3864
        39                         -0.0246410              -0.6705
       ...                                ...                  ...
        54                          1.0097181              27.4758
      -------------------------------------------------------------
                  HL-Gap            0.1012072 Eh            2.7540 eV

     #   Z          covCN         q      C6AA      α(0)
     1   7 N        0.911    -0.200    25.358     7.283
     2   6 C        1.898     0.112    28.354     8.600
     3   6 C        3.804    -0.064    21.735     6.637
     4   6 C        3.768    -0.024    21.038     6.537
     5   7 N        2.748     0.103    19.466     6.553
     6   6 C        2.888     0.008    27.841     8.651
     7   6 C        2.912    -0.014    28.368     8.734
     8   6 C        2.927    -0.027    28.667     8.781
     9   6 C        2.891     0.109    25.599     8.295
    10   6 C        2.896    -0.008    28.217     8.709
    11   7 N        2.644    -0.213    25.653     7.522
    12   1 H        0.924     0.095     1.835     2.118
    13   1 H        0.924     0.113     1.671     2.022
    14   1 H        0.924     0.097     1.811     2.104
    15   1 H        0.924     0.096     1.821     2.110
    16   1 H        0.926     0.098     1.807     2.102
    17   1 H        0.926     0.103     1.760     2.075
    18   1 H        0.926     0.095     1.836     2.119
    19   1 H        0.926     0.098     1.800     2.098
    20   1 H        0.860     0.215     1.032     1.591
    21   1 H        0.860     0.210     1.054     1.609

Wiberg/Mayer (AO) data.
largest (>0.10) Wiberg bond orders for each atom

     #   Z sym  total        # sym  WBO       # sym  WBO       # sym  WBO
 ---------------------------------------------------------------------------
     1   7 N    3.020 --     2 C    2.865
     2   6 C    3.951 --     1 N    2.865     3 C    1.049
     3   6 C    3.987 --     2 C    1.049     4 C    0.965    12 H    0.944
                            13 H    0.936
     4   6 C    3.945 --     5 N    0.969     3 C    0.965    15 H    0.964
                            14 H    0.963
     5   7 N    3.759 --    10 C    1.336     6 C    1.321     4 C    0.969
     6   6 C    3.957 --     7 C    1.403     5 N    1.321    16 H    0.958
     7   6 C    3.984 --     8 C    1.497     6 C    1.403    17 H    0.960
     8   6 C    3.984 --     7 C    1.497     9 C    1.269    18 H    0.961
     9   6 C    3.980 --    11 N    1.304    10 C    1.304     8 C    1.269
    10   6 C    3.959 --     5 N    1.336     9 C    1.304    19 H    0.955
    11   7 N    3.420 --     9 C    1.304    21 H    0.937    20 H    0.935
    12   1 H    0.991 --     3 C    0.944
    13   1 H    0.986 --     3 C    0.936
    14   1 H    0.990 --     4 C    0.963
    15   1 H    0.990 --     4 C    0.964
    16   1 H    0.990 --     6 C    0.958
    17   1 H    0.989 --     7 C    0.960
    18   1 H    0.991 --     8 C    0.961
    19   1 H    0.990 --    10 C    0.955
    20   1 H    0.953 --    11 N    0.935
    21   1 H    0.955 --    11 N    0.937
 ---------------------------------------------------------------------------

molecular dipole:
                 x           y           z       tot (Debye)
 q only:        6.861       4.541       3.673
   full:        7.235       4.477       3.562      23.445

           -------------------------------------------------
          | TOTAL ENERGY              -30.554840881958 Eh   |
          | GRADIENT NORM               0.000877241000 Eh/α |
          | HOMO-LUMO GAP               2.753988705566 eV   |
           -------------------------------------------------

 * finished run on 2024/12/20 at 02:03:38.719
