   * xtb version 6.7.1 (edcfbbe) compiled by 'conda@3ef47c1a292c' on 2024-11-25

   ID    Z sym.   atoms
    1    6 C      1-6, 8, 9, 11-14, 18, 19, 21, 22
    2    7 N      7, 10
    3   15 P      15
    4    8 O      16, 17, 20
    5    1 H      23-56

          program call               : xtb C0031.xyz --opt --namespace C0031 --charge +1
          :  Hamiltonian                  GFN2-xTB          :
 * total energy  :   -71.7336317 Eh     change       -0.5923084E-10 Eh
 * total energy  :   -71.7767462 Eh     change       -0.4311452E-01 Eh
 * total energy  :   -71.8024586 Eh     change       -0.2571242E-01 Eh
 * total energy  :   -71.8120102 Eh     change       -0.9551525E-02 Eh
 * total energy  :   -71.8247294 Eh     change       -0.1271926E-01 Eh
 * total energy  :   -71.8370447 Eh     change       -0.1231532E-01 Eh
 * total energy  :   -71.8458490 Eh     change       -0.8804218E-02 Eh
 * total energy  :   -71.8524669 Eh     change       -0.6617944E-02 Eh
 * total energy  :   -71.8585711 Eh     change       -0.6104163E-02 Eh
 * total energy  :   -71.8643185 Eh     change       -0.5747471E-02 Eh
 * total energy  :   -71.8914221 Eh     change       -0.2984522E-04 Eh
 * total energy  :   -71.8914407 Eh     change       -0.1866013E-04 Eh
 * total energy  :   -71.8914544 Eh     change       -0.1369841E-04 Eh
 * total energy  :   -71.8914679 Eh     change       -0.1352418E-04 Eh
 * total energy  :   -71.8914794 Eh     change       -0.1141676E-04 Eh
 * total energy  :   -71.8914852 Eh     change       -0.5891346E-05 Eh
 * total energy  :   -71.8914845 Eh     change        0.7101203E-06 Eh
 * total energy  :   -71.8914897 Eh     change       -0.5120028E-05 Eh
 * total energy  :   -71.8914941 Eh     change       -0.4420906E-05 Eh
   *** GEOMETRY OPTIMIZATION CONVERGED AFTER 97 ITERATIONS ***

 final structure:
================
56
 xtb: 6.7.1 (edcfbbe)
C            0.94899740389209       -0.81882269285170       -0.72575773762531
C            1.49534070068176        0.55256279627711       -0.34722616104924
C            1.44571118467924        1.56530328284285       -1.49350741822075
C            0.05177297501379        1.83010444911475       -2.06861661816196
C           -0.94888419223119        2.38659126409179       -1.05149808203407
C           -0.64133490432371        3.81985558407328       -0.60495618785267
N           -1.55128305094579        4.81725734992016       -1.23997629068294
C           -1.35128034178216        4.94329757090915       -2.70027020417674
C           -0.97674876518755        6.19238058828248       -2.98851160221202
N           -0.88709099900709        6.96785458876032       -1.88044534964475
C           -1.34113593403250        6.21063819860642       -0.73441949396827
C           -0.78616203541505        8.40558819543231       -1.84902582139440
C            0.60253937372370        8.90033987686022       -1.43302755313740
C            1.67709973224248        8.55740207974218       -2.45750583851026
P            1.22538349138164        9.08640946684706       -4.16444950408710
O            0.25588493051273        8.21445251460854       -4.83608535648463
O            0.66494609298712       10.58451497882117       -4.09625732833963
C            1.48330245203745       11.74910089210381       -4.00466780152117
C            1.63981107870677       12.23869469116705       -2.57443802718746
O            2.66964439057072        9.14904635282229       -4.85816038656762
C            2.76787460951575        8.82958805962567       -6.24837353296190
C            2.34982531569850        9.99613620523786       -7.12475835228328
H           -0.12244781213792       -0.78658183477442       -0.90787757991761
H            1.12971751841180       -1.52622174425445        0.07918157781684
H            1.44149494262858       -1.18995052438768       -1.62108133939576
H            0.95592031015804        0.93550517605013        0.52205806845867
H            2.53962222348635        0.44326814255838       -0.04913815860503
H            1.89201792649479        2.50173134051255       -1.14879526792445
H            2.07065574478068        1.19398254747112       -2.30739343294767
H            0.15219631315217        2.52149768278582       -2.90765031275833
H           -0.34691890360511        0.89580160117754       -2.46247526730802
H           -1.95480559779506        2.34429161546188       -1.47618643812376
H           -0.95159032495592        1.73540156908464       -0.17844836759431
H           -0.75735924050270        3.91601664615420        0.47669316123057
H            0.37947092780990        4.09217648159502       -0.87732208198513
H           -2.50860276645211        4.50138240384550       -1.05237619819507
H           -1.50617611844227        4.09481855282901       -3.32714899176810
H           -0.72844163489220        6.61271415113728       -3.94818227772932
H           -0.59013289622176        6.20723763609452        0.06470680677649
H           -2.27742779930167        6.62495186731109       -0.33293878086266
H           -1.00372520343056        8.78554722784887       -2.84798592731165
H           -1.53697055229773        8.79684207242478       -1.15388053895410
H            0.53732608581045        9.98257261052506       -1.32355943447081
H            0.87685515604735        8.48167867185232       -0.46064582455971
H            2.62777717987693        9.01263648379519       -2.18566289994555
H            1.82839382126190        7.47926880765840       -2.51735062519825
H            2.46376958751463       11.54428333359741       -4.44276661858586
H            0.97262071658899       12.50576936449676       -4.60662852523763
H            2.22524189570552       11.53793537426984       -1.98414678469585
H            2.15468320042736       13.19544463699276       -2.58167907423412
H            0.66481610364712       12.37471873182045       -2.11243223017022
H            3.81541283919346        8.56372069014712       -6.40939939911552
H            2.13149197523902        7.96415818029783       -6.45491703900012
H            2.97358614620134       10.86560431794542       -6.93146682129049
H            2.44763737462969        9.72000311502920       -8.17097079871102
H            1.31094735230471       10.24949677722487       -6.92096792967675

          :  Hamiltonian                  GFN2-xTB          :
         :: total energy             -71.891494078753 Eh    ::
         :: gradient norm              0.000459884755 Eh/a0 ::
         :: HOMO-LUMO gap              4.267568080328 eV    ::
         :: SCC energy               -72.778910115728 Eh    ::
         :: -> dispersion             -0.050770796774 Eh    ::
         :: repulsion energy           0.887416036975 Eh    ::

    * Orbital Energies and Occupations

         #    Occupation            Energy/Eh            Energy/eV
      -------------------------------------------------------------
         1        2.0000           -0.8589895             -23.3743
       ...           ...                  ...                  ...
        53        2.0000           -0.5511444             -14.9974
        54        2.0000           -0.5447551             -14.8235
        55        2.0000           -0.5426249             -14.7656
        56        2.0000           -0.5364513             -14.5976
        57        2.0000           -0.5285193             -14.3817
        58        2.0000           -0.5263672             -14.3232
        59        2.0000           -0.5231239             -14.2349
        60        2.0000           -0.5224544             -14.2167
        61        2.0000           -0.5163497             -14.0506
        62        2.0000           -0.5132534             -13.9663
        63        2.0000           -0.5114523             -13.9173
        64        2.0000           -0.5063120             -13.7774
        65        2.0000           -0.4916754             -13.3792 (HOMO)
        66                         -0.3348451              -9.1116 (LUMO)
        67                         -0.2244710              -6.1082
        68                         -0.1773323              -4.8255
        69                         -0.1586622              -4.3174
        70                         -0.1542256              -4.1967
        71                         -0.1466012              -3.9892
        72                         -0.1305722              -3.5531
        73                         -0.1250315              -3.4023
        74                         -0.0999976              -2.7211
        75                         -0.0765641              -2.0834
        76                         -0.0540651              -1.4712
       ...                                ...                  ...
       127                          1.1759477              31.9992
      -------------------------------------------------------------
                  HL-Gap            0.1568302 Eh            4.2676 eV

     #   Z          covCN         q      C6AA      α(0)
     1   6 C        3.751    -0.109    22.641     6.786
     2   6 C        3.799    -0.057    21.603     6.618
     3   6 C        3.801    -0.065    21.745     6.639
     4   6 C        3.800    -0.069    21.819     6.651
     5   6 C        3.800    -0.072    21.884     6.661
     6   6 C        3.738    -0.031    21.216     6.573
     7   7 N        3.606     0.042    20.512     6.727
     8   6 C        2.908    -0.077    29.933     8.971
     9   6 C        2.911     0.017    27.633     8.620
    10   7 N        2.787    -0.062    22.431     7.034
    11   6 C        3.766     0.035    20.027     6.378
    12   6 C        3.741    -0.024    21.075     6.550
    13   6 C        3.866    -0.070    21.786     6.637
    14   6 C        3.752    -0.097    22.415     6.752
    15  15 P        3.844     0.497   139.995    21.254
    16   8 O        0.808    -0.474    23.250     6.464
    17   8 O        1.656    -0.280    18.664     5.832
    18   6 C        3.839     0.076    19.297     6.249
    19   6 C        3.750    -0.121    22.884     6.822
    20   8 O        1.656    -0.293    18.887     5.867
    21   6 C        3.928     0.081    19.182     6.224
    22   6 C        3.751    -0.120    22.863     6.819
    23   1 H        0.925     0.034     2.532     2.488
    24   1 H        0.925     0.044     2.391     2.418
    25   1 H        0.925     0.044     2.401     2.423
    26   1 H        0.924     0.026     2.646     2.544
    27   1 H        0.924     0.042     2.418     2.432
    28   1 H        0.924     0.024     2.677     2.558
    29   1 H        0.924     0.050     2.319     2.382
    30   1 H        0.924     0.039     2.458     2.452
    31   1 H        0.925     0.061     2.182     2.310
    32   1 H        0.924     0.047     2.356     2.400
    33   1 H        0.925     0.076     2.020     2.223
    34   1 H        0.924     0.073     2.053     2.241
    35   1 H        0.924     0.096     1.819     2.109
    36   1 H        0.859     0.217     1.025     1.586
    37   1 H        0.927     0.087     1.912     2.162
    38   1 H        0.926     0.138     1.476     1.900
    39   1 H        0.924     0.092     1.864     2.135
    40   1 H        0.923     0.080     1.976     2.198
    41   1 H        0.924     0.101     1.774     2.083
    42   1 H        0.924     0.055     2.260     2.351
    43   1 H        0.925     0.069     2.092     2.262
    44   1 H        0.924     0.047     2.359     2.402
    45   1 H        0.926     0.075     2.033     2.229
    46   1 H        0.928     0.062     2.175     2.306
    47   1 H        0.924     0.057     2.237     2.339
    48   1 H        0.924     0.067     2.124     2.279
    49   1 H        0.925     0.050     2.323     2.384
    50   1 H        0.925     0.064     2.148     2.292
    51   1 H        0.925     0.056     2.243     2.342
    52   1 H        0.924     0.061     2.188     2.313
    53   1 H        0.924     0.059     2.208     2.324
    54   1 H        0.925     0.055     2.253     2.347
    55   1 H        0.925     0.064     2.158     2.297
    56   1 H        0.925     0.062     2.174     2.306

Wiberg/Mayer (AO) data.
largest (>0.10) Wiberg bond orders for each atom

     #   Z sym  total        # sym  WBO       # sym  WBO       # sym  WBO
 ---------------------------------------------------------------------------
     1   6 C    3.995 --     2 C    1.020    25 H    0.987    24 H    0.986
                            23 H    0.986
     2   6 C    3.997 --     1 C    1.020     3 C    1.007    27 H    0.977
                            26 H    0.975
     3   6 C    3.995 --     4 C    1.007     2 C    1.007    29 H    0.975
                            28 H    0.974
     4   6 C    3.992 --     3 C    1.007     5 C    1.006    30 H    0.974
                            31 H    0.972
     5   6 C    3.982 --     4 C    1.006     6 C    1.001    32 H    0.969
                            33 H    0.966
     6   6 C    3.921 --     5 C    1.001    34 H    0.971    35 H    0.964
                             7 N    0.925
     7   7 N    3.765 --    11 C    0.949     6 C    0.925    36 H    0.918
                             8 C    0.908
     8   6 C    3.824 --     9 C    1.725    37 H    0.963     7 N    0.908
                            10 N    0.163
     9   6 C    3.957 --     8 C    1.725    10 N    1.213    38 H    0.931
    10   7 N    3.441 --     9 C    1.213    11 C    1.005    12 C    0.985
                             8 C    0.163
    11   6 C    3.943 --    10 N    1.005    40 H    0.962    39 H    0.960
                             7 N    0.949
    12   6 C    3.958 --    13 C    0.996    10 N    0.985    42 H    0.966
                            41 H    0.952
    13   6 C    3.993 --    14 C    1.008    12 C    0.996    44 H    0.974
                            43 H    0.966
    14   6 C    3.995 --    13 C    1.008    46 H    0.958    45 H    0.957
                            15 P    0.909
    15  15 P    5.390 --    16 O    1.879    17 O    1.235    20 O    1.212
                            14 C    0.909
    16   8 O    2.121 --    15 P    1.879
    17   8 O    2.354 --    15 P    1.235    18 C    0.921
    18   6 C    3.919 --    19 C    1.018    48 H    0.970    47 H    0.968
                            17 O    0.921
    19   6 C    3.992 --    18 C    1.018    51 H    0.984    49 H    0.982
                            50 H    0.980
    20   8 O    2.329 --    15 P    1.212    21 C    0.915
    21   6 C    3.915 --    22 C    1.020    52 H    0.971    53 H    0.968
                            20 O    0.915
    22   6 C    3.991 --    21 C    1.020    54 H    0.985    55 H    0.981
                            56 H    0.977
    23   1 H    0.999 --     1 C    0.986
    24   1 H    0.998 --     1 C    0.986
    25   1 H    0.998 --     1 C    0.987
    26   1 H    0.999 --     2 C    0.975
    27   1 H    0.998 --     2 C    0.977
    28   1 H    0.999 --     3 C    0.974
    29   1 H    0.997 --     3 C    0.975
    30   1 H    0.998 --     4 C    0.974
    31   1 H    0.996 --     4 C    0.972
    32   1 H    0.998 --     5 C    0.969
    33   1 H    0.994 --     5 C    0.966
    34   1 H    0.995 --     6 C    0.971
    35   1 H    0.991 --     6 C    0.964
    36   1 H    0.953 --     7 N    0.918
    37   1 H    0.992 --     8 C    0.963
    38   1 H    0.981 --     9 C    0.931
    39   1 H    0.992 --    11 C    0.960
    40   1 H    0.993 --    11 C    0.962
    41   1 H    0.989 --    12 C    0.952
    42   1 H    0.997 --    12 C    0.966
    43   1 H    0.994 --    13 C    0.966
    44   1 H    0.997 --    13 C    0.974
    45   1 H    0.994 --    14 C    0.957
    46   1 H    0.996 --    14 C    0.958
    47   1 H    0.997 --    18 C    0.968
    48   1 H    0.995 --    18 C    0.970
    49   1 H    0.998 --    19 C    0.982
    50   1 H    0.995 --    19 C    0.980
    51   1 H    0.997 --    19 C    0.984
    52   1 H    0.996 --    21 C    0.971
    53   1 H    0.996 --    21 C    0.968
    54   1 H    0.997 --    22 C    0.985
    55   1 H    0.995 --    22 C    0.981
    56   1 H    0.996 --    22 C    0.977
 ---------------------------------------------------------------------------

molecular dipole:
                 x           y           z       tot (Debye)
 q only:       -0.647      11.312      -2.601
   full:       -0.703      11.414      -2.270      29.633

           -------------------------------------------------
          | TOTAL ENERGY              -71.891494078753 Eh   |
          | GRADIENT NORM               0.000459884755 Eh/α |
          | HOMO-LUMO GAP               4.267568080328 eV   |
           -------------------------------------------------

 * finished run on 2024/12/20 at 02:03:28.685
