   * xtb version 6.7.1 (edcfbbe) compiled by 'conda@3ef47c1a292c' on 2024-11-25

   ID    Z sym.   atoms
    1    7 N      1, 3, 4
    2    6 C      2
    3    1 H      5-10

          program call               : xtb C0049.xyz --opt --namespace C0049 --charge +1
          :  Hamiltonian                  GFN2-xTB          :
 * total energy  :   -13.5617292 Eh     change       -0.3216982E-11 Eh
 * total energy  :   -13.5618540 Eh     change       -0.1247520E-03 Eh
 * total energy  :   -13.5618616 Eh     change       -0.7611493E-05 Eh
 * total energy  :   -13.5618628 Eh     change       -0.1174565E-05 Eh
   *** GEOMETRY OPTIMIZATION CONVERGED AFTER 4 ITERATIONS ***

 final structure:
================
10
 xtb: 6.7.1 (edcfbbe)
N            1.02835133358575        0.05344276301098        0.14938067984938
C            0.36431930286022        0.95541951253617        0.86302445569065
N           -0.96376140207433        0.95542100482900        0.86302244768442
N            1.02835054964760        1.85739604213943        1.57666904500216
H            0.54687507839869       -0.63994205405448       -0.39922378783405
H            2.03479625025273        0.03369553345230        0.13375812683497
H           -1.48875991222629        1.62909695857141        1.39603593680858
H           -1.48876069675998        0.28174333692506        0.33001159901233
H            2.03479548752582        1.87714446498417        1.59229025607046
H            0.54687400878978        2.55078243760595        2.12527124088111

          :  Hamiltonian                  GFN2-xTB          :
         :: total energy             -13.561862755750 Eh    ::
         :: gradient norm              0.000318451472 Eh/a0 ::
         :: HOMO-LUMO gap              6.007827042330 eV    ::
         :: SCC energy               -13.761709276670 Eh    ::
         :: -> dispersion             -0.003410827376 Eh    ::
         :: repulsion energy           0.199846520919 Eh    ::

    * Orbital Energies and Occupations

         #    Occupation            Energy/Eh            Energy/eV
      -------------------------------------------------------------
         1        2.0000           -0.9077553             -24.7013
         2        2.0000           -0.8554799             -23.2788
         3        2.0000           -0.8554784             -23.2788
         4        2.0000           -0.7874042             -21.4264
         5        2.0000           -0.7692177             -20.9315
         6        2.0000           -0.7692175             -20.9315
         7        2.0000           -0.7494159             -20.3926
         8        2.0000           -0.7179945             -19.5376
         9        2.0000           -0.7179938             -19.5376
        10        2.0000           -0.7160415             -19.4845
        11        2.0000           -0.6198779             -16.8677
        12        2.0000           -0.6198771             -16.8677 (HOMO)
        13                         -0.3990936             -10.8599 (LUMO)
        14                         -0.2303836              -6.2691
        15                         -0.1308975              -3.5619
        16                         -0.1308935              -3.5618
        17                         -0.0340427              -0.9263
        18                         -0.0340341              -0.9261
        19                          0.0750896               2.0433
        20                          0.0784287               2.1342
        21                          0.3100080               8.4357
        22                          0.3100257               8.4362
      -------------------------------------------------------------
                  HL-Gap            0.2207836 Eh            6.0078 eV

     #   Z          covCN         q      C6AA      α(0)
     1   7 N        2.653    -0.221    25.826     7.548
     2   6 C        2.731     0.255    22.705     7.801
     3   7 N        2.653    -0.221    25.826     7.548
     4   7 N        2.653    -0.221    25.826     7.548
     5   1 H        0.860     0.235     0.946     1.523
     6   1 H        0.860     0.235     0.946     1.523
     7   1 H        0.860     0.235     0.946     1.523
     8   1 H        0.860     0.235     0.946     1.523
     9   1 H        0.860     0.235     0.946     1.523
    10   1 H        0.860     0.235     0.946     1.523

Wiberg/Mayer (AO) data.
largest (>0.10) Wiberg bond orders for each atom

     #   Z sym  total        # sym  WBO       # sym  WBO       # sym  WBO
 ---------------------------------------------------------------------------
     1   7 N    3.413 --     2 C    1.325     5 H    0.926     6 H    0.926
                             4 N    0.103     3 N    0.103
     2   6 C    3.976 --     4 N    1.325     1 N    1.325     3 N    1.325
     3   7 N    3.413 --     2 C    1.325     7 H    0.926     8 H    0.926
                             4 N    0.103     1 N    0.103
     4   7 N    3.413 --     2 C    1.325    10 H    0.926     9 H    0.926
                             1 N    0.103     3 N    0.103
     5   1 H    0.945 --     1 N    0.926
     6   1 H    0.945 --     1 N    0.926
     7   1 H    0.945 --     3 N    0.926
     8   1 H    0.945 --     3 N    0.926
     9   1 H    0.945 --     4 N    0.926
    10   1 H    0.945 --     4 N    0.926
 ---------------------------------------------------------------------------

molecular dipole:
                 x           y           z       tot (Debye)
 q only:        0.688       1.805       1.631
   full:        0.688       1.805       1.631       6.427

           -------------------------------------------------
          | TOTAL ENERGY              -13.561862755750 Eh   |
          | GRADIENT NORM               0.000318451472 Eh/α |
          | HOMO-LUMO GAP               6.007827042330 eV   |
           -------------------------------------------------

 * finished run on 2024/12/20 at 02:03:56.342
