   * xtb version 6.7.1 (edcfbbe) compiled by 'conda@3ef47c1a292c' on 2024-11-25

   ID    Z sym.   atoms
    1    6 C      1-3, 5-10, 12-20
    2    7 N      4
    3    8 O      11
    4    1 H      21-42

          program call               : xtb C0044.xyz --opt --namespace C0044 --charge +1
          :  Hamiltonian                  GFN2-xTB          :
 * total energy  :   -56.2832751 Eh     change       -0.4978112E-08 Eh
 * total energy  :   -56.2928557 Eh     change       -0.9580543E-02 Eh
 * total energy  :   -56.2961748 Eh     change       -0.3319180E-02 Eh
 * total energy  :   -56.2972552 Eh     change       -0.1080405E-02 Eh
 * total energy  :   -56.2981841 Eh     change       -0.9288849E-03 Eh
 * total energy  :   -56.2987111 Eh     change       -0.5269337E-03 Eh
 * total energy  :   -56.2991283 Eh     change       -0.4172608E-03 Eh
 * total energy  :   -56.2994963 Eh     change       -0.3679382E-03 Eh
 * total energy  :   -56.2998256 Eh     change       -0.3293493E-03 Eh
 * total energy  :   -56.3001644 Eh     change       -0.3387625E-03 Eh
 * total energy  :   -56.3038169 Eh     change       -0.3948142E-04 Eh
 * total energy  :   -56.3038379 Eh     change       -0.2100598E-04 Eh
 * total energy  :   -56.3038496 Eh     change       -0.1174059E-04 Eh
 * total energy  :   -56.3038579 Eh     change       -0.8287630E-05 Eh
 * total energy  :   -56.3038641 Eh     change       -0.6202041E-05 Eh
 * total energy  :   -56.3038705 Eh     change       -0.6444141E-05 Eh
 * total energy  :   -56.3038775 Eh     change       -0.6941221E-05 Eh
 * total energy  :   -56.3038832 Eh     change       -0.5691014E-05 Eh
 * total energy  :   -56.3038872 Eh     change       -0.4011215E-05 Eh
   *** GEOMETRY OPTIMIZATION CONVERGED AFTER 38 ITERATIONS ***

 final structure:
================
42
 xtb: 6.7.1 (edcfbbe)
C            1.55689439646438        1.29037948360269       -0.70575859687631
C            1.26493444407284        1.06894115248545       -1.97262630789139
C           -0.06926800635642        0.94827317693044       -2.65542260270529
N           -1.28077748643726        1.35999464394478       -1.88734258556589
C           -1.40302968055292        0.61335391601067       -0.61616173195228
C           -1.79254263023831        1.23756858467961        0.56604574928695
C           -1.92281387601001        0.50933213433646        1.72675125707576
C           -1.67675731133548       -0.86889817195570        1.75268600193856
C           -1.31533633596016       -1.49369836536531        0.55814617184203
C           -1.18975597269930       -0.75888998760689       -0.60540526256057
O           -1.81659041845681       -1.47478461848271        2.93541898420539
C           -1.56249897894047       -2.86190881608637        3.04510697009833
C           -2.49652046081238        1.04405765678584       -2.72655885458878
C           -3.78462673468547        1.47290819744158       -2.07700521154551
C           -4.36149010201545        2.69594612634480       -2.40616199895909
C           -5.54301544358537        3.09702296868350       -1.80810861475575
C           -6.15859986821161        2.28124486963043       -0.87354865674563
C           -5.59893680048270        1.05583525278536       -0.55267373185593
C           -4.42074271934422        0.64974249840564       -1.15390638807991
C           -1.20762727918249        2.82048045041250       -1.69264037310932
H            0.82794784878592        1.42789096782902        0.07379709433149
H            2.58459524196648        1.33158514976373       -0.39073221953362
H            2.07000709904907        0.92225957501189       -2.68109783904748
H           -0.03973071516555        1.55762813119930       -3.56420753152206
H           -0.18807266594806       -0.08847432132718       -2.98134914757154
H           -1.99521499305647        2.29318769232339        0.61385250272398
H           -2.21731930332944        0.99212917440307        2.64375839990163
H           -1.13114791051512       -2.55456793152432        0.52079575386020
H           -0.91715449343871       -1.29529054035811       -1.49987460834336
H           -2.25954713690668       -3.44377345600625        2.43648238620663
H           -0.53405324367323       -3.10162235559110        2.76301698174206
H           -1.71359801210333       -3.10310848424279        4.09512194708950
H           -2.37703896057022        1.55007674398432       -3.68716002942592
H           -2.50954293944005       -0.03444180509719       -2.89372727759201
H           -3.89774964034830        3.33186441424806       -3.14693094835886
H           -5.98353323069247        4.04445602539461       -2.07625426694403
H           -7.07895664539462        2.59436557223498       -0.40663003185219
H           -6.08385172714512        0.40927916840790        0.16154729315611
H           -4.00272231614914       -0.31581612623673       -0.91123461610280
H           -2.13516045213957        3.19450556756366       -1.26634265859070
H           -0.36931744637248        3.06978173580491       -1.04706887003490
H           -1.05845709267095        3.30158394920561       -2.65803653132085

          :  Hamiltonian                  GFN2-xTB          :
         :: total energy             -56.303887174621 Eh    ::
         :: gradient norm              0.000264865325 Eh/a0 ::
         :: HOMO-LUMO gap              3.945697985481 eV    ::
         :: SCC energy               -57.239908493246 Eh    ::
         :: -> dispersion             -0.046099195153 Eh    ::
         :: repulsion energy           0.936021318625 Eh    ::

    * Orbital Energies and Occupations

         #    Occupation            Energy/Eh            Energy/eV
      -------------------------------------------------------------
         1        2.0000           -0.8433405             -22.9485
       ...           ...                  ...                  ...
        40        2.0000           -0.5920506             -16.1105
        41        2.0000           -0.5898587             -16.0509
        42        2.0000           -0.5760992             -15.6765
        43        2.0000           -0.5707911             -15.5320
        44        2.0000           -0.5627992             -15.3145
        45        2.0000           -0.5489423             -14.9375
        46        2.0000           -0.5435638             -14.7911
        47        2.0000           -0.5424833             -14.7617
        48        2.0000           -0.5413715             -14.7315
        49        2.0000           -0.5365396             -14.6000
        50        2.0000           -0.5225522             -14.2194
        51        2.0000           -0.5214568             -14.1896
        52        2.0000           -0.5055310             -13.7562 (HOMO)
        53                         -0.3605292              -9.8105 (LUMO)
        54                         -0.3563951              -9.6980
        55                         -0.3485907              -9.4856
        56                         -0.3403935              -9.2626
        57                         -0.3395957              -9.2409
        58                         -0.2311412              -6.2897
        59                         -0.2272822              -6.1847
        60                         -0.1980540              -5.3893
        61                         -0.1482190              -4.0332
        62                         -0.1270556              -3.4574
        63                         -0.1143145              -3.1107
       ...                                ...                  ...
       102                          0.5458081              14.8522
      -------------------------------------------------------------
                  HL-Gap            0.1450017 Eh            3.9457 eV

     #   Z          covCN         q      C6AA      α(0)
     1   6 C        2.834    -0.089    30.232     9.010
     2   6 C        2.883    -0.039    28.977     8.825
     3   6 C        3.767    -0.029    21.123     6.550
     4   7 N        3.622     0.115    19.267     6.519
     5   6 C        2.924     0.025    27.438     8.590
     6   6 C        2.919    -0.040    28.987     8.829
     7   6 C        2.922    -0.050    29.236     8.867
     8   6 C        2.864     0.161    24.526     8.118
     9   6 C        2.918    -0.063    29.560     8.916
    10   6 C        2.921    -0.039    28.960     8.825
    11   8 O        1.706    -0.230    17.808     5.698
    12   6 C        3.645     0.022    20.548     6.515
    13   6 C        3.770    -0.032    21.185     6.559
    14   6 C        2.968    -0.005    28.146     8.702
    15   6 C        2.923    -0.038    28.956     8.824
    16   6 C        2.919    -0.023    28.584     8.767
    17   6 C        2.920    -0.019    28.482     8.752
    18   6 C        2.919    -0.022    28.564     8.764
    19   6 C        2.923    -0.035    28.865     8.811
    20   6 C        3.717    -0.084    22.239     6.737
    21   1 H        0.926     0.052     2.292     2.368
    22   1 H        0.926     0.075     2.034     2.230
    23   1 H        0.925     0.072     2.063     2.246
    24   1 H        0.924     0.083     1.950     2.184
    25   1 H        0.924     0.087     1.904     2.158
    26   1 H        0.926     0.060     2.196     2.317
    27   1 H        0.926     0.080     1.977     2.199
    28   1 H        0.926     0.066     2.130     2.282
    29   1 H        0.926     0.051     2.311     2.377
    30   1 H        0.924     0.057     2.237     2.339
    31   1 H        0.924     0.057     2.236     2.338
    32   1 H        0.925     0.087     1.910     2.161
    33   1 H        0.924     0.076     2.018     2.222
    34   1 H        0.924     0.079     1.994     2.208
    35   1 H        0.926     0.041     2.432     2.439
    36   1 H        0.926     0.058     2.224     2.332
    37   1 H        0.926     0.061     2.192     2.315
    38   1 H        0.926     0.055     2.254     2.348
    39   1 H        0.926     0.036     2.506     2.475
    40   1 H        0.925     0.097     1.812     2.105
    41   1 H        0.925     0.099     1.795     2.095
    42   1 H        0.925     0.086     1.914     2.163

Wiberg/Mayer (AO) data.
largest (>0.10) Wiberg bond orders for each atom

     #   Z sym  total        # sym  WBO       # sym  WBO       # sym  WBO
 ---------------------------------------------------------------------------
     1   6 C    3.988 --     2 C    1.985    22 H    0.970    21 H    0.967
     2   6 C    3.982 --     1 C    1.985     3 C    1.017    23 H    0.956
     3   6 C    3.938 --     2 C    1.017    24 H    0.956    25 H    0.947
                             4 N    0.932
     4   7 N    3.802 --    20 C    0.962     3 C    0.932     5 C    0.916
                            13 C    0.903
     5   6 C    3.918 --    10 C    1.405     6 C    1.380     4 N    0.916
     6   6 C    3.989 --     7 C    1.483     5 C    1.380    26 H    0.961
     7   6 C    3.986 --     6 C    1.483     8 C    1.322    27 H    0.964
                            10 C    0.101
     8   6 C    3.944 --     9 C    1.343     7 C    1.322    11 O    1.133
     9   6 C    3.987 --    10 C    1.455     8 C    1.343    28 H    0.963
    10   6 C    3.990 --     9 C    1.455     5 C    1.405    29 H    0.961
                             7 C    0.101
    11   8 O    2.304 --     8 C    1.133    12 C    0.967
    12   6 C    3.927 --    32 H    0.977    31 H    0.976    30 H    0.975
                            11 O    0.967
    13   6 C    3.932 --    14 C    1.006    33 H    0.966    34 H    0.965
                             4 N    0.903
    14   6 C    3.979 --    19 C    1.409    15 C    1.407    13 C    1.006
                            17 C    0.109
    15   6 C    3.991 --    16 C    1.444    14 C    1.407    35 H    0.968
                            18 C    0.110
    16   6 C    3.990 --    15 C    1.444    17 C    1.438    36 H    0.969
                            19 C    0.110
    17   6 C    3.989 --    18 C    1.438    16 C    1.438    37 H    0.969
                            14 C    0.109
    18   6 C    3.990 --    19 C    1.445    17 C    1.438    38 H    0.969
                            15 C    0.110
    19   6 C    3.991 --    18 C    1.445    14 C    1.409    39 H    0.968
                            16 C    0.110
    20   6 C    3.931 --    42 H    0.975    41 H    0.971    40 H    0.967
                             4 N    0.962
    21   1 H    0.997 --     1 C    0.967
    22   1 H    0.994 --     1 C    0.970
    23   1 H    0.994 --     2 C    0.956
    24   1 H    0.993 --     3 C    0.956
    25   1 H    0.992 --     3 C    0.947
    26   1 H    0.996 --     6 C    0.961
    27   1 H    0.993 --     7 C    0.964
    28   1 H    0.995 --     9 C    0.963
    29   1 H    0.997 --    10 C    0.961
    30   1 H    0.997 --    12 C    0.975
    31   1 H    0.997 --    12 C    0.976
    32   1 H    0.992 --    12 C    0.977
    33   1 H    0.993 --    13 C    0.966
    34   1 H    0.994 --    13 C    0.965
    35   1 H    0.998 --    15 C    0.968
    36   1 H    0.996 --    16 C    0.969
    37   1 H    0.996 --    17 C    0.969
    38   1 H    0.997 --    18 C    0.969
    39   1 H    0.999 --    19 C    0.968
    40   1 H    0.991 --    20 C    0.967
    41   1 H    0.990 --    20 C    0.971
    42   1 H    0.992 --    20 C    0.975
 ---------------------------------------------------------------------------

molecular dipole:
                 x           y           z       tot (Debye)
 q only:       -2.941       1.676      -2.260
   full:       -2.894       1.523      -2.508      10.475

           -------------------------------------------------
          | TOTAL ENERGY              -56.303887174621 Eh   |
          | GRADIENT NORM               0.000264865325 Eh/α |
          | HOMO-LUMO GAP               3.945697985481 eV   |
           -------------------------------------------------

 * finished run on 2024/12/20 at 02:03:51.964
