   * xtb version 6.7.1 (edcfbbe) compiled by 'conda@3ef47c1a292c' on 2024-11-25

   ID    Z sym.   atoms
    1    6 C      1-3, 5-14
    2    7 N      4
    3    1 H      15-36

          program call               : xtb C0042.xyz --opt --namespace C0042 --charge +1
          :  Hamiltonian                  GFN2-xTB          :
 * total energy  :   -41.5641549 Eh     change       -0.1964466E-08 Eh
 * total energy  :   -41.5711127 Eh     change       -0.6957841E-02 Eh
 * total energy  :   -41.5728309 Eh     change       -0.1718156E-02 Eh
 * total energy  :   -41.5730102 Eh     change       -0.1792954E-03 Eh
 * total energy  :   -41.5731349 Eh     change       -0.1247424E-03 Eh
 * total energy  :   -41.5732009 Eh     change       -0.6595531E-04 Eh
 * total energy  :   -41.5732821 Eh     change       -0.8124637E-04 Eh
 * total energy  :   -41.5734135 Eh     change       -0.1313596E-03 Eh
 * total energy  :   -41.5734809 Eh     change       -0.6737913E-04 Eh
 * total energy  :   -41.5735492 Eh     change       -0.6835210E-04 Eh
 * total energy  :   -41.5742082 Eh     change       -0.1674728E-04 Eh
 * total energy  :   -41.5742317 Eh     change       -0.2341583E-04 Eh
 * total energy  :   -41.5742741 Eh     change       -0.4246271E-04 Eh
 * total energy  :   -41.5742882 Eh     change       -0.1409700E-04 Eh
 * total energy  :   -41.5742986 Eh     change       -0.1036446E-04 Eh
 * total energy  :   -41.5743072 Eh     change       -0.8652173E-05 Eh
 * total energy  :   -41.5743226 Eh     change       -0.1535397E-04 Eh
 * total energy  :   -41.5743288 Eh     change       -0.6232883E-05 Eh
 * total energy  :   -41.5743323 Eh     change       -0.3521854E-05 Eh
   *** GEOMETRY OPTIMIZATION CONVERGED AFTER 27 ITERATIONS ***

 final structure:
================
36
 xtb: 6.7.1 (edcfbbe)
C            1.64760793037737        0.62212239593925       -0.06047946961450
C            0.59969089791607        0.39193475207255       -1.14671455296346
C            1.01163140974135       -0.64321990963056       -2.20262732903137
N            0.51654613663562       -2.03887776778288       -2.01312637562372
C           -0.97914369826233       -2.10520421100443       -2.18021592671255
C           -1.48477993033060       -1.69294318150781       -3.53864481418122
C           -1.80318196026220       -0.36311118062768       -3.79907214207674
C           -2.28436233474754        0.01276327776689       -5.04103660060618
C           -2.46302216675425       -0.93612655424531       -6.03362093394553
C           -2.17247900970998       -2.26542188373272       -5.77579280181788
C           -1.68812514098318       -2.64248838528413       -4.53573871378471
C            1.13652622099271       -2.92215187221662       -3.05097018248536
C            2.63494907622393       -3.15477523335691       -2.93233911440321
C            0.84751454789995       -2.54078838536725       -0.66918068273977
H            1.78906733606619       -0.24488227876206        0.57830112705310
H            1.33566988559573        1.44932778730045        0.57109777998466
H            2.60470157752867        0.88715548360487       -0.50325432002808
H           -0.35450597886816        0.13957777354511       -0.68447806266621
H            0.45256577004866        1.33893459725198       -1.66868111926775
H            0.65860968976731       -0.32744671466880       -3.18609731114008
H            2.10075977421840       -0.68089418356030       -2.22937436054287
H           -1.27976826116605       -3.13502729669931       -1.97551890687322
H           -1.42666267182013       -1.46392447024319       -1.41983816632117
H           -1.69674201581976        0.38168608657371       -3.02397575046859
H           -2.52881846964458        1.04642048745774       -5.22859030802137
H           -2.84205722924629       -0.64325944690070       -6.99969626210757
H           -2.33030643828590       -3.01263476018053       -6.53738630562533
H           -1.48715848592077       -3.68585867871300       -4.34067089301911
H            0.63266555354913       -3.88885036905864       -2.99020232125081
H            0.91318785400901       -2.48294897620000       -4.02505763087838
H            2.90309921130629       -3.67709038576471       -2.01873808284194
H            2.93286851367265       -3.78655372633780       -3.76573518338259
H            3.21382870835978       -2.23869471545533       -3.00396378768250
H            1.90484562929876       -2.39316036147305       -0.46514633422617
H            0.26672918251441       -2.01431369818100        0.08424431035717
H            0.61750888610367       -3.60306401455452       -0.60238847106672

          :  Hamiltonian                  GFN2-xTB          :
         :: total energy             -41.574332337416 Eh    ::
         :: gradient norm              0.000384052286 Eh/a0 ::
         :: HOMO-LUMO gap              4.648409784666 eV    ::
         :: SCC energy               -42.250610101181 Eh    ::
         :: -> dispersion             -0.031616598503 Eh    ::
         :: repulsion energy           0.676277763765 Eh    ::

    * Orbital Energies and Occupations

         #    Occupation            Energy/Eh            Energy/eV
      -------------------------------------------------------------
         1        2.0000           -0.8529637             -23.2103
       ...           ...                  ...                  ...
        27        2.0000           -0.6092588             -16.5788
        28        2.0000           -0.6054868             -16.4761
        29        2.0000           -0.6024080             -16.3924
        30        2.0000           -0.6006701             -16.3451
        31        2.0000           -0.5978053             -16.2671
        32        2.0000           -0.5952717             -16.1982
        33        2.0000           -0.5864335             -15.9577
        34        2.0000           -0.5754707             -15.6594
        35        2.0000           -0.5688592             -15.4794
        36        2.0000           -0.5470435             -14.8858
        37        2.0000           -0.5422394             -14.7551
        38        2.0000           -0.5282049             -14.3732
        39        2.0000           -0.5275503             -14.3554 (HOMO)
        40                         -0.3567244              -9.7070 (LUMO)
        41                         -0.3459622              -9.4141
        42                         -0.2358662              -6.4182
        43                         -0.2102147              -5.7202
        44                         -0.1526409              -4.1536
        45                         -0.1516972              -4.1279
        46                         -0.1351285              -3.6770
        47                         -0.0629441              -1.7128
        48                         -0.0574729              -1.5639
        49                         -0.0443717              -1.2074
        50                         -0.0397729              -1.0823
       ...                                ...                  ...
        78                          0.5394924              14.6803
      -------------------------------------------------------------
                  HL-Gap            0.1708259 Eh            4.6484 eV

     #   Z          covCN         q      C6AA      α(0)
     1   6 C        3.751    -0.121    22.883     6.822
     2   6 C        3.798    -0.065    21.746     6.640
     3   6 C        3.754    -0.040    21.336     6.587
     4   7 N        3.619     0.115    19.267     6.519
     5   6 C        3.766    -0.039    21.317     6.580
     6   6 C        2.967    -0.009    28.231     8.715
     7   6 C        2.923    -0.039    28.969     8.826
     8   6 C        2.919    -0.023    28.567     8.765
     9   6 C        2.920    -0.018    28.463     8.749
    10   6 C        2.919    -0.022    28.552     8.762
    11   6 C        2.923    -0.039    28.960     8.825
    12   6 C        3.761    -0.031    21.177     6.560
    13   6 C        3.751    -0.128    23.027     6.843
    14   6 C        3.715    -0.089    22.325     6.751
    15   1 H        0.925     0.045     2.377     2.411
    16   1 H        0.925     0.064     2.148     2.292
    17   1 H        0.925     0.052     2.297     2.370
    18   1 H        0.925     0.052     2.301     2.372
    19   1 H        0.924     0.069     2.099     2.266
    20   1 H        0.924     0.082     1.961     2.190
    21   1 H        0.925     0.089     1.891     2.151
    22   1 H        0.924     0.079     1.985     2.203
    23   1 H        0.924     0.084     1.942     2.180
    24   1 H        0.926     0.042     2.424     2.435
    25   1 H        0.926     0.058     2.221     2.330
    26   1 H        0.926     0.062     2.175     2.306
    27   1 H        0.926     0.059     2.211     2.325
    28   1 H        0.926     0.039     2.461     2.453
    29   1 H        0.924     0.083     1.953     2.186
    30   1 H        0.924     0.085     1.932     2.173
    31   1 H        0.925     0.068     2.105     2.269
    32   1 H        0.925     0.084     1.933     2.174
    33   1 H        0.925     0.063     2.162     2.299
    34   1 H        0.925     0.101     1.776     2.084
    35   1 H        0.925     0.097     1.812     2.105
    36   1 H        0.925     0.090     1.880     2.144

Wiberg/Mayer (AO) data.
largest (>0.10) Wiberg bond orders for each atom

     #   Z sym  total        # sym  WBO       # sym  WBO       # sym  WBO
 ---------------------------------------------------------------------------
     1   6 C    3.990 --     2 C    1.020    17 H    0.985    15 H    0.984
                            16 H    0.983
     2   6 C    3.987 --     1 C    1.020     3 C    1.003    19 H    0.970
                            18 H    0.966
     3   6 C    3.931 --     2 C    1.003    20 H    0.964    21 H    0.960
                             4 N    0.931
     4   7 N    3.803 --    14 C    0.963     3 C    0.931    12 C    0.928
                             5 C    0.914
     5   6 C    3.932 --     6 C    1.005    22 H    0.965    23 H    0.959
                             4 N    0.914
     6   6 C    3.979 --    11 C    1.407     7 C    1.407     5 C    1.005
                             9 C    0.109
     7   6 C    3.991 --     8 C    1.444     6 C    1.407    24 H    0.967
                            10 C    0.109
     8   6 C    3.990 --     7 C    1.444     9 C    1.438    25 H    0.969
                            11 C    0.109
     9   6 C    3.988 --     8 C    1.438    10 C    1.437    26 H    0.969
                             6 C    0.109
    10   6 C    3.990 --    11 C    1.446     9 C    1.437    27 H    0.969
                             7 C    0.109
    11   6 C    3.991 --    10 C    1.446     6 C    1.407    28 H    0.968
                             8 C    0.109
    12   6 C    3.936 --    13 C    1.023    29 H    0.967    30 H    0.965
                             4 N    0.928
    13   6 C    3.982 --    12 C    1.023    31 H    0.981    33 H    0.978
                            32 H    0.972
    14   6 C    3.932 --    36 H    0.976    35 H    0.972    34 H    0.971
                             4 N    0.963
    15   1 H    0.998 --     1 C    0.984
    16   1 H    0.996 --     1 C    0.983
    17   1 H    0.997 --     1 C    0.985
    18   1 H    0.997 --     2 C    0.966
    19   1 H    0.995 --     2 C    0.970
    20   1 H    0.993 --     3 C    0.964
    21   1 H    0.992 --     3 C    0.960
    22   1 H    0.993 --     5 C    0.965
    23   1 H    0.993 --     5 C    0.959
    24   1 H    0.998 --     7 C    0.967
    25   1 H    0.996 --     8 C    0.969
    26   1 H    0.996 --     9 C    0.969
    27   1 H    0.996 --    10 C    0.969
    28   1 H    0.998 --    11 C    0.968
    29   1 H    0.993 --    12 C    0.967
    30   1 H    0.993 --    12 C    0.965
    31   1 H    0.995 --    13 C    0.981
    32   1 H    0.992 --    13 C    0.972
    33   1 H    0.996 --    13 C    0.978
    34   1 H    0.989 --    14 C    0.971
    35   1 H    0.991 --    14 C    0.972
    36   1 H    0.992 --    14 C    0.976
 ---------------------------------------------------------------------------

molecular dipole:
                 x           y           z       tot (Debye)
 q only:        0.869      -3.456      -4.415
   full:        0.797      -3.525      -4.383      14.440

           -------------------------------------------------
          | TOTAL ENERGY              -41.574332337416 Eh   |
          | GRADIENT NORM               0.000384052286 Eh/α |
          | HOMO-LUMO GAP               4.648409784666 eV   |
           -------------------------------------------------

 * finished run on 2024/12/20 at 02:03:49.599
