   * xtb version 6.7.1 (edcfbbe) compiled by 'conda@3ef47c1a292c' on 2024-11-25

   ID    Z sym.   atoms
    1    6 C      1, 2, 4-21, 24, 25, 27-33
    2    7 N      3, 23, 26
    3    8 O      22
    4    1 H      34-65

          program call               : xtb C0041.xyz --opt --namespace C0041 --charge +1
          :  Hamiltonian                  GFN2-xTB          :
 * total energy  :   -90.8658440 Eh     change       -0.1535582E-08 Eh
 * total energy  :   -90.8794173 Eh     change       -0.1357335E-01 Eh
 * total energy  :   -90.8836468 Eh     change       -0.4229461E-02 Eh
 * total energy  :   -90.8848402 Eh     change       -0.1193455E-02 Eh
 * total energy  :   -90.8854572 Eh     change       -0.6169440E-03 Eh
 * total energy  :   -90.8857669 Eh     change       -0.3096961E-03 Eh
 * total energy  :   -90.8860702 Eh     change       -0.3033386E-03 Eh
 * total energy  :   -90.8863831 Eh     change       -0.3129135E-03 Eh
 * total energy  :   -90.8866251 Eh     change       -0.2419826E-03 Eh
 * total energy  :   -90.8868466 Eh     change       -0.2214491E-03 Eh
 * total energy  :   -90.9111088 Eh     change       -0.1762476E-04 Eh
 * total energy  :   -90.9111173 Eh     change       -0.8553455E-05 Eh
 * total energy  :   -90.9111251 Eh     change       -0.7740402E-05 Eh
 * total energy  :   -90.9111313 Eh     change       -0.6210324E-05 Eh
 * total energy  :   -90.9111368 Eh     change       -0.5509915E-05 Eh
 * total energy  :   -90.9111438 Eh     change       -0.6958523E-05 Eh
 * total energy  :   -90.9111525 Eh     change       -0.8694942E-05 Eh
 * total energy  :   -90.9111588 Eh     change       -0.6289820E-05 Eh
 * total energy  :   -90.9111624 Eh     change       -0.3667625E-05 Eh
   *** GEOMETRY OPTIMIZATION CONVERGED AFTER 152 ITERATIONS ***

 final structure:
================
65
 xtb: 6.7.1 (edcfbbe)
C           -0.91168528903075       -0.01126292175450       -0.02593557703962
C            0.31106876893992       -0.58086178648616        0.57040851749042
N            1.26910542136712        0.05795720534008        1.24994234735069
C            1.34690128894954        1.47270984109376        1.54236347388693
C            2.67191046941516        2.09804443892485        1.09681104381532
C            3.07745426720789        1.80374941161910       -0.34841008565723
C            2.07830821888473        2.17348486287914       -1.44984203334369
C            1.70357847629454        3.67028253817625       -1.61207525779639
C            2.86313207361758        4.54045151654039       -1.16829999097255
C            4.03474058755339        4.50898274141258       -1.92197064000736
C            5.13840166424122        5.25198423232267       -1.54824795417299
C            5.09418503459698        6.03747865836011       -0.40787122364743
C            3.94032890219983        6.06831949561236        0.35330830704029
C            2.83302075739922        5.32332623499524       -0.02140407370381
C            1.31966615265711        3.95843754844907       -3.06690854532793
C            1.62866975600736        5.17578974114167       -3.66516683659201
C            1.23846065008880        5.44556430533706       -4.96516764546425
C            0.51618995146492        4.51109920781786       -5.68592030431974
C            0.17877902814150        3.30864912611186       -5.09073202120350
C            0.57085886848533        3.03775499571307       -3.79158733152297
C            0.38362278870908        3.97545528906472       -0.88834409545509
O           -0.29942964483163        3.11415375334004       -0.35664856023932
N           -0.01202215381656        5.25431875930695       -0.93923098286410
C            2.19873796154455       -0.85772873949504        1.65486381629708
C            1.79418277215794       -2.07366644766741        1.21033229503560
N            0.62251740147668       -1.88565938162420        0.53654958244000
C           -0.18993133368914       -2.93153166287140       -0.04647907808322
C           -1.51920283581999       -3.05787427366083        0.66400449306149
C           -2.70487178645730       -3.08664857893928       -0.05641890746961
C           -3.91659081371095       -3.21182676305153        0.60128267215388
C           -3.95117426615821       -3.29842310248263        1.98246964885553
C           -2.77041921231869       -3.26825658179110        2.70598648601858
C           -1.55806038910509       -3.15170548779088        2.04998020987309
H           -0.84494440762829        1.06756023347132       -0.14895385577386
H           -1.77147569905512       -0.22871483154156        0.60932286226285
H           -1.10241541766152       -0.46490224111056       -0.99673233411925
H            0.52299620017844        1.98110196968350        1.04243499559782
H            1.23274826573439        1.60599133558244        2.62200798429844
H            2.57776849086532        3.17426798245418        1.23540244959699
H            3.48246085150598        1.75943649014861        1.74543186473380
H            4.01947025544445        2.32267143150603       -0.53189698568413
H            3.28055931776067        0.73303323759784       -0.45019677674035
H            2.51974293700356        1.83876508887614       -2.39069562477985
H            1.15547298995131        1.61351655475818       -1.29926823195255
H            4.07424234830522        3.90431066306671       -2.81620268114093
H            6.03451850194879        5.21857969650102       -2.14892127362420
H            5.95347500468736        6.62082326719266       -0.11594665144646
H            3.89526344838941        6.67478970140902        1.24527309335708
H            1.94416867154363        5.36557311045273        0.59202128296268
H            2.19729752955174        5.91975782689276       -3.12538749440275
H            1.49993291263611        6.39218332185131       -5.41291192037684
H            0.21291831759300        4.72114620877368       -6.69965580933424
H           -0.39675068603653        2.57678930856107       -5.63721565125993
H            0.27932438640923        2.10061591777547       -3.34336424947180
H            0.51184685881387        5.94821363695725       -1.44403362040614
H           -0.91438468166203        5.50382298419999       -0.56770507799076
H            3.06202455854069       -0.58471614457279        2.22442784593258
H            2.24656605445384       -3.03758838505938        1.31922722745160
H           -0.34991767255660       -2.71899862654495       -1.10754759421224
H            0.37034735499933       -3.86675661686348        0.03422965521787
H           -2.68280264142270       -3.02183366774770       -1.13438408010639
H           -4.83307208369094       -3.23989139910726        0.03302379649696
H           -4.89558639834598       -3.39312460340545        2.49471075129860
H           -2.79204311050774       -3.34134961749416        3.78213508911451
H           -0.63885599464279       -3.13862200881062        2.61906926669891

          :  Hamiltonian                  GFN2-xTB          :
         :: total energy             -90.911162418769 Eh    ::
         :: gradient norm              0.000339076564 Eh/a0 ::
         :: HOMO-LUMO gap              2.878901266910 eV    ::
         :: SCC energy               -92.443681770295 Eh    ::
         :: -> dispersion             -0.079693479982 Eh    ::
         :: repulsion energy           1.532519351526 Eh    ::

    * Orbital Energies and Occupations

         #    Occupation            Energy/Eh            Energy/eV
      -------------------------------------------------------------
         1        2.0000           -0.8604954             -23.4153
       ...           ...                  ...                  ...
        72        2.0000           -0.5242050             -14.2643
        73        2.0000           -0.5178469             -14.0913
        74        2.0000           -0.5103215             -13.8866
        75        2.0000           -0.5084312             -13.8351
        76        2.0000           -0.5067637             -13.7897
        77        2.0000           -0.5054130             -13.7530
        78        2.0000           -0.5048999             -13.7390
        79        2.0000           -0.4969496             -13.5227
        80        2.0000           -0.4956893             -13.4884
        81        2.0000           -0.4862514             -13.2316
        82        2.0000           -0.4839204             -13.1681
        83        2.0000           -0.4800837             -13.0637
        84        2.0000           -0.4730269             -12.8717 (HOMO)
        85                         -0.3672292              -9.9928 (LUMO)
        86                         -0.3385938              -9.2136
        87                         -0.3305453              -8.9946
        88                         -0.3264325              -8.8827
        89                         -0.3177321              -8.6459
        90                         -0.3069931              -8.3537
        91                         -0.3060524              -8.3281
        92                         -0.3017772              -8.2118
        93                         -0.2918225              -7.9409
        94                         -0.2018948              -5.4938
        95                         -0.1774253              -4.8280
       ...                                ...                  ...
       164                          0.5860747              15.9479
      -------------------------------------------------------------
                  HL-Gap            0.1057977 Eh            2.8789 eV

     #   Z          covCN         q      C6AA      α(0)
     1   6 C        3.754    -0.143    23.322     6.886
     2   6 C        3.098     0.110    25.457     8.269
     3   7 N        2.869     0.046    20.445     6.716
     4   6 C        3.741    -0.036    21.296     6.584
     5   6 C        3.800    -0.067    21.794     6.647
     6   6 C        3.799    -0.062    21.697     6.632
     7   6 C        3.804    -0.061    21.677     6.628
     8   6 C        3.911    -0.018    20.840     6.489
     9   6 C        2.973     0.006    27.882     8.661
    10   6 C        2.926    -0.033    28.833     8.806
    11   6 C        2.919    -0.028    28.703     8.786
    12   6 C        2.920    -0.028    28.701     8.785
    13   6 C        2.919    -0.030    28.744     8.792
    14   6 C        2.922    -0.046    29.146     8.853
    15   6 C        2.993     0.002    27.961     8.674
    16   6 C        2.924    -0.040    29.005     8.832
    17   6 C        2.920    -0.027    28.676     8.781
    18   6 C        2.919    -0.027    28.677     8.782
    19   6 C        2.920    -0.028    28.689     8.783
    20   6 C        2.924    -0.039    28.972     8.827
    21   6 C        2.767     0.290    22.079     7.695
    22   8 O        0.859    -0.473    23.202     6.458
    23   7 N        2.638    -0.257    26.678     7.671
    24   6 C        3.055    -0.011    28.246     8.716
    25   6 C        3.043    -0.013    28.286     8.723
    26   7 N        2.877     0.032    20.683     6.755
    27   6 C        3.747    -0.022    21.029     6.541
    28   6 C        2.971    -0.001    28.056     8.688
    29   6 C        2.923    -0.037    28.909     8.817
    30   6 C        2.920    -0.023    28.577     8.766
    31   6 C        2.920    -0.023    28.570     8.765
    32   6 C        2.919    -0.024    28.610     8.771
    33   6 C        2.923    -0.038    28.954     8.824
    34   1 H        0.925     0.127     1.559     1.952
    35   1 H        0.924     0.096     1.822     2.111
    36   1 H        0.925     0.087     1.906     2.159
    37   1 H        0.925     0.120     1.611     1.985
    38   1 H        0.924     0.073     2.049     2.238
    39   1 H        0.925     0.066     2.125     2.280
    40   1 H        0.924     0.046     2.376     2.411
    41   1 H        0.924     0.052     2.291     2.367
    42   1 H        0.924     0.028     2.613     2.528
    43   1 H        0.924     0.046     2.368     2.406
    44   1 H        0.925     0.049     2.339     2.391
    45   1 H        0.926     0.037     2.487     2.466
    46   1 H        0.926     0.042     2.417     2.431
    47   1 H        0.926     0.044     2.398     2.422
    48   1 H        0.926     0.039     2.456     2.451
    49   1 H        0.926     0.025     2.658     2.549
    50   1 H        0.926     0.031     2.578     2.511
    51   1 H        0.926     0.043     2.404     2.425
    52   1 H        0.926     0.045     2.378     2.412
    53   1 H        0.926     0.040     2.448     2.446
    54   1 H        0.926     0.030     2.587     2.515
    55   1 H        0.860     0.199     1.112     1.652
    56   1 H        0.860     0.203     1.090     1.635
    57   1 H        0.927     0.095     1.829     2.115
    58   1 H        0.926     0.091     1.869     2.138
    59   1 H        0.924     0.077     2.005     2.215
    60   1 H        0.924     0.085     1.931     2.173
    61   1 H        0.926     0.041     2.435     2.440
    62   1 H        0.926     0.055     2.261     2.351
    63   1 H        0.926     0.055     2.253     2.347
    64   1 H        0.926     0.051     2.308     2.376
    65   1 H        0.926     0.030     2.586     2.515

Wiberg/Mayer (AO) data.
largest (>0.10) Wiberg bond orders for each atom

     #   Z sym  total        # sym  WBO       # sym  WBO       # sym  WBO
 ---------------------------------------------------------------------------
     1   6 C    3.971 --     2 C    1.050    36 H    0.959    34 H    0.947
                            35 H    0.941
     2   6 C    3.951 --     3 N    1.337    26 N    1.314     1 C    1.050
     3   7 N    3.698 --     2 C    1.337    24 C    1.209     4 C    0.966
     4   6 C    3.931 --     5 C    0.993     3 N    0.966    38 H    0.958
                            37 H    0.937
     5   6 C    3.989 --     6 C    1.008     4 C    0.993    40 H    0.975
                            39 H    0.962
     6   6 C    3.994 --     5 C    1.008     7 C    1.007    42 H    0.975
                            41 H    0.970
     7   6 C    3.994 --     6 C    1.007    43 H    0.973     8 C    0.967
                            44 H    0.967
     8   6 C    3.988 --     9 C    0.978     7 C    0.967    15 C    0.951
                            21 C    0.929
     9   6 C    3.986 --    14 C    1.420    10 C    1.397     8 C    0.978
                            12 C    0.110
    10   6 C    3.992 --    11 C    1.453     9 C    1.397    45 H    0.968
                            13 C    0.112
    11   6 C    3.991 --    10 C    1.453    12 C    1.430    46 H    0.970
                            14 C    0.108
    12   6 C    3.991 --    13 C    1.447    11 C    1.430    47 H    0.970
                             9 C    0.110
    13   6 C    3.991 --    12 C    1.447    14 C    1.432    48 H    0.971
                            10 C    0.112
    14   6 C    3.991 --    13 C    1.432     9 C    1.420    49 H    0.965
                            11 C    0.108
    15   6 C    3.983 --    20 C    1.410    16 C    1.409     8 C    0.951
                            18 C    0.109
    16   6 C    3.992 --    17 C    1.443    15 C    1.409    50 H    0.963
                            19 C    0.110
    17   6 C    3.990 --    16 C    1.443    18 C    1.438    51 H    0.970
                            20 C    0.110
    18   6 C    3.989 --    19 C    1.439    17 C    1.438    52 H    0.970
                            15 C    0.109
    19   6 C    3.991 --    20 C    1.444    18 C    1.439    53 H    0.970
                            16 C    0.110
    20   6 C    3.992 --    19 C    1.444    15 C    1.410    54 H    0.968
                            17 C    0.110
    21   6 C    3.937 --    22 O    1.629    23 N    1.299     8 C    0.929
    22   8 O    1.977 --    21 C    1.629    23 N    0.186
    23   7 N    3.406 --    21 C    1.299    56 H    0.937    55 H    0.935
                            22 O    0.186
    24   6 C    3.951 --    25 C    1.610     3 N    1.209    57 H    0.962
    25   6 C    3.950 --    24 C    1.610    26 N    1.207    58 H    0.963
    26   7 N    3.685 --     2 C    1.314    25 C    1.207    27 C    0.969
    27   6 C    3.944 --    28 C    0.984    26 N    0.969    60 H    0.958
                            59 H    0.956
    28   6 C    3.980 --    29 C    1.417    33 C    1.412    27 C    0.984
                            31 C    0.109
    29   6 C    3.991 --    30 C    1.440    28 C    1.417    61 H    0.968
                            32 C    0.111
    30   6 C    3.990 --    31 C    1.442    29 C    1.440    62 H    0.969
                            33 C    0.112
    31   6 C    3.990 --    30 C    1.442    32 C    1.437    63 H    0.969
                            28 C    0.109
    32   6 C    3.991 --    33 C    1.446    31 C    1.437    64 H    0.970
                            29 C    0.111
    33   6 C    3.992 --    32 C    1.446    28 C    1.412    65 H    0.970
                            30 C    0.112
    34   1 H    0.983 --     1 C    0.947
    35   1 H    0.991 --     1 C    0.941
    36   1 H    0.992 --     1 C    0.959
    37   1 H    0.985 --     4 C    0.937
    38   1 H    0.994 --     4 C    0.958
    39   1 H    0.995 --     5 C    0.962
    40   1 H    0.998 --     5 C    0.975
    41   1 H    0.997 --     6 C    0.970
    42   1 H    0.999 --     6 C    0.975
    43   1 H    0.997 --     7 C    0.973
    44   1 H    0.997 --     7 C    0.967
    45   1 H    0.999 --    10 C    0.968
    46   1 H    0.998 --    11 C    0.970
    47   1 H    0.997 --    12 C    0.970
    48   1 H    0.998 --    13 C    0.971
    49   1 H    0.999 --    14 C    0.965
    50   1 H    0.999 --    16 C    0.963
    51   1 H    0.998 --    17 C    0.970
    52   1 H    0.997 --    18 C    0.970
    53   1 H    0.998 --    19 C    0.970
    54   1 H    0.999 --    20 C    0.968
    55   1 H    0.960 --    23 N    0.935
    56   1 H    0.958 --    23 N    0.937
    57   1 H    0.991 --    24 C    0.962
    58   1 H    0.991 --    25 C    0.963
    59   1 H    0.993 --    27 C    0.956
    60   1 H    0.992 --    27 C    0.958
    61   1 H    0.998 --    29 C    0.968
    62   1 H    0.997 --    30 C    0.969
    63   1 H    0.996 --    31 C    0.969
    64   1 H    0.997 --    32 C    0.970
    65   1 H    0.999 --    33 C    0.970
 ---------------------------------------------------------------------------

molecular dipole:
                 x           y           z       tot (Debye)
 q only:        1.307       0.599       0.416
   full:        1.450       0.748       0.324       4.228

           -------------------------------------------------
          | TOTAL ENERGY              -90.911162418769 Eh   |
          | GRADIENT NORM               0.000339076564 Eh/α |
          | HOMO-LUMO GAP               2.878901266910 eV   |
           -------------------------------------------------

 * finished run on 2024/12/20 at 02:03:48.487
