   * xtb version 6.7.1 (edcfbbe) compiled by 'conda@3ef47c1a292c' on 2024-11-25

   ID    Z sym.   atoms
    1    6 C      1-4, 6, 7, 10-17
    2   15 P      5
    3    8 O      8, 9
    4    1 H      18-47

          program call               : xtb C0048.xyz --opt --namespace C0048 --charge +1
          :  Hamiltonian                  GFN2-xTB          :
 * total energy  :   -55.5400282 Eh     change       -0.6190675E-09 Eh
 * total energy  :   -55.5484841 Eh     change       -0.8455885E-02 Eh
 * total energy  :   -55.5514416 Eh     change       -0.2957519E-02 Eh
 * total energy  :   -55.5519350 Eh     change       -0.4933427E-03 Eh
 * total energy  :   -55.5521354 Eh     change       -0.2004695E-03 Eh
 * total energy  :   -55.5522640 Eh     change       -0.1285863E-03 Eh
 * total energy  :   -55.5523965 Eh     change       -0.1324507E-03 Eh
 * total energy  :   -55.5525404 Eh     change       -0.1438747E-03 Eh
 * total energy  :   -55.5526406 Eh     change       -0.1002420E-03 Eh
 * total energy  :   -55.5527064 Eh     change       -0.6578463E-04 Eh
 * total energy  :   -55.5528045 Eh     change       -0.1091041E-04 Eh
 * total energy  :   -55.5528166 Eh     change       -0.1209465E-04 Eh
 * total energy  :   -55.5528234 Eh     change       -0.6783699E-05 Eh
 * total energy  :   -55.5528334 Eh     change       -0.1001288E-04 Eh
 * total energy  :   -55.5528450 Eh     change       -0.1163914E-04 Eh
 * total energy  :   -55.5528555 Eh     change       -0.1042477E-04 Eh
 * total energy  :   -55.5528637 Eh     change       -0.8257991E-05 Eh
 * total energy  :   -55.5528701 Eh     change       -0.6318688E-05 Eh
 * total energy  :   -55.5528736 Eh     change       -0.3579758E-05 Eh
   *** GEOMETRY OPTIMIZATION CONVERGED AFTER 22 ITERATIONS ***

 final structure:
================
47
 xtb: 6.7.1 (edcfbbe)
C            1.09106008895874        0.20795374458404       -0.07946549022782
C            0.14923855506208        1.23312468402020        0.57549100652525
C            0.35686854850998        2.66896660551596        0.08996266474887
C           -0.28627488930609        2.93946360415748       -1.26312570904854
P            0.46191023594651       -0.83803003281130       -1.46237005642212
C            1.08489643150385       -2.51165518017674       -1.01644782298778
C            0.44775626518066       -3.00975973203222        0.26724255384744
O           -0.70543554879923       -3.31416235521515        0.36790189420346
O            1.32114764602768       -3.02867086656305        1.26624187175797
C           -1.35759927978702       -1.06386294201595       -1.47895002305033
C           -2.27351170229367       -0.02825679611481       -2.13091232928370
C           -2.24186007647876       -0.01621561920097       -3.65907163487150
C           -2.70898518200980       -1.32261445751574       -4.29032313917406
C            1.27429867823014       -0.66498987304291       -3.10946775579258
C            1.51694555207407        0.69246875179700       -3.77116605533205
C            2.60816481411341        1.55316415983503       -3.13082286429548
C            3.95400596960804        0.84922346804959       -3.00160281608051
H            1.39062328125134       -0.52508466700364        0.67592736549095
H            2.00354048426680        0.69991862482243       -0.42224483400970
H           -0.89506575374447        0.94767199609106        0.43855559866808
H            0.34837556204645        1.21000606379542        1.64791620402043
H           -0.07380809981883        3.34935210056566        0.82506736820380
H            1.42708695694771        2.88145432007660        0.04729107352973
H           -1.36685162911370        3.01173715676098       -1.16404520099905
H            0.07185433760991        3.87795283998396       -1.67652901284196
H           -0.05059216509568        2.14193382550792       -1.96668258464198
H            0.83164199085046       -3.20306073702457       -1.82404592819778
H            2.16956520095404       -2.47099710239577       -0.89139204288204
H            0.93435885525473       -3.38991187995012        2.08215237363865
H           -1.51778652150839       -2.03988450724659       -1.94676965509583
H           -1.62724808151022       -1.17776477927639       -0.42324607676173
H           -3.29092808607404       -0.27051351223652       -1.81547880768130
H           -2.04772158768664        0.96970120159949       -1.75893444321891
H           -2.90300443042806        0.78498435885961       -3.99318816444211
H           -1.23887740181178        0.22389017039238       -4.01376954974756
H           -3.68629792622119       -1.60330350926017       -3.90666778920635
H           -2.79163766048568       -1.20325088745973       -5.36696926770337
H           -2.01653641029707       -2.14012931912508       -4.10066301616879
H            2.23649495512780       -1.17374450186004       -3.00252556607527
H            0.65061808366618       -1.27929015403580       -3.76862718760715
H            1.81834355438251        0.47743839154002       -4.79958265502560
H            0.59471333406103        1.27273450203431       -3.82583458623559
H            2.73457615162207        2.43131374677883       -3.76598564820898
H            2.28490965405576        1.91361384721936       -2.15439196081778
H            4.25071406609398        0.41055670937804       -3.95110385945807
H            4.71669398257207        1.56663747430248       -2.71205683407886
H            3.93533919649220        0.06632106389115       -2.24511960696055

          :  Hamiltonian                  GFN2-xTB          :
         :: total energy             -55.552873631175 Eh    ::
         :: gradient norm              0.000290265402 Eh/a0 ::
         :: HOMO-LUMO gap              4.433114654869 eV    ::
         :: SCC energy               -56.287142803605 Eh    ::
         :: -> dispersion             -0.043283534500 Eh    ::
         :: repulsion energy           0.734269172430 Eh    ::

    * Orbital Energies and Occupations

         #    Occupation            Energy/Eh            Energy/eV
      -------------------------------------------------------------
         1        2.0000           -0.8852079             -24.0877
       ...           ...                  ...                  ...
        39        2.0000           -0.5902361             -16.0611
        40        2.0000           -0.5828645             -15.8605
        41        2.0000           -0.5766036             -15.6902
        42        2.0000           -0.5650637             -15.3762
        43        2.0000           -0.5635210             -15.3342
        44        2.0000           -0.5614749             -15.2785
        45        2.0000           -0.5590832             -15.2134
        46        2.0000           -0.5539671             -15.0742
        47        2.0000           -0.5503204             -14.9750
        48        2.0000           -0.5488711             -14.9355
        49        2.0000           -0.5470412             -14.8857
        50        2.0000           -0.5446650             -14.8211
        51        2.0000           -0.5425400             -14.7633 (HOMO)
        52                         -0.3796260             -10.3302 (LUMO)
        53                         -0.3359876              -9.1427
        54                         -0.2784766              -7.5777
        55                         -0.2676192              -7.2823
        56                         -0.1982778              -5.3954
        57                         -0.1146441              -3.1196
        58                         -0.0816351              -2.2214
        59                         -0.0714055              -1.9430
        60                         -0.0551439              -1.5005
        61                         -0.0484886              -1.3194
        62                         -0.0424027              -1.1538
       ...                                ...                  ...
       103                          0.7652216              20.8227
      -------------------------------------------------------------
                  HL-Gap            0.1629140 Eh            4.4331 eV

     #   Z          covCN         q      C6AA      α(0)
     1   6 C        3.749    -0.080    22.090     6.703
     2   6 C        3.822    -0.065    21.733     6.634
     3   6 C        3.800    -0.062    21.695     6.632
     4   6 C        3.752    -0.110    22.665     6.789
     5  15 P        3.873     0.219   150.876    22.065
     6   6 C        3.752    -0.129    23.044     6.846
     7   6 C        2.771     0.364    20.835     7.476
     8   8 O        0.856    -0.384    21.371     6.198
     9   8 O        1.660    -0.359    20.079     6.049
    10   6 C        3.750    -0.075    21.996     6.689
    11   6 C        3.822    -0.068    21.785     6.642
    12   6 C        3.800    -0.063    21.703     6.633
    13   6 C        3.751    -0.113    22.722     6.798
    14   6 C        3.749    -0.079    22.072     6.701
    15   6 C        3.814    -0.062    21.683     6.628
    16   6 C        3.800    -0.065    21.743     6.639
    17   6 C        3.751    -0.113    22.723     6.798
    18   1 H        0.929     0.093     1.849     2.126
    19   1 H        0.926     0.105     1.738     2.061
    20   1 H        0.924     0.060     2.203     2.321
    21   1 H        0.924     0.064     2.157     2.297
    22   1 H        0.924     0.058     2.220     2.330
    23   1 H        0.924     0.043     2.404     2.425
    24   1 H        0.925     0.044     2.397     2.421
    25   1 H        0.925     0.055     2.258     2.350
    26   1 H        0.925     0.037     2.487     2.466
    27   1 H        0.926     0.111     1.686     2.031
    28   1 H        0.925     0.108     1.713     2.047
    29   1 H        0.804     0.354     0.579     1.196
    30   1 H        0.928     0.111     1.685     2.030
    31   1 H        0.928     0.104     1.751     2.069
    32   1 H        0.924     0.070     2.088     2.260
    33   1 H        0.925     0.059     2.212     2.326
    34   1 H        0.924     0.056     2.252     2.347
    35   1 H        0.924     0.035     2.520     2.482
    36   1 H        0.925     0.051     2.302     2.373
    37   1 H        0.925     0.053     2.278     2.360
    38   1 H        0.925     0.029     2.596     2.520
    39   1 H        0.928     0.099     1.791     2.093
    40   1 H        0.928     0.095     1.826     2.113
    41   1 H        0.924     0.067     2.119     2.277
    42   1 H        0.924     0.052     2.297     2.370
    43   1 H        0.924     0.058     2.228     2.334
    44   1 H        0.925     0.041     2.429     2.437
    45   1 H        0.925     0.049     2.335     2.390
    46   1 H        0.925     0.055     2.256     2.349
    47   1 H        0.925     0.028     2.618     2.530

Wiberg/Mayer (AO) data.
largest (>0.10) Wiberg bond orders for each atom

     #   Z sym  total        # sym  WBO       # sym  WBO       # sym  WBO
 ---------------------------------------------------------------------------
     1   6 C    3.980 --     5 P    0.991     2 C    0.984    18 H    0.930
                            19 H    0.929
     2   6 C    3.986 --     3 C    1.008     1 C    0.984    21 H    0.972
                            20 H    0.964
     3   6 C    3.993 --     4 C    1.021     2 C    1.008    23 H    0.974
                            22 H    0.974
     4   6 C    3.995 --     3 C    1.021    25 H    0.984    24 H    0.983
                            26 H    0.965
     5  15 P    4.512 --    10 C    1.006     1 C    0.991    14 C    0.987
                             6 C    0.987
     6   6 C    3.991 --     5 P    0.987     7 C    0.959    28 H    0.939
                            27 H    0.928
     7   6 C    3.927 --     8 O    1.770     9 O    1.160     6 C    0.959
     8   8 O    2.067 --     7 C    1.770     9 O    0.185
     9   8 O    2.229 --     7 C    1.160    29 H    0.849     8 O    0.185
    10   6 C    3.977 --     5 P    1.006    11 C    0.988    31 H    0.921
                            30 H    0.920
    11   6 C    3.985 --    12 C    1.007    10 C    0.988    32 H    0.966
                            33 H    0.964
    12   6 C    3.995 --    13 C    1.021    11 C    1.007    34 H    0.974
                            35 H    0.965
    13   6 C    3.993 --    12 C    1.021    36 H    0.986    37 H    0.985
                            38 H    0.984
    14   6 C    3.980 --    15 C    0.993     5 P    0.987    39 H    0.927
                            40 H    0.927
    15   6 C    3.984 --    16 C    1.006    14 C    0.993    41 H    0.966
                            42 H    0.963
    16   6 C    3.994 --    17 C    1.021    15 C    1.006    43 H    0.974
                            44 H    0.966
    17   6 C    3.994 --    16 C    1.021    45 H    0.986    46 H    0.984
                            47 H    0.983
    18   1 H    0.991 --     1 C    0.930
    19   1 H    0.989 --     1 C    0.929
    20   1 H    0.996 --     2 C    0.964
    21   1 H    0.996 --     2 C    0.972
    22   1 H    0.996 --     3 C    0.974
    23   1 H    0.998 --     3 C    0.974
    24   1 H    0.998 --     4 C    0.983
    25   1 H    0.997 --     4 C    0.984
    26   1 H    0.999 --     4 C    0.965
    27   1 H    0.987 --     6 C    0.928
    28   1 H    0.988 --     6 C    0.939
    29   1 H    0.874 --     9 O    0.849
    30   1 H    0.988 --    10 C    0.920
    31   1 H    0.989 --    10 C    0.921
    32   1 H    0.995 --    11 C    0.966
    33   1 H    0.997 --    11 C    0.964
    34   1 H    0.997 --    12 C    0.974
    35   1 H    0.999 --    12 C    0.965
    36   1 H    0.997 --    13 C    0.986
    37   1 H    0.997 --    13 C    0.985
    38   1 H    0.999 --    13 C    0.984
    39   1 H    0.990 --    14 C    0.927
    40   1 H    0.991 --    14 C    0.927
    41   1 H    0.995 --    15 C    0.966
    42   1 H    0.997 --    15 C    0.963
    43   1 H    0.996 --    16 C    0.974
    44   1 H    0.998 --    16 C    0.966
    45   1 H    0.997 --    17 C    0.986
    46   1 H    0.997 --    17 C    0.984
    47   1 H    0.999 --    17 C    0.983
 ---------------------------------------------------------------------------

molecular dipole:
                 x           y           z       tot (Debye)
 q only:        1.260      -0.630      -2.878
   full:        1.373      -0.967      -2.686       8.053

           -------------------------------------------------
          | TOTAL ENERGY              -55.552873631175 Eh   |
          | GRADIENT NORM               0.000290265402 Eh/α |
          | HOMO-LUMO GAP               4.433114654869 eV   |
           -------------------------------------------------

 * finished run on 2024/12/20 at 02:03:56.300
