   * xtb version 6.7.1 (edcfbbe) compiled by 'conda@3ef47c1a292c' on 2024-11-25

   ID    Z sym.   atoms
    1    6 C      1, 3, 5-11
    2    7 N      2, 4, 12
    3    1 H      13-26

          program call               : xtb C0045.xyz --opt --namespace C0045 --charge +1
          :  Hamiltonian                  GFN2-xTB          :
 * total energy  :   -34.6109001 Eh     change       -0.1085709E-10 Eh
 * total energy  :   -34.6757112 Eh     change       -0.6481109E-01 Eh
 * total energy  :   -34.6816018 Eh     change       -0.5890624E-02 Eh
 * total energy  :   -34.6816148 Eh     change       -0.1293860E-04 Eh
 * total energy  :   -34.6826496 Eh     change       -0.1034856E-02 Eh
 * total energy  :   -34.6827539 Eh     change       -0.1043082E-03 Eh
 * total energy  :   -34.6827855 Eh     change       -0.3152573E-04 Eh
 * total energy  :   -34.6828060 Eh     change       -0.2057665E-04 Eh
 * total energy  :   -34.6828159 Eh     change       -0.9821748E-05 Eh
 * total energy  :   -34.6828296 Eh     change       -0.1373535E-04 Eh
 * total energy  :   -34.6828343 Eh     change       -0.4691318E-05 Eh
 * total energy  :   -34.6828378 Eh     change       -0.3486425E-05 Eh
 * total energy  :   -34.6828390 Eh     change       -0.1187549E-05 Eh
   *** GEOMETRY OPTIMIZATION CONVERGED AFTER 13 ITERATIONS ***

 final structure:
================
26
 xtb: 6.7.1 (edcfbbe)
C            1.08988825110047        0.03154361398038        0.03429026452838
N           -0.04910842170443        0.05805793575618        0.05860603157818
C            2.54074556286391        0.01327005595588       -0.03021741638017
N            3.04474060308456        0.70836248245248       -1.24911909769236
C            2.59145107519245        2.13219562900388       -1.22069262126788
C            3.17982081799795        2.97379114745040       -2.34712399648592
C            4.70410231443381        2.91915549994221       -2.31547358055650
C            5.17059264670646        1.46762963036082       -2.36742608418607
C            4.53867768709218        0.66036016494877       -1.23888538767119
C            2.49767359517135        0.01326054133265       -2.44648173826527
C            2.92096207291983       -1.37418060893347       -2.49545160671980
N            3.26959421605886       -2.45908992516114       -2.51374232091980
H            2.93510032015404        0.50214669849492        0.86685538479847
H            2.87651950601846       -1.03065384833151       -0.03406119017470
H            2.91019269363207        2.55451513168944       -0.26412364022231
H            1.49945013287426        2.14938127091956       -1.25515722535189
H            2.83928042673297        3.99918339259255       -2.20140451316986
H            2.80646301339061        2.65387537847029       -3.32077351109908
H            5.11374431325902        3.47148232250145       -3.15916756102119
H            5.07107962591768        3.39201362518097       -1.40297342369330
H            4.94941178739095        1.02836062956260       -3.34110667528154
H            6.25212143475845        1.41744416186252       -2.23926785180701
H            4.85141500929966       -0.38509298134597       -1.29678073778025
H            4.87192434998277        1.07068124316119       -0.28246445122676
H            1.40217708157220        0.04581449780194       -2.42077266521740
H            2.84004988409998        0.51146231035123       -3.35692438471480

          :  Hamiltonian                  GFN2-xTB          :
         :: total energy             -34.682838968245 Eh    ::
         :: gradient norm              0.000309052482 Eh/a0 ::
         :: HOMO-LUMO gap              5.193586069644 eV    ::
         :: SCC energy               -35.259130000736 Eh    ::
         :: -> dispersion             -0.022505042689 Eh    ::
         :: repulsion energy           0.576291032491 Eh    ::

    * Orbital Energies and Occupations

         #    Occupation            Energy/Eh            Energy/eV
      -------------------------------------------------------------
         1        2.0000           -0.9005517             -24.5053
       ...           ...                  ...                  ...
        20        2.0000           -0.6707086             -18.2509
        21        2.0000           -0.6658975             -18.1200
        22        2.0000           -0.6639697             -18.0675
        23        2.0000           -0.6571707             -17.8825
        24        2.0000           -0.6495409             -17.6749
        25        2.0000           -0.6458936             -17.5757
        26        2.0000           -0.6398544             -17.4113
        27        2.0000           -0.6301919             -17.1484
        28        2.0000           -0.6077764             -16.5384
        29        2.0000           -0.6066089             -16.5067
        30        2.0000           -0.5969002             -16.2425
        31        2.0000           -0.5949221             -16.1887
        32        2.0000           -0.5935489             -16.1513 (HOMO)
        33                         -0.4026881             -10.9577 (LUMO)
        34                         -0.3898793             -10.6092
        35                         -0.3792617             -10.3202
        36                         -0.3750585             -10.2059
        37                         -0.2474567              -6.7336
        38                         -0.1951310              -5.3098
        39                         -0.1770646              -4.8182
        40                         -0.1735434              -4.7224
        41                         -0.0965231              -2.6265
        42                         -0.0893525              -2.4314
        43                         -0.0847832              -2.3071
       ...                                ...                  ...
        62                          0.9771029              26.5883
      -------------------------------------------------------------
                  HL-Gap            0.1908608 Eh            5.1936 eV

     #   Z          covCN         q      C6AA      α(0)
     1   6 C        1.893     0.106    28.479     8.619
     2   7 N        0.911    -0.137    23.965     7.080
     3   6 C        3.768    -0.026    21.066     6.541
     4   7 N        3.627     0.123    19.139     6.498
     5   6 C        3.760    -0.031    21.168     6.559
     6   6 C        3.804    -0.073    21.900     6.662
     7   6 C        3.806    -0.074    21.914     6.664
     8   6 C        3.804    -0.072    21.882     6.660
     9   6 C        3.760    -0.031    21.173     6.560
    10   6 C        3.761    -0.024    21.054     6.541
    11   6 C        1.893     0.106    28.491     8.621
    12   7 N        0.911    -0.141    24.065     7.095
    13   1 H        0.924     0.118     1.633     1.999
    14   1 H        0.924     0.122     1.600     1.978
    15   1 H        0.924     0.089     1.890     2.150
    16   1 H        0.924     0.086     1.918     2.166
    17   1 H        0.924     0.087     1.904     2.158
    18   1 H        0.924     0.061     2.182     2.310
    19   1 H        0.925     0.079     1.992     2.207
    20   1 H        0.924     0.062     2.172     2.305
    21   1 H        0.924     0.062     2.176     2.307
    22   1 H        0.924     0.087     1.906     2.159
    23   1 H        0.924     0.086     1.914     2.164
    24   1 H        0.924     0.088     1.901     2.156
    25   1 H        0.924     0.119     1.621     1.991
    26   1 H        0.924     0.128     1.549     1.947

Wiberg/Mayer (AO) data.
largest (>0.10) Wiberg bond orders for each atom

     #   Z sym  total        # sym  WBO       # sym  WBO       # sym  WBO
 ---------------------------------------------------------------------------
     1   6 C    3.957 --     2 N    2.891     3 C    1.032
     2   7 N    3.038 --     1 C    2.891
     3   6 C    3.945 --     1 C    1.032    13 H    0.938     4 N    0.935
                            14 H    0.935
     4   7 N    3.805 --     3 C    0.935    10 C    0.934     5 C    0.921
                             9 C    0.921
     5   6 C    3.924 --     6 C    1.008    16 H    0.965    15 H    0.965
                             4 N    0.921
     6   6 C    3.983 --     7 C    1.008     5 C    1.008    18 H    0.969
                            17 H    0.962
     7   6 C    3.989 --     8 C    1.008     6 C    1.008    20 H    0.974
                            19 H    0.971
     8   6 C    3.982 --     7 C    1.008     9 C    1.007    21 H    0.970
                            22 H    0.962
     9   6 C    3.924 --     8 C    1.007    24 H    0.966    23 H    0.965
                             4 N    0.921
    10   6 C    3.943 --    11 C    1.034    25 H    0.935     4 N    0.934
                            26 H    0.928
    11   6 C    3.957 --    12 N    2.888    10 C    1.034
    12   7 N    3.037 --    11 C    2.888
    13   1 H    0.986 --     3 C    0.938
    14   1 H    0.985 --     3 C    0.935
    15   1 H    0.991 --     5 C    0.965
    16   1 H    0.993 --     5 C    0.965
    17   1 H    0.992 --     6 C    0.962
    18   1 H    0.996 --     6 C    0.969
    19   1 H    0.993 --     7 C    0.971
    20   1 H    0.996 --     7 C    0.974
    21   1 H    0.996 --     8 C    0.970
    22   1 H    0.992 --     8 C    0.962
    23   1 H    0.993 --     9 C    0.965
    24   1 H    0.992 --     9 C    0.966
    25   1 H    0.986 --    10 C    0.935
    26   1 H    0.984 --    10 C    0.928
 ---------------------------------------------------------------------------

molecular dipole:
                 x           y           z       tot (Debye)
 q only:        6.599       2.492      -2.718
   full:        6.830       2.796      -2.608      19.895

           -------------------------------------------------
          | TOTAL ENERGY              -34.682838968245 Eh   |
          | GRADIENT NORM               0.000309052482 Eh/α |
          | HOMO-LUMO GAP               5.193586069644 eV   |
           -------------------------------------------------

 * finished run on 2024/12/20 at 02:03:52.479
