   * xtb version 6.7.1 (edcfbbe) compiled by 'conda@3ef47c1a292c' on 2024-11-25

   ID    Z sym.   atoms
    1    6 C      1, 2, 4-10
    2    7 N      3
    3    8 O      11
    4    1 H      12-31

          program call               : xtb C0040.xyz --opt --namespace C0040 --charge +1
          :  Hamiltonian                  GFN2-xTB          :
 * total energy  :   -36.0617096 Eh     change       -0.7089795E-10 Eh
 * total energy  :   -36.0695984 Eh     change       -0.7888837E-02 Eh
 * total energy  :   -36.0717038 Eh     change       -0.2105444E-02 Eh
 * total energy  :   -36.0718292 Eh     change       -0.1253961E-03 Eh
 * total energy  :   -36.0719080 Eh     change       -0.7872554E-04 Eh
 * total energy  :   -36.0719463 Eh     change       -0.3833361E-04 Eh
 * total energy  :   -36.0719848 Eh     change       -0.3854449E-04 Eh
 * total energy  :   -36.0720061 Eh     change       -0.2130285E-04 Eh
 * total energy  :   -36.0720137 Eh     change       -0.7576225E-05 Eh
 * total energy  :   -36.0720178 Eh     change       -0.4119228E-05 Eh
   *** GEOMETRY OPTIMIZATION CONVERGED AFTER 10 ITERATIONS ***

 final structure:
================
31
 xtb: 6.7.1 (edcfbbe)
C            0.63445736550362       -0.13637469271381        0.16610109953864
C            0.03188565415148        1.14476989673520        0.72194968470513
N            0.24733083056941       -0.53159598335988       -1.23826742931158
C            0.30124704631744       -2.02644333870882       -1.30053034837139
C           -0.16878785048404       -2.61648247722828       -2.62512780861112
C           -1.59709802481558       -2.16996963494877       -2.91951475285039
C           -1.67867249122859       -0.64809879786587       -2.87233271663224
C           -1.14804564148715       -0.11222659172107       -1.54541254799322
C            1.22508030380428        0.00514795765071       -2.22884094684577
C            1.48414183380960        1.51250674116386       -2.22904781173408
O            2.31563169411018        1.83625614441168       -1.14169788495672
H            0.34487267443433       -0.95330613639002        0.82872374415105
H            1.72025847593124       -0.04390919092477        0.18277709509454
H            0.29142631687130        2.01705776842429        0.13421955446216
H           -1.04639781405365        1.08737982655057        0.83796298977574
H            0.45972307317436        1.28880792149662        1.71132936600676
H           -0.35474780315954       -2.40743909971163       -0.51424754191375
H            1.32278431799499       -2.34102940951465       -1.07898377731615
H           -0.13013218793724       -3.70218594261215       -2.53156184872469
H            0.49500883914256       -2.34475513565978       -3.44559982334367
H           -1.90957603818346       -2.53090188689673       -3.89786078713158
H           -2.27430835297845       -2.59655367580049       -2.17753179152770
H           -1.14172165805373       -0.21367901887181       -3.71625597338151
H           -2.71773957431654       -0.32934904197516       -2.96068363555466
H           -1.19654127071781        0.97579164798161       -1.54224904944024
H           -1.77871695541968       -0.49090172062834       -0.73827793671061
H            2.18562381387032       -0.47757838966276       -2.03360433584977
H            0.88799204869373       -0.27878074489431       -3.22326064543578
H            1.98466220013349        1.73983293303186       -3.17888407118184
H            0.54834818520985        2.08761912065673       -2.20085994402844
H            2.69992098911359        2.71079095198597       -1.26182012488708

          :  Hamiltonian                  GFN2-xTB          :
         :: total energy             -36.072017841899 Eh    ::
         :: gradient norm              0.000636965574 Eh/a0 ::
         :: HOMO-LUMO gap              8.745701963943 eV    ::
         :: SCC energy               -36.529905536371 Eh    ::
         :: -> dispersion             -0.024495251253 Eh    ::
         :: repulsion energy           0.457887694472 Eh    ::

    * Orbital Energies and Occupations

         #    Occupation            Energy/Eh            Energy/eV
      -------------------------------------------------------------
         1        2.0000           -0.8519529             -23.1828
       ...           ...                  ...                  ...
        21        2.0000           -0.6429390             -17.4953
        22        2.0000           -0.6394590             -17.4006
        23        2.0000           -0.6317852             -17.1917
        24        2.0000           -0.6302916             -17.1511
        25        2.0000           -0.6181813             -16.8216
        26        2.0000           -0.6086383             -16.5619
        27        2.0000           -0.6033143             -16.4170
        28        2.0000           -0.5965828             -16.2338
        29        2.0000           -0.5857708             -15.9396
        30        2.0000           -0.5815804             -15.8256
        31        2.0000           -0.5803601             -15.7924
        32        2.0000           -0.5725455             -15.5798
        33        2.0000           -0.5557073             -15.1216 (HOMO)
        34                         -0.2343087              -6.3759 (LUMO)
        35                         -0.1678992              -4.5688
        36                         -0.1633326              -4.4445
        37                         -0.1459197              -3.9707
        38                         -0.1012095              -2.7541
        39                         -0.0712715              -1.9394
        40                         -0.0634211              -1.7258
        41                         -0.0578812              -1.5750
        42                         -0.0470020              -1.2790
        43                         -0.0307069              -0.8356
        44                         -0.0239311              -0.6512
       ...                                ...                  ...
        64                          0.1809738               4.9245
      -------------------------------------------------------------
                  HL-Gap            0.3213986 Eh            8.7457 eV

     #   Z          covCN         q      C6AA      α(0)
     1   6 C        3.753    -0.035    21.264     6.576
     2   6 C        3.751    -0.127    23.008     6.841
     3   7 N        3.618     0.109    19.372     6.537
     4   6 C        3.772    -0.034    21.209     6.562
     5   6 C        3.804    -0.074    21.906     6.663
     6   6 C        3.806    -0.072    21.873     6.658
     7   6 C        3.804    -0.073    21.893     6.661
     8   6 C        3.758    -0.033    21.215     6.567
     9   6 C        3.754    -0.038    21.317     6.584
    10   6 C        3.672     0.077    19.527     6.333
    11   8 O        1.656    -0.435    21.548     6.266
    12   1 H        0.924     0.077     2.013     2.219
    13   1 H        0.925     0.105     1.737     2.061
    14   1 H        0.925     0.075     2.033     2.230
    15   1 H        0.925     0.060     2.203     2.321
    16   1 H        0.925     0.084     1.938     2.177
    17   1 H        0.924     0.085     1.928     2.171
    18   1 H        0.924     0.079     1.987     2.204
    19   1 H        0.924     0.079     1.990     2.206
    20   1 H        0.925     0.059     2.211     2.325
    21   1 H        0.925     0.070     2.086     2.259
    22   1 H        0.924     0.058     2.223     2.332
    23   1 H        0.924     0.056     2.246     2.344
    24   1 H        0.924     0.077     2.011     2.218
    25   1 H        0.925     0.086     1.921     2.167
    26   1 H        0.924     0.086     1.918     2.166
    27   1 H        0.924     0.098     1.799     2.097
    28   1 H        0.925     0.092     1.863     2.134
    29   1 H        0.924     0.057     2.236     2.338
    30   1 H        0.923     0.043     2.410     2.428
    31   1 H        0.805     0.311     0.687     1.302

Wiberg/Mayer (AO) data.
largest (>0.10) Wiberg bond orders for each atom

     #   Z sym  total        # sym  WBO       # sym  WBO       # sym  WBO
 ---------------------------------------------------------------------------
     1   6 C    3.926 --     2 C    1.024    12 H    0.968    13 H    0.963
                             3 N    0.916
     2   6 C    3.981 --     1 C    1.024    15 H    0.983    14 H    0.977
                            16 H    0.971
     3   7 N    3.800 --     9 C    0.942     8 C    0.935     4 C    0.931
                             1 C    0.916
     4   6 C    3.935 --     5 C    1.008    18 H    0.969    17 H    0.965
                             3 N    0.931
     5   6 C    3.987 --     6 C    1.008     4 C    1.008    20 H    0.970
                            19 H    0.965
     6   6 C    3.992 --     7 C    1.009     5 C    1.008    22 H    0.975
                            21 H    0.973
     7   6 C    3.988 --     6 C    1.009     8 C    1.007    23 H    0.970
                            24 H    0.966
     8   6 C    3.936 --     7 C    1.007    26 H    0.966    25 H    0.963
                             3 N    0.935
     9   6 C    3.943 --    10 C    1.005    27 H    0.963    28 H    0.957
                             3 N    0.942
    10   6 C    3.962 --    11 O    1.008     9 C    1.005    29 H    0.964
                            30 H    0.959
    11   8 O    1.958 --    10 C    1.008    31 H    0.888
    12   1 H    0.994 --     1 C    0.968
    13   1 H    0.989 --     1 C    0.963
    14   1 H    0.994 --     2 C    0.977
    15   1 H    0.996 --     2 C    0.983
    16   1 H    0.993 --     2 C    0.971
    17   1 H    0.992 --     4 C    0.965
    18   1 H    0.994 --     4 C    0.969
    19   1 H    0.993 --     5 C    0.965
    20   1 H    0.997 --     5 C    0.970
    21   1 H    0.995 --     6 C    0.973
    22   1 H    0.997 --     6 C    0.975
    23   1 H    0.997 --     7 C    0.970
    24   1 H    0.994 --     7 C    0.966
    25   1 H    0.993 --     8 C    0.963
    26   1 H    0.993 --     8 C    0.966
    27   1 H    0.990 --     9 C    0.963
    28   1 H    0.992 --     9 C    0.957
    29   1 H    0.996 --    10 C    0.964
    30   1 H    0.998 --    10 C    0.959
    31   1 H    0.903 --    11 O    0.888
 ---------------------------------------------------------------------------

molecular dipole:
                 x           y           z       tot (Debye)
 q only:        0.220      -0.663      -2.933
   full:        0.302      -0.485      -3.023       7.819

           -------------------------------------------------
          | TOTAL ENERGY              -36.072017841899 Eh   |
          | GRADIENT NORM               0.000636965574 Eh/α |
          | HOMO-LUMO GAP               8.745701963943 eV   |
           -------------------------------------------------

 * finished run on 2024/12/20 at 02:03:39.178
