   * xtb version 6.7.1 (edcfbbe) compiled by 'conda@3ef47c1a292c' on 2024-11-25

   ID    Z sym.   atoms
    1   17 Cl     1
    2    6 C      2-4, 6-10
    3    7 N      5
    4    1 H      11-21

          program call               : xtb C0046.xyz --opt --namespace C0046 --charge +1
          :  Hamiltonian                  GFN2-xTB          :
 * total energy  :   -29.7984407 Eh     change       -0.5282310E-08 Eh
 * total energy  :   -29.8010270 Eh     change       -0.2586354E-02 Eh
 * total energy  :   -29.8016575 Eh     change       -0.6304921E-03 Eh
 * total energy  :   -29.8017711 Eh     change       -0.1135423E-03 Eh
 * total energy  :   -29.8018458 Eh     change       -0.7468276E-04 Eh
 * total energy  :   -29.8018867 Eh     change       -0.4095547E-04 Eh
 * total energy  :   -29.8019263 Eh     change       -0.3954724E-04 Eh
 * total energy  :   -29.8019636 Eh     change       -0.3732272E-04 Eh
 * total energy  :   -29.8019973 Eh     change       -0.3368080E-04 Eh
 * total energy  :   -29.8020203 Eh     change       -0.2302835E-04 Eh
 * total energy  :   -29.8020548 Eh     change       -0.3450578E-04 Eh
 * total energy  :   -29.8020941 Eh     change       -0.3928264E-04 Eh
 * total energy  :   -29.8021236 Eh     change       -0.2953938E-04 Eh
 * total energy  :   -29.8021457 Eh     change       -0.2212491E-04 Eh
 * total energy  :   -29.8021639 Eh     change       -0.1813262E-04 Eh
 * total energy  :   -29.8021758 Eh     change       -0.1187909E-04 Eh
 * total energy  :   -29.8021820 Eh     change       -0.6220959E-05 Eh
 * total energy  :   -29.8021851 Eh     change       -0.3156903E-05 Eh
   *** GEOMETRY OPTIMIZATION CONVERGED AFTER 18 ITERATIONS ***

 final structure:
================
21
 xtb: 6.7.1 (edcfbbe)
Cl           0.90369806367265       -0.06214693612854        0.28099993785988
C            2.67843977978789        0.02749673923729        0.01601759837504
C            3.35849889810704        0.84145952360086        1.10812296408885
C            3.01992184262343        0.36367416793714        2.52639185852174
N            3.45863966879866       -1.00288436359714        2.74783529569731
C            4.71310588016444       -1.24037682450947        3.14766374781922
C            5.17598533762943       -2.52812998669163        3.31881599591685
C            4.32168935847643       -3.59499773371813        3.06739849059994
C            3.02466634031518       -3.32629561629249        2.65051480662727
C            2.62075253911951       -2.01475726019582        2.49849978546355
H            3.04751494125210       -0.99766386749234       -0.02627817871320
H            2.82955412868067        0.49939864794804       -0.95370965155095
H            4.43713000093198        0.80652872220276        0.94119113931697
H            3.03827759237092        1.88089671634921        1.03602634872532
H            3.50418358269875        1.01732843981440        3.25352499458407
H            1.93831000085071        0.41491161929034        2.66109925763175
H            5.34383701201196       -0.38382183335949        3.33633372951090
H            6.18979535521605       -2.69258581967031        3.64699510218636
H            4.66027224937705       -4.61129399791392        3.19426285077760
H            2.32901811733424       -4.12408907378443        2.44436630887251
H            1.62326931058055       -1.75759126302602        2.16878761768895

          :  Hamiltonian                  GFN2-xTB          :
         :: total energy             -29.802185133772 Eh    ::
         :: gradient norm              0.000485065368 Eh/a0 ::
         :: HOMO-LUMO gap              2.064456287418 eV    ::
         :: SCC energy               -30.226348069628 Eh    ::
         :: -> dispersion             -0.017076491778 Eh    ::
         :: repulsion energy           0.424162935855 Eh    ::

    * Orbital Energies and Occupations

         #    Occupation            Energy/Eh            Energy/eV
      -------------------------------------------------------------
         1        2.0000           -1.1746023             -31.9626
       ...           ...                  ...                  ...
        15        2.0000           -0.6838308             -18.6080
        16        2.0000           -0.6742269             -18.3466
        17        2.0000           -0.6712233             -18.2649
        18        2.0000           -0.6491198             -17.6634
        19        2.0000           -0.6359579             -17.3053
        20        2.0000           -0.6292514             -17.1228
        21        2.0000           -0.6261018             -17.0371
        22        2.0000           -0.6214917             -16.9117
        23        2.0000           -0.6189748             -16.8432
        24        2.0000           -0.6099803             -16.5984
        25        2.0000           -0.6010958             -16.3567
        26        2.0000           -0.5411030             -14.7242
        27        2.0000           -0.5385200             -14.6539 (HOMO)
        28                         -0.4626526             -12.5894 (LUMO)
        29                         -0.4317025             -11.7472
        30                         -0.3112645              -8.4699
        31                         -0.2852573              -7.7622
        32                         -0.1762078              -4.7949
        33                         -0.1131266              -3.0783
        34                         -0.1052611              -2.8643
        35                         -0.1015889              -2.7644
        36                         -0.0997896              -2.7154
        37                         -0.0869925              -2.3672
        38                         -0.0683309              -1.8594
       ...                                ...                  ...
        56                          0.4447652              12.1027
      -------------------------------------------------------------
                  HL-Gap            0.0758674 Eh            2.0645 eV

     #   Z          covCN         q      C6AA      α(0)
     1  17 Cl       0.910    -0.188   105.050    15.680
     2   6 C        3.712     0.012    20.503     6.470
     3   6 C        3.824    -0.077    21.948     6.667
     4   6 C        3.760    -0.048    21.475     6.606
     5   7 N        2.750     0.121    19.177     6.504
     6   6 C        2.892     0.030    27.336     8.572
     7   6 C        2.915    -0.010    28.267     8.718
     8   6 C        2.925     0.014    27.699     8.631
     9   6 C        2.916    -0.009    28.246     8.715
    10   6 C        2.891     0.029    27.358     8.576
    11   1 H        0.925     0.068     2.104     2.268
    12   1 H        0.925     0.095     1.832     2.117
    13   1 H        0.924     0.076     2.026     2.226
    14   1 H        0.925     0.102     1.765     2.078
    15   1 H        0.924     0.101     1.778     2.085
    16   1 H        0.924     0.118     1.632     1.998
    17   1 H        0.926     0.109     1.703     2.041
    18   1 H        0.926     0.109     1.703     2.041
    19   1 H        0.926     0.109     1.708     2.043
    20   1 H        0.926     0.111     1.690     2.033
    21   1 H        0.925     0.129     1.541     1.941

Wiberg/Mayer (AO) data.
largest (>0.10) Wiberg bond orders for each atom

     #   Z sym  total        # sym  WBO       # sym  WBO       # sym  WBO
 ---------------------------------------------------------------------------
     1  17 Cl   1.015 --     2 C    0.955
     2   6 C    3.941 --     3 C    1.019    11 H    0.976    12 H    0.972
                             1 Cl   0.955
     3   6 C    3.984 --     2 C    1.019     4 C    0.982    13 H    0.965
                            14 H    0.962
     4   6 C    3.934 --     3 C    0.982     5 N    0.966    15 H    0.961
                            16 H    0.955
     5   7 N    3.772 --    10 C    1.330     6 C    1.326     4 C    0.966
     6   6 C    3.959 --     7 C    1.467     5 N    1.326    17 H    0.954
     7   6 C    3.981 --     6 C    1.467     8 C    1.418    18 H    0.959
     8   6 C    3.969 --     9 C    1.426     7 C    1.418    19 H    0.961
     9   6 C    3.980 --    10 C    1.457     8 C    1.426    20 H    0.958
    10   6 C    3.951 --     9 C    1.457     5 N    1.330    21 H    0.945
    11   1 H    0.995 --     2 C    0.976
    12   1 H    0.990 --     2 C    0.972
    13   1 H    0.994 --     3 C    0.965
    14   1 H    0.988 --     3 C    0.962
    15   1 H    0.990 --     4 C    0.961
    16   1 H    0.986 --     4 C    0.955
    17   1 H    0.988 --     6 C    0.954
    18   1 H    0.988 --     7 C    0.959
    19   1 H    0.988 --     8 C    0.961
    20   1 H    0.987 --     9 C    0.958
    21   1 H    0.983 --    10 C    0.945
 ---------------------------------------------------------------------------

molecular dipole:
                 x           y           z       tot (Debye)
 q only:        7.582      -2.680       4.935
   full:        7.327      -2.609       4.667      23.055

           -------------------------------------------------
          | TOTAL ENERGY              -29.802185133772 Eh   |
          | GRADIENT NORM               0.000485065368 Eh/α |
          | HOMO-LUMO GAP               2.064456287418 eV   |
           -------------------------------------------------

 * finished run on 2024/12/20 at 02:03:52.890
