   * xtb version 6.7.1 (edcfbbe) compiled by 'conda@3ef47c1a292c' on 2024-11-25

   ID    Z sym.   atoms
    1    6 C      1, 3, 4, 6-10
    2    8 O      2
    3    7 N      5
    4    1 H      11-28

          program call               : xtb C0043.xyz --opt --namespace C0043 --charge +1
          :  Hamiltonian                  GFN2-xTB          :
 * total energy  :   -32.8969984 Eh     change       -0.2194867E-10 Eh
 * total energy  :   -32.9025735 Eh     change       -0.5575069E-02 Eh
 * total energy  :   -32.9039171 Eh     change       -0.1343642E-02 Eh
 * total energy  :   -32.9039828 Eh     change       -0.6563695E-04 Eh
 * total energy  :   -32.9040314 Eh     change       -0.4859797E-04 Eh
 * total energy  :   -32.9040457 Eh     change       -0.1427784E-04 Eh
 * total energy  :   -32.9040673 Eh     change       -0.2166568E-04 Eh
 * total energy  :   -32.9040757 Eh     change       -0.8339795E-05 Eh
 * total energy  :   -32.9040836 Eh     change       -0.7960340E-05 Eh
 * total energy  :   -32.9040895 Eh     change       -0.5834467E-05 Eh
 * total energy  :   -32.9040969 Eh     change       -0.7442659E-05 Eh
 * total energy  :   -32.9041071 Eh     change       -0.1019299E-04 Eh
 * total energy  :   -32.9041135 Eh     change       -0.6397188E-05 Eh
 * total energy  :   -32.9041190 Eh     change       -0.5535492E-05 Eh
 * total energy  :   -32.9041247 Eh     change       -0.5714071E-05 Eh
 * total energy  :   -32.9041287 Eh     change       -0.3945950E-05 Eh
   *** GEOMETRY OPTIMIZATION CONVERGED AFTER 16 ITERATIONS ***

 final structure:
================
28
 xtb: 6.7.1 (edcfbbe)
C            0.38374751793842        1.39941456664695       -0.40331756066231
O            0.36165625671165        0.19769523475835        0.34268809013018
C            1.03008228998419        0.29490753330633        1.57640870110556
C            0.76051116768108       -0.95198482934011        2.42354135209857
N            1.01698625246970       -2.25377728997555        1.74811873718408
C            2.32621750620443       -2.23933475617931        1.07362342530610
C           -0.06599720506524       -2.59317890576551        0.75610394495270
C           -0.79982203064865       -3.80888456865682        1.31062174619467
C            0.29547903809427       -4.52371194216704        2.09365281274561
C            0.98852133427428       -3.35206807801902        2.77152667815056
H           -0.13689568534783        1.18869077538094       -1.33345462847053
H            1.40994981669736        1.71014425792144       -0.61759819251618
H           -0.12988980824102        2.20170684888331        0.13241756582486
H            2.10854397526063        0.44494156975811        1.41722125893735
H            0.66188398304313        1.15999825572126        2.14807150796706
H            1.39413642514313       -0.89310374587198        3.31136295146057
H           -0.28599415054486       -0.95089500707676        2.73443293142452
H            2.29475064380227       -1.56161510601627        0.22333406154936
H            3.10268432937813       -1.91575841975235        1.76537179818689
H            2.56402425328144       -3.23989610038743        0.71757481509403
H            0.40227637759865       -2.83719522455535       -0.19582064356836
H           -0.70700101342351       -1.72915357855193        0.60057038451074
H           -1.60974540253879       -3.51288529369227        1.97696940599071
H           -1.21938255900629       -4.41884747386248        0.51539801978458
H           -0.09473548029080       -5.23402812362786        2.81743395597151
H            0.97052549420518       -5.05433454964264        1.42251230581376
H            0.39076818516247       -3.02375379579716        3.62281326699676
H            1.99740848817581       -3.57338225343873        3.11520130783688

          :  Hamiltonian                  GFN2-xTB          :
         :: total energy             -32.904128689720 Eh    ::
         :: gradient norm              0.000839450797 Eh/a0 ::
         :: HOMO-LUMO gap              8.246258923066 eV    ::
         :: SCC energy               -33.309319520692 Eh    ::
         :: -> dispersion             -0.019714842931 Eh    ::
         :: repulsion energy           0.405190830973 Eh    ::

    * Orbital Energies and Occupations

         #    Occupation            Energy/Eh            Energy/eV
      -------------------------------------------------------------
         1        2.0000           -0.8605844             -23.4177
       ...           ...                  ...                  ...
        18        2.0000           -0.6617057             -18.0059
        19        2.0000           -0.6582410             -17.9116
        20        2.0000           -0.6433878             -17.5075
        21        2.0000           -0.6408354             -17.4380
        22        2.0000           -0.6380460             -17.3621
        23        2.0000           -0.6190115             -16.8442
        24        2.0000           -0.6125174             -16.6674
        25        2.0000           -0.6096513             -16.5895
        26        2.0000           -0.6072846             -16.5251
        27        2.0000           -0.6043489             -16.4452
        28        2.0000           -0.5857925             -15.9402
        29        2.0000           -0.5801172             -15.7858
        30        2.0000           -0.5371131             -14.6156 (HOMO)
        31                         -0.2340686              -6.3693 (LUMO)
        32                         -0.1856338              -5.0514
        33                         -0.1648969              -4.4871
        34                         -0.1487484              -4.0476
        35                         -0.1190034              -3.2382
        36                         -0.0596875              -1.6242
        37                         -0.0575904              -1.5671
        38                         -0.0445749              -1.2129
        39                         -0.0385709              -1.0496
        40                         -0.0284537              -0.7743
        41                         -0.0152133              -0.4140
       ...                                ...                  ...
        58                          0.1667058               4.5363
      -------------------------------------------------------------
                  HL-Gap            0.3030444 Eh            8.2463 eV

     #   Z          covCN         q      C6AA      α(0)
     1   6 C        3.651     0.026    20.450     6.495
     2   8 O        1.700    -0.320    19.347     5.939
     3   6 C        3.700     0.071    19.538     6.321
     4   6 C        3.754    -0.038    21.315     6.583
     5   7 N        3.627     0.120    19.181     6.505
     6   6 C        3.711    -0.091    22.377     6.760
     7   6 C        3.782    -0.044    21.380     6.587
     8   6 C        3.833    -0.074    21.889     6.656
     9   6 C        3.828    -0.072    21.850     6.651
    10   6 C        3.796    -0.037    21.248     6.564
    11   1 H        0.925     0.079     1.993     2.207
    12   1 H        0.924     0.045     2.385     2.415
    13   1 H        0.924     0.050     2.324     2.384
    14   1 H        0.923     0.047     2.360     2.403
    15   1 H        0.923     0.063     2.166     2.301
    16   1 H        0.924     0.086     1.916     2.165
    17   1 H        0.924     0.097     1.808     2.103
    18   1 H        0.925     0.108     1.716     2.049
    19   1 H        0.925     0.091     1.870     2.139
    20   1 H        0.925     0.099     1.793     2.094
    21   1 H        0.925     0.095     1.830     2.115
    22   1 H        0.925     0.114     1.662     2.016
    23   1 H        0.925     0.069     2.099     2.265
    24   1 H        0.925     0.085     1.926     2.170
    25   1 H        0.925     0.086     1.920     2.167
    26   1 H        0.925     0.068     2.102     2.267
    27   1 H        0.924     0.088     1.898     2.154
    28   1 H        0.925     0.089     1.889     2.149

Wiberg/Mayer (AO) data.
largest (>0.10) Wiberg bond orders for each atom

     #   Z sym  total        # sym  WBO       # sym  WBO       # sym  WBO
 ---------------------------------------------------------------------------
     1   6 C    3.933 --    12 H    0.979    13 H    0.978    11 H    0.977
                             2 O    0.975
     2   8 O    2.066 --     3 C    0.996     1 C    0.975
     3   6 C    3.959 --     4 C    1.001     2 O    0.996    14 H    0.963
                            15 H    0.958
     4   6 C    3.944 --     3 C    1.001    16 H    0.968    17 H    0.966
                             5 N    0.946
     5   7 N    3.805 --     6 C    0.964     4 C    0.946    10 C    0.926
                             7 C    0.918
     6   6 C    3.929 --    19 H    0.976    20 H    0.974    18 H    0.971
                             5 N    0.964
     7   6 C    3.921 --     8 C    1.009    21 H    0.969    22 H    0.961
                             5 N    0.918
     8   6 C    3.987 --     7 C    1.009     9 C    1.004    23 H    0.975
                            24 H    0.970
     9   6 C    3.986 --    10 C    1.010     8 C    1.004    26 H    0.974
                            25 H    0.968
    10   6 C    3.933 --     9 C    1.010    28 H    0.969    27 H    0.969
                             5 N    0.926
    11   1 H    0.993 --     1 C    0.977
    12   1 H    0.998 --     1 C    0.979
    13   1 H    0.998 --     1 C    0.978
    14   1 H    0.998 --     3 C    0.963
    15   1 H    0.996 --     3 C    0.958
    16   1 H    0.992 --     4 C    0.968
    17   1 H    0.991 --     4 C    0.966
    18   1 H    0.988 --     6 C    0.971
    19   1 H    0.992 --     6 C    0.976
    20   1 H    0.990 --     6 C    0.974
    21   1 H    0.991 --     7 C    0.969
    22   1 H    0.987 --     7 C    0.961
    23   1 H    0.995 --     8 C    0.975
    24   1 H    0.993 --     8 C    0.970
    25   1 H    0.992 --     9 C    0.968
    26   1 H    0.995 --     9 C    0.974
    27   1 H    0.992 --    10 C    0.969
    28   1 H    0.992 --    10 C    0.969
 ---------------------------------------------------------------------------

molecular dipole:
                 x           y           z       tot (Debye)
 q only:        1.755      -3.998       3.168
   full:        1.928      -3.751       3.297      13.607

           -------------------------------------------------
          | TOTAL ENERGY              -32.904128689720 Eh   |
          | GRADIENT NORM               0.000839450797 Eh/α |
          | HOMO-LUMO GAP               8.246258923066 eV   |
           -------------------------------------------------

 * finished run on 2024/12/20 at 02:03:50.223
