   * xtb version 6.7.1 (edcfbbe) compiled by 'conda@3ef47c1a292c' on 2024-11-25

   ID    Z sym.   atoms
    1    6 C      1, 3, 5-8, 12-17
    2    7 N      2, 4, 9-11
    3    1 H      18-37

          program call               : xtb C0047.xyz --opt --namespace C0047 --charge +1
          :  Hamiltonian                  GFN2-xTB          :
 * total energy  :   -50.1449710 Eh     change       -0.4729230E-09 Eh
 * total energy  :   -50.1520694 Eh     change       -0.7098471E-02 Eh
 * total energy  :   -50.1533591 Eh     change       -0.1289703E-02 Eh
 * total energy  :   -50.1535583 Eh     change       -0.1991667E-03 Eh
 * total energy  :   -50.1537805 Eh     change       -0.2221550E-03 Eh
 * total energy  :   -50.1538853 Eh     change       -0.1048216E-03 Eh
 * total energy  :   -50.1540325 Eh     change       -0.1472604E-03 Eh
 * total energy  :   -50.1542291 Eh     change       -0.1965650E-03 Eh
 * total energy  :   -50.1544193 Eh     change       -0.1901431E-03 Eh
 * total energy  :   -50.1545834 Eh     change       -0.1641682E-03 Eh
 * total energy  :   -50.1594506 Eh     change       -0.4897479E-04 Eh
 * total energy  :   -50.1594873 Eh     change       -0.3675920E-04 Eh
 * total energy  :   -50.1595002 Eh     change       -0.1284547E-04 Eh
 * total energy  :   -50.1595394 Eh     change       -0.3921423E-04 Eh
 * total energy  :   -50.1595564 Eh     change       -0.1702884E-04 Eh
 * total energy  :   -50.1595683 Eh     change       -0.1186659E-04 Eh
 * total energy  :   -50.1595770 Eh     change       -0.8707762E-05 Eh
 * total energy  :   -50.1595900 Eh     change       -0.1296405E-04 Eh
 * total energy  :   -50.1595933 Eh     change       -0.3362050E-05 Eh
   *** GEOMETRY OPTIMIZATION CONVERGED AFTER 72 ITERATIONS ***

 final structure:
================
37
 xtb: 6.7.1 (edcfbbe)
C           -0.10458448932999       -0.18742730466627       -0.37746625269405
N            0.07859282225663       -1.60092608931263       -0.18015063728141
C            1.25501905738802       -2.22907556663381       -0.07529682006510
N            1.01682001473112       -3.53694749442884        0.07811573156038
C           -0.33317243007824       -3.73937815563536        0.06215637500323
C           -0.92105866237324       -2.52630449609253       -0.09329776018687
C            2.01215428711736       -4.58283171373192        0.09580667380882
C            2.61152024251937       -4.73168306804166       -1.27074098290162
N            2.49313265710678       -3.75742498245250       -2.19916768757929
N            3.09636466912785       -4.12722776777023       -3.26747329047145
N            3.61912813316562       -5.32076695624698       -3.07920054824906
C            3.34138556783950       -5.75906195660120       -1.83351165485057
C            4.33717578209185       -6.00026340501416       -4.12325052568007
C            3.55305488078679       -7.20083828398754       -4.66153335674598
C            2.16614106224402       -6.83348938051258       -5.19247432639477
C            2.21061556720618       -5.84549539579043       -6.35240936363646
C            2.57392253075781       -1.57546444393121       -0.13421321703718
H           -1.16405594935306        0.02120186980853       -0.50488635271383
H            0.43166377550785        0.14126126503561       -1.26789484133842
H            0.26138955041674        0.37263294096186        0.48443962556918
H           -0.76995630598285       -4.71127701356744        0.16303724258150
H           -1.95683264566548       -2.26247471693312       -0.14977214219062
H            2.79092490192024       -4.33748916670836        0.82687498781764
H            1.53537978754576       -5.51565646498110        0.40504913630178
H            3.66634359851762       -6.70330439310124       -1.45343492244085
H            4.50404359430811       -5.26616444307946       -4.91231842788324
H            5.30275192608892       -6.33153971298627       -3.73069117217448
H            4.14222922054961       -7.64541053886208       -5.46433444943337
H            3.44918168385383       -7.94856414801742       -3.87157231478541
H            1.68046791375168       -7.75357628444100       -5.52189856408340
H            1.55814443966764       -6.41612965679210       -4.38541934480616
H            2.89519866635633       -6.19246159805357       -7.12259755488752
H            1.22300480204602       -5.74909020767083       -6.79494803356864
H            2.52484070336523       -4.85998236187120       -6.01819995502562
H            3.30802447052347       -2.12793994417138        0.44646248578470
H            2.91930444730938       -1.55545237755978       -1.16955937267327
H            2.51960972668246       -0.55590658613500        0.23804161331663

          :  Hamiltonian                  GFN2-xTB          :
         :: total energy             -50.159593331220 Eh    ::
         :: gradient norm              0.000514964584 Eh/a0 ::
         :: HOMO-LUMO gap              3.219606893689 eV    ::
         :: SCC energy               -50.872162421552 Eh    ::
         :: -> dispersion             -0.032744602323 Eh    ::
         :: repulsion energy           0.712569090333 Eh    ::

    * Orbital Energies and Occupations

         #    Occupation            Energy/Eh            Energy/eV
      -------------------------------------------------------------
         1        2.0000           -0.8738376             -23.7783
       ...           ...                  ...                  ...
        34        2.0000           -0.6017384             -16.3741
        35        2.0000           -0.5855014             -15.9323
        36        2.0000           -0.5759204             -15.6716
        37        2.0000           -0.5677962             -15.4505
        38        2.0000           -0.5577832             -15.1781
        39        2.0000           -0.5554207             -15.1138
        40        2.0000           -0.5421329             -14.7522
        41        2.0000           -0.5286568             -14.3855
        42        2.0000           -0.5263608             -14.3230
        43        2.0000           -0.5254617             -14.2985
        44        2.0000           -0.5193774             -14.1330
        45        2.0000           -0.5133609             -13.9693
        46        2.0000           -0.4988295             -13.5738 (HOMO)
        47                         -0.3805111             -10.3542 (LUMO)
        48                         -0.3498418              -9.5197
        49                         -0.3442695              -9.3680
        50                         -0.3039690              -8.2714
        51                         -0.1717932              -4.6747
        52                         -0.1190586              -3.2397
        53                         -0.1032122              -2.8085
        54                         -0.0486677              -1.3243
        55                         -0.0418914              -1.1399
        56                         -0.0373966              -1.0176
        57                         -0.0289984              -0.7891
       ...                                ...                  ...
        88                          0.4973502              13.5336
      -------------------------------------------------------------
                  HL-Gap            0.1183184 Eh            3.2196 eV

     #   Z          covCN         q      C6AA      α(0)
     1   6 C        3.692    -0.081    22.247     6.749
     2   7 N        2.874     0.052    20.330     6.697
     3   6 C        3.103     0.116    25.330     8.247
     4   7 N        2.878     0.050    20.366     6.703
     5   6 C        3.051    -0.010    28.209     8.711
     6   6 C        3.050    -0.011    28.243     8.716
     7   6 C        3.745    -0.018    20.958     6.531
     8   6 C        3.123     0.042    26.873     8.489
     9   7 N        2.067    -0.211    26.309     7.609
    10   7 N        2.185    -0.112    23.909     7.256
    11   7 N        3.022     0.109    19.357     6.534
    12   6 C        2.981    -0.028    28.688     8.786
    13   6 C        3.742    -0.023    21.059     6.547
    14   6 C        3.802    -0.065    21.754     6.640
    15   6 C        3.800    -0.054    21.542     6.608
    16   6 C        3.752    -0.113    22.715     6.797
    17   6 C        3.755    -0.140    23.247     6.875
    18   1 H        0.925     0.102     1.770     2.081
    19   1 H        0.925     0.101     1.772     2.082
    20   1 H        0.924     0.094     1.838     2.120
    21   1 H        0.927     0.099     1.797     2.096
    22   1 H        0.926     0.101     1.771     2.081
    23   1 H        0.924     0.081     1.964     2.192
    24   1 H        0.924     0.085     1.929     2.172
    25   1 H        0.927     0.054     2.269     2.356
    26   1 H        0.924     0.092     1.863     2.135
    27   1 H        0.924     0.065     2.142     2.289
    28   1 H        0.924     0.062     2.181     2.310
    29   1 H        0.924     0.042     2.417     2.431
    30   1 H        0.924     0.045     2.380     2.413
    31   1 H        0.924     0.026     2.645     2.543
    32   1 H        0.925     0.044     2.391     2.418
    33   1 H        0.925     0.045     2.379     2.412
    34   1 H        0.925     0.044     2.393     2.419
    35   1 H        0.925     0.092     1.858     2.132
    36   1 H        0.924     0.126     1.563     1.955
    37   1 H        0.925     0.094     1.843     2.123

Wiberg/Mayer (AO) data.
largest (>0.10) Wiberg bond orders for each atom

     #   Z sym  total        # sym  WBO       # sym  WBO       # sym  WBO
 ---------------------------------------------------------------------------
     1   6 C    3.938 --     2 N    0.991    18 H    0.975    19 H    0.966
                            20 H    0.964
     2   7 N    3.697 --     3 C    1.327     6 C    1.207     1 C    0.991
     3   6 C    3.951 --     2 N    1.327     4 N    1.324    17 C    1.051
     4   7 N    3.694 --     3 C    1.324     5 C    1.207     7 C    0.977
     5   6 C    3.949 --     6 C    1.610     4 N    1.207    21 H    0.962
     6   6 C    3.948 --     5 C    1.610     2 N    1.207    22 H    0.962
     7   6 C    3.949 --     8 C    0.989     4 N    0.977    24 H    0.962
                            23 H    0.948
     8   6 C    3.970 --    12 C    1.475     9 N    1.349     7 C    0.989
     9   7 N    3.032 --    10 N    1.464     8 C    1.349    11 N    0.118
    10   7 N    3.010 --     9 N    1.464    11 N    1.274    12 C    0.134
    11   7 N    3.729 --    12 C    1.289    10 N    1.274    13 C    0.978
                             9 N    0.118
    12   6 C    3.960 --     8 C    1.475    11 N    1.289    25 H    0.968
                            10 N    0.134
    13   6 C    3.953 --    14 C    0.988    11 N    0.978    26 H    0.964
                            27 H    0.963
    14   6 C    3.990 --    15 C    1.008    13 C    0.988    29 H    0.976
                            28 H    0.971
    15   6 C    3.996 --    16 C    1.020    14 C    1.008    31 H    0.978
                            30 H    0.976
    16   6 C    3.994 --    15 C    1.020    32 H    0.987    33 H    0.986
                            34 H    0.985
    17   6 C    3.975 --     3 C    1.051    37 H    0.966    35 H    0.964
                            36 H    0.930
    18   1 H    0.989 --     1 C    0.975
    19   1 H    0.990 --     1 C    0.966
    20   1 H    0.991 --     1 C    0.964
    21   1 H    0.990 --     5 C    0.962
    22   1 H    0.989 --     6 C    0.962
    23   1 H    0.993 --     7 C    0.948
    24   1 H    0.992 --     7 C    0.962
    25   1 H    0.997 --    12 C    0.968
    26   1 H    0.991 --    13 C    0.964
    27   1 H    0.996 --    13 C    0.963
    28   1 H    0.995 --    14 C    0.971
    29   1 H    0.998 --    14 C    0.976
    30   1 H    0.998 --    15 C    0.976
    31   1 H    0.999 --    15 C    0.978
    32   1 H    0.998 --    16 C    0.987
    33   1 H    0.998 --    16 C    0.986
    34   1 H    0.998 --    16 C    0.985
    35   1 H    0.991 --    17 C    0.964
    36   1 H    0.984 --    17 C    0.930
    37   1 H    0.991 --    17 C    0.966
 ---------------------------------------------------------------------------

molecular dipole:
                 x           y           z       tot (Debye)
 q only:        2.611      -5.878      -1.364
   full:        2.760      -6.473      -0.960      18.053

           -------------------------------------------------
          | TOTAL ENERGY              -50.159593331220 Eh   |
          | GRADIENT NORM               0.000514964584 Eh/α |
          | HOMO-LUMO GAP               3.219606893689 eV   |
           -------------------------------------------------

 * finished run on 2024/12/20 at 02:03:54.762
