   * xtb version 6.7.1 (edcfbbe) compiled by 'conda@3ef47c1a292c' on 2024-11-25

   ID    Z sym.   atoms
    1    6 C      1, 3, 5-13, 15, 16, 18, 19, 21
    2    8 O      2, 4, 20
    3    7 N      14, 17
    4    1 H      22-38

          program call               : xtb C0056.xyz --opt --namespace C0056 --charge +1
          :  Hamiltonian                  GFN2-xTB          :
 * total energy  :   -60.5568949 Eh     change       -0.1963834E-08 Eh
 * total energy  :   -60.5667235 Eh     change       -0.9828599E-02 Eh
 * total energy  :   -60.5694734 Eh     change       -0.2749845E-02 Eh
 * total energy  :   -60.5700785 Eh     change       -0.6051768E-03 Eh
 * total energy  :   -60.5705490 Eh     change       -0.4704516E-03 Eh
 * total energy  :   -60.5707707 Eh     change       -0.2216981E-03 Eh
 * total energy  :   -60.5710091 Eh     change       -0.2384140E-03 Eh
 * total energy  :   -60.5712454 Eh     change       -0.2362551E-03 Eh
 * total energy  :   -60.5714748 Eh     change       -0.2294608E-03 Eh
 * total energy  :   -60.5716285 Eh     change       -0.1537036E-03 Eh
 * total energy  :   -60.5732567 Eh     change       -0.1031793E-04 Eh
 * total energy  :   -60.5732627 Eh     change       -0.5940184E-05 Eh
 * total energy  :   -60.5732688 Eh     change       -0.6141420E-05 Eh
 * total energy  :   -60.5732786 Eh     change       -0.9768375E-05 Eh
 * total energy  :   -60.5732869 Eh     change       -0.8351956E-05 Eh
 * total energy  :   -60.5732953 Eh     change       -0.8316942E-05 Eh
 * total energy  :   -60.5732965 Eh     change       -0.1229593E-05 Eh
 * total energy  :   -60.5733025 Eh     change       -0.6057302E-05 Eh
 * total energy  :   -60.5733057 Eh     change       -0.3175557E-05 Eh
   *** GEOMETRY OPTIMIZATION CONVERGED AFTER 68 ITERATIONS ***

 final structure:
================
38
 xtb: 6.7.1 (edcfbbe)
C            1.00217003985723       -0.40279893203685        0.15819123842189
O            0.53818390798664       -0.66500255595027        1.47710894550126
C            1.48875546488778       -0.81621688871037        2.40741517337591
O            2.66930203271493       -0.73177209470467        2.18018704067186
C            0.94473141311915       -1.09788864390824        3.75360953482147
C           -0.36040527001244       -1.19952514478501        4.02155110881794
C           -0.95039411215421       -1.48782596777167        5.31799332030762
C           -2.33241975902552       -1.67665793964622        5.40456798475011
C           -2.93975879605375       -1.96515768199061        6.61094647644270
C           -2.17760834340156       -2.07892642520891        7.76592924920391
C           -0.80236010690399       -1.88135675004336        7.69577949448162
C           -0.19674014355743       -1.59180944142587        6.49102675866375
C           -2.82539943288786       -2.38756383302866        9.09737916406528
N           -2.83568551258115       -1.19381590115917        9.91896307071609
C           -3.58376141645053       -0.07713298559819        9.66443489367062
C           -3.26657969947286        0.85180091516876       10.60258159230296
N           -2.31998412429014        0.29207737155356       11.41985133297736
C           -2.07988678931061       -0.95124182093387       10.97214475543551
C           -1.63392923368189        0.85279546004268       12.58582520233382
O           -0.83500792313141        0.16187818498758       13.12611011336842
C           -2.04699795890040        2.23379078439688       12.92524503378813
H            0.11531418679040       -0.26689935697145       -0.45465746443271
H            1.59675330659747       -1.24223629192941       -0.20700945413136
H            1.62134677398159        0.49604520747402        0.14586080268379
H            1.71383634379822       -1.22446315908518        4.50079852037043
H           -1.06161168840405       -1.07147246599293        3.20777136086979
H           -2.93415128576214       -1.60300159041209        4.51160275512964
H           -4.00810066934982       -2.12091146210915        6.64855848641578
H           -0.19935298511416       -1.96774472928419        8.58878701550866
H            0.87053988727723       -1.44731397385605        6.46097233086638
H           -3.85583075507757       -2.71865578108240        8.94922612022768
H           -2.27104342332044       -3.16467100862285        9.62733559832252
H           -4.27338306593275       -0.02561795594765        8.84620578150536
H           -3.64526913537562        1.84408851565528       10.73414154292600
H           -1.37916739316381       -1.62418732652084       11.43103022389431
H           -1.82241456666679        2.91358248472640       12.10435705950463
H           -3.11546500281248        2.27894152311393       13.12999460085185
H           -1.50183476418851        2.55570766159527       13.80936323535771

          :  Hamiltonian                  GFN2-xTB          :
         :: total energy             -60.573305725621 Eh    ::
         :: gradient norm              0.000618521500 Eh/a0 ::
         :: HOMO-LUMO gap              0.925408635590 eV    ::
         :: SCC energy               -61.460070881311 Eh    ::
         :: -> dispersion             -0.034502126939 Eh    ::
         :: repulsion energy           0.886765155690 Eh    ::

    * Orbital Energies and Occupations

         #    Occupation            Energy/Eh            Energy/eV
      -------------------------------------------------------------
         1        2.0000           -0.9070813             -24.6829
       ...           ...                  ...                  ...
        42        2.0000           -0.5950616             -16.1925
        43        2.0000           -0.5893171             -16.0361
        44        2.0000           -0.5778878             -15.7251
        45        2.0000           -0.5702566             -15.5175
        46        2.0000           -0.5579833             -15.1835
        47        2.0000           -0.5508547             -14.9895
        48        2.0000           -0.5487923             -14.9334
        49        2.0000           -0.5391203             -14.6702
        50        2.0000           -0.5312344             -14.4556
        51        2.0000           -0.5284154             -14.3789
        52        2.0000           -0.5102459             -13.8845
        53        2.0000           -0.4987152             -13.5707
        54        2.0000           -0.4844893             -13.1836 (HOMO)
        55                         -0.4504812             -12.2582 (LUMO)
        56                         -0.3952002             -10.7539
        57                         -0.3826137             -10.4114
        58                         -0.3640958              -9.9076
        59                         -0.3450275              -9.3887
        60                         -0.3185642              -8.6686
        61                         -0.2467100              -6.7133
        62                         -0.2044944              -5.5646
        63                         -0.1906416              -5.1876
        64                         -0.1398510              -3.8055
        65                         -0.0669344              -1.8214
       ...                                ...                  ...
       101                          0.6433030              17.5052
      -------------------------------------------------------------
                  HL-Gap            0.0340081 Eh            0.9254 eV

     #   Z          covCN         q      C6AA      α(0)
     1   6 C        3.658     0.030    20.357     6.475
     2   8 O        1.704    -0.260    18.305     5.777
     3   6 C        2.728     0.354    20.991     7.501
     4   8 O        0.857    -0.394    21.569     6.227
     5   6 C        2.892    -0.057    29.424     8.893
     6   6 C        2.901    -0.021    28.526     8.757
     7   6 C        2.970     0.029    27.342     8.577
     8   6 C        2.928    -0.027    28.676     8.782
     9   6 C        2.919    -0.036    28.884     8.813
    10   6 C        2.973    -0.004    28.118     8.698
    11   6 C        2.920    -0.038    28.940     8.822
    12   6 C        2.923    -0.026    28.663     8.780
    13   6 C        3.748    -0.031    21.196     6.567
    14   7 N        2.865     0.083    19.806     6.610
    15   6 C        3.073    -0.001    27.984     8.674
    16   6 C        3.049     0.003    27.911     8.665
    17   7 N        2.868     0.010    21.076     6.818
    18   6 C        3.085     0.070    26.353     8.415
    19   6 C        2.748     0.293    22.038     7.687
    20   8 O        0.858    -0.280    19.423     5.909
    21   6 C        3.754    -0.160    23.669     6.937
    22   1 H        0.925     0.074     2.045     2.236
    23   1 H        0.924     0.070     2.087     2.259
    24   1 H        0.924     0.070     2.084     2.257
    25   1 H        0.926     0.076     2.019     2.222
    26   1 H        0.925     0.075     2.030     2.228
    27   1 H        0.926     0.062     2.171     2.304
    28   1 H        0.926     0.046     2.366     2.406
    29   1 H        0.926     0.038     2.480     2.463
    30   1 H        0.926     0.063     2.169     2.303
    31   1 H        0.924     0.097     1.812     2.105
    32   1 H        0.924     0.091     1.867     2.137
    33   1 H        0.926     0.116     1.649     2.008
    34   1 H        0.927     0.114     1.665     2.018
    35   1 H        0.926     0.134     1.502     1.916
    36   1 H        0.925     0.110     1.696     2.036
    37   1 H        0.925     0.109     1.705     2.042
    38   1 H        0.925     0.120     1.615     1.987

Wiberg/Mayer (AO) data.
largest (>0.10) Wiberg bond orders for each atom

     #   Z sym  total        # sym  WBO       # sym  WBO       # sym  WBO
 ---------------------------------------------------------------------------
     1   6 C    3.918 --    22 H    0.981    24 H    0.975    23 H    0.975
                             2 O    0.954
     2   8 O    2.307 --     3 C    1.124     1 C    0.954     4 O    0.177
     3   6 C    3.926 --     4 O    1.730     2 O    1.124     5 C    1.015
     4   8 O    2.037 --     3 C    1.730     2 O    0.177
     5   6 C    3.983 --     6 C    1.803     3 C    1.015    25 H    0.958
     6   6 C    3.985 --     5 C    1.803     7 C    1.106    26 H    0.957
     7   6 C    3.987 --     8 C    1.370    12 C    1.361     6 C    1.106
     8   6 C    3.981 --     9 C    1.457     7 C    1.370    27 H    0.966
                            11 C    0.101
     9   6 C    3.989 --     8 C    1.457    10 C    1.407    28 H    0.967
                            12 C    0.101
    10   6 C    3.967 --     9 C    1.407    11 C    1.395    13 C    0.975
    11   6 C    3.991 --    12 C    1.471    10 C    1.395    29 H    0.968
                             8 C    0.101
    12   6 C    3.989 --    11 C    1.471     7 C    1.361    30 H    0.963
                             9 C    0.101
    13   6 C    3.927 --    10 C    0.975    32 H    0.962    31 H    0.955
                            14 N    0.955
    14   7 N    3.731 --    18 C    1.417    15 C    1.201    13 C    0.955
    15   6 C    3.948 --    16 C    1.626    14 N    1.201    33 H    0.959
    16   6 C    3.948 --    15 C    1.626    17 N    1.197    34 H    0.959
    17   7 N    3.683 --    18 C    1.310    16 C    1.197    19 C    0.921
    18   6 C    3.941 --    14 N    1.417    17 N    1.310    35 H    0.948
    19   6 C    3.917 --    20 O    1.897    21 C    1.034    17 N    0.921
    20   8 O    2.165 --    19 C    1.897
    21   6 C    3.976 --    19 C    1.034    38 H    0.967    37 H    0.943
                            36 H    0.940
    22   1 H    0.994 --     1 C    0.981
    23   1 H    0.995 --     1 C    0.975
    24   1 H    0.995 --     1 C    0.975
    25   1 H    0.994 --     5 C    0.958
    26   1 H    0.994 --     6 C    0.957
    27   1 H    0.995 --     8 C    0.966
    28   1 H    0.997 --     9 C    0.967
    29   1 H    0.998 --    11 C    0.968
    30   1 H    0.996 --    12 C    0.963
    31   1 H    0.989 --    13 C    0.955
    32   1 H    0.990 --    13 C    0.962
    33   1 H    0.986 --    15 C    0.959
    34   1 H    0.987 --    16 C    0.959
    35   1 H    0.982 --    18 C    0.948
    36   1 H    0.988 --    21 C    0.940
    37   1 H    0.988 --    21 C    0.943
    38   1 H    0.985 --    21 C    0.967
 ---------------------------------------------------------------------------

molecular dipole:
                 x           y           z       tot (Debye)
 q only:       -5.985      -0.179      18.470
   full:       -6.166      -0.194      18.511      49.594

           -------------------------------------------------
          | TOTAL ENERGY              -60.573305725621 Eh   |
          | GRADIENT NORM               0.000618521500 Eh/α |
          | HOMO-LUMO GAP               0.925408635590 eV   |
           -------------------------------------------------

 * finished run on 2024/12/20 at 02:04:12.824
