   * xtb version 6.7.1 (edcfbbe) compiled by 'conda@3ef47c1a292c' on 2024-11-25

   ID    Z sym.   atoms
    1    6 C      1, 3-15
    2    7 N      2
    3    1 H      16-39

          program call               : xtb C0052.xyz --opt --namespace C0052 --charge +1
          :  Hamiltonian                  GFN2-xTB          :
 * total energy  :   -44.7234054 Eh     change       -0.1232934E-08 Eh
 * total energy  :   -44.7300326 Eh     change       -0.6627115E-02 Eh
 * total energy  :   -44.7315281 Eh     change       -0.1495586E-02 Eh
 * total energy  :   -44.7316753 Eh     change       -0.1472014E-03 Eh
 * total energy  :   -44.7318793 Eh     change       -0.2039550E-03 Eh
 * total energy  :   -44.7319742 Eh     change       -0.9493905E-04 Eh
 * total energy  :   -44.7321043 Eh     change       -0.1300451E-03 Eh
 * total energy  :   -44.7322203 Eh     change       -0.1159900E-03 Eh
 * total energy  :   -44.7323218 Eh     change       -0.1015370E-03 Eh
 * total energy  :   -44.7323590 Eh     change       -0.3715461E-04 Eh
 * total energy  :   -44.7327878 Eh     change       -0.1181177E-04 Eh
 * total energy  :   -44.7327944 Eh     change       -0.6577817E-05 Eh
 * total energy  :   -44.7328044 Eh     change       -0.9952541E-05 Eh
 * total energy  :   -44.7328140 Eh     change       -0.9682183E-05 Eh
 * total energy  :   -44.7328233 Eh     change       -0.9231680E-05 Eh
 * total energy  :   -44.7328322 Eh     change       -0.8950223E-05 Eh
 * total energy  :   -44.7328398 Eh     change       -0.7601395E-05 Eh
 * total energy  :   -44.7328453 Eh     change       -0.5530176E-05 Eh
 * total energy  :   -44.7328495 Eh     change       -0.4197110E-05 Eh
   *** GEOMETRY OPTIMIZATION CONVERGED AFTER 29 ITERATIONS ***

 final structure:
================
39
 xtb: 6.7.1 (edcfbbe)
C            0.99164193665631       -0.20548975945466       -0.10561957090412
N            0.59856640358974       -0.79242523052792        1.18736773542644
C            0.78816547891634        0.18503913169362        2.31114612008130
C            0.34318674070643        1.63546352777213        2.10393934201259
C           -1.15725459908521        1.94190511020171        2.06595748398028
C           -1.95518641533829        1.44461823788574        3.27282975776910
C           -1.54336956091056        2.11327939613386        4.59162238813885
C           -1.74910068338666        3.60347638400774        4.54299862890761
C           -0.67605638596574        4.47706254322122        4.43159377862438
C           -0.88194505071668        5.84441761579619        4.36373800348834
C           -2.16726829573788        6.35491199875443        4.40538875945393
C           -3.24455210895567        5.49247753526449        4.52194920708334
C           -3.03550371792855        4.12729054072582        4.58967862930055
C           -0.79708110008846       -1.26004536528632        1.10828114056039
C            1.45905507655087       -1.96253627321066        1.45723602272501
H            0.29084764898622        0.57216089135416       -0.39980662443899
H            0.99563887601451       -0.97549294125087       -0.87540256691710
H            1.99047557530651        0.22170864190203       -0.03593766863807
H            0.28468124882467       -0.22581439087564        3.18741982969656
H            1.86023736933207        0.20915586516551        2.51967142762804
H            0.76198993960009        2.17719278653067        2.95361270704025
H            0.81334865724388        2.05669882432066        1.21533226045828
H           -1.25344149452548        3.02899828175992        2.03231585025880
H           -1.61209512201022        1.56616259713267        1.14615300402644
H           -3.00628243926006        1.67193323805057        3.08887813758167
H           -1.87529702435760        0.36022316275713        3.37972597048296
H           -2.15691569894564        1.69244515360285        5.39092165032404
H           -0.50051702274475        1.88880375056942        4.82357087812763
H            0.33451602521438        4.09071830084069        4.41386441220408
H           -0.03643630584556        6.51096282040118        4.28214601165370
H           -2.32893862255079        7.42061291182479        4.35510082778678
H           -4.24926232875224        5.88481247362930        4.56548937591684
H           -3.87942431862058        3.45985563193720        4.69170732083259
H           -0.90942107424663       -1.95557298105561        0.27803047580510
H           -1.07469843971013       -1.77169654270578        2.02789091565470
H           -1.47219420882780       -0.42316960336958        0.95569427133090
H            1.28245860657250       -2.73777930325657        0.71352653725161
H            2.50968043157514       -1.68004991589657        1.41958005249784
H            1.24221200343167       -2.37138504634462        2.44272751678487

          :  Hamiltonian                  GFN2-xTB          :
         :: total energy             -44.732849545113 Eh    ::
         :: gradient norm              0.000269671961 Eh/a0 ::
         :: HOMO-LUMO gap              4.773878254030 eV    ::
         :: SCC energy               -45.456252875119 Eh    ::
         :: -> dispersion             -0.033164884025 Eh    ::
         :: repulsion energy           0.723403330006 Eh    ::

    * Orbital Energies and Occupations

         #    Occupation            Energy/Eh            Energy/eV
      -------------------------------------------------------------
         1        2.0000           -0.8689307             -23.6448
       ...           ...                  ...                  ...
        30        2.0000           -0.5890172             -16.0280
        31        2.0000           -0.5739505             -15.6180
        32        2.0000           -0.5647412             -15.3674
        33        2.0000           -0.5607537             -15.2589
        34        2.0000           -0.5593468             -15.2206
        35        2.0000           -0.5504308             -14.9780
        36        2.0000           -0.5425904             -14.7646
        37        2.0000           -0.5392596             -14.6740
        38        2.0000           -0.5351868             -14.5632
        39        2.0000           -0.4972559             -13.5310
        40        2.0000           -0.4943339             -13.4515
        41        2.0000           -0.4774402             -12.9918
        42        2.0000           -0.4723062             -12.8521 (HOMO)
        43                         -0.2968694              -8.0782 (LUMO)
        44                         -0.2958668              -8.0509
        45                         -0.2311355              -6.2895
        46                         -0.1678217              -4.5667
        47                         -0.1621392              -4.4120
        48                         -0.1524257              -4.1477
        49                         -0.1441968              -3.9238
        50                         -0.0797648              -2.1705
        51                         -0.0639975              -1.7415
        52                         -0.0376224              -1.0238
        53                         -0.0240379              -0.6541
       ...                                ...                  ...
        84                          0.5918162              16.1041
      -------------------------------------------------------------
                  HL-Gap            0.1754368 Eh            4.7739 eV

     #   Z          covCN         q      C6AA      α(0)
     1   6 C        3.720    -0.096    22.452     6.767
     2   7 N        3.621     0.144    18.793     6.439
     3   6 C        3.757    -0.043    21.390     6.594
     4   6 C        3.799    -0.075    21.943     6.670
     5   6 C        3.799    -0.067    21.784     6.645
     6   6 C        3.802    -0.062    21.686     6.630
     7   6 C        3.807    -0.067    21.787     6.645
     8   6 C        2.970     0.007    27.859     8.658
     9   6 C        2.925    -0.041    29.021     8.834
    10   6 C        2.919    -0.030    28.741     8.791
    11   6 C        2.921    -0.029    28.716     8.788
    12   6 C        2.919    -0.027    28.681     8.782
    13   6 C        2.926    -0.038    28.943     8.823
    14   6 C        3.722    -0.097    22.473     6.770
    15   6 C        3.731    -0.098    22.473     6.767
    16   1 H        0.925     0.105     1.741     2.063
    17   1 H        0.925     0.098     1.807     2.102
    18   1 H        0.925     0.099     1.798     2.097
    19   1 H        0.924     0.091     1.872     2.139
    20   1 H        0.924     0.082     1.961     2.190
    21   1 H        0.924     0.082     1.964     2.191
    22   1 H        0.925     0.055     2.254     2.348
    23   1 H        0.924     0.065     2.144     2.290
    24   1 H        0.924     0.026     2.648     2.545
    25   1 H        0.924     0.051     2.311     2.377
    26   1 H        0.924     0.022     2.707     2.573
    27   1 H        0.924     0.048     2.343     2.394
    28   1 H        0.924     0.031     2.572     2.508
    29   1 H        0.925     0.018     2.761     2.599
    30   1 H        0.926     0.037     2.495     2.470
    31   1 H        0.926     0.041     2.432     2.439
    32   1 H        0.926     0.040     2.442     2.444
    33   1 H        0.926     0.032     2.557     2.501
    34   1 H        0.925     0.095     1.827     2.114
    35   1 H        0.925     0.096     1.826     2.113
    36   1 H        0.925     0.109     1.701     2.040
    37   1 H        0.925     0.100     1.785     2.089
    38   1 H        0.925     0.098     1.799     2.097
    39   1 H        0.925     0.099     1.797     2.096

Wiberg/Mayer (AO) data.
largest (>0.10) Wiberg bond orders for each atom

     #   Z sym  total        # sym  WBO       # sym  WBO       # sym  WBO
 ---------------------------------------------------------------------------
     1   6 C    3.928 --    18 H    0.975    17 H    0.974    16 H    0.972
                             2 N    0.959
     2   7 N    3.815 --     1 C    0.959    15 C    0.959    14 C    0.958
                             3 C    0.916
     3   6 C    3.924 --     4 C    1.006    20 H    0.968    19 H    0.964
                             2 N    0.916
     4   6 C    3.982 --     3 C    1.006     5 C    1.006    22 H    0.971
                            21 H    0.957
     5   6 C    3.992 --     6 C    1.008     4 C    1.006    24 H    0.968
                            23 H    0.968
     6   6 C    3.996 --     5 C    1.008     7 C    0.994    25 H    0.974
                            26 H    0.973
     7   6 C    3.996 --     8 C    1.009     6 C    0.994    28 H    0.974
                            27 H    0.968
     8   6 C    3.989 --     9 C    1.418    13 C    1.410     7 C    1.009
                            11 C    0.110
     9   6 C    3.992 --    10 C    1.439     8 C    1.418    29 H    0.967
                            12 C    0.110
    10   6 C    3.992 --    11 C    1.443     9 C    1.439    30 H    0.971
                            13 C    0.112
    11   6 C    3.992 --    10 C    1.443    12 C    1.435    31 H    0.971
                             8 C    0.110
    12   6 C    3.992 --    13 C    1.450    11 C    1.435    32 H    0.971
                             9 C    0.110
    13   6 C    3.992 --    12 C    1.450     8 C    1.410    33 H    0.969
                            10 C    0.112
    14   6 C    3.925 --    34 H    0.975    35 H    0.975    36 H    0.963
                             2 N    0.958
    15   6 C    3.929 --    39 H    0.976    38 H    0.975    37 H    0.974
                             2 N    0.959
    16   1 H    0.989 --     1 C    0.972
    17   1 H    0.990 --     1 C    0.974
    18   1 H    0.990 --     1 C    0.975
    19   1 H    0.992 --     3 C    0.964
    20   1 H    0.993 --     3 C    0.968
    21   1 H    0.993 --     4 C    0.957
    22   1 H    0.997 --     4 C    0.971
    23   1 H    0.995 --     5 C    0.968
    24   1 H    0.999 --     5 C    0.968
    25   1 H    0.997 --     6 C    0.974
    26   1 H    0.999 --     6 C    0.973
    27   1 H    0.997 --     7 C    0.968
    28   1 H    0.999 --     7 C    0.974
    29   1 H    1.000 --     9 C    0.967
    30   1 H    0.998 --    10 C    0.971
    31   1 H    0.998 --    11 C    0.971
    32   1 H    0.998 --    12 C    0.971
    33   1 H    0.999 --    13 C    0.969
    34   1 H    0.991 --    14 C    0.975
    35   1 H    0.991 --    14 C    0.975
    36   1 H    0.988 --    14 C    0.963
    37   1 H    0.990 --    15 C    0.974
    38   1 H    0.990 --    15 C    0.975
    39   1 H    0.990 --    15 C    0.976
 ---------------------------------------------------------------------------

molecular dipole:
                 x           y           z       tot (Debye)
 q only:        0.772      -0.862       2.498
   full:        0.828      -0.947       2.505       7.124

           -------------------------------------------------
          | TOTAL ENERGY              -44.732849545113 Eh   |
          | GRADIENT NORM               0.000269671961 Eh/α |
          | HOMO-LUMO GAP               4.773878254030 eV   |
           -------------------------------------------------

 * finished run on 2024/12/20 at 02:04:08.561
