   * xtb version 6.7.1 (edcfbbe) compiled by 'conda@3ef47c1a292c' on 2024-11-25

   ID    Z sym.   atoms
    1    6 C      1, 3-9, 11, 13, 14, 16, 17
    2    8 O      2, 10
    3    7 N      12, 15
    4    1 H      18-32

          program call               : xtb C0053.xyz --opt --namespace C0053 --charge +1
          :  Hamiltonian                  GFN2-xTB          :
 * total energy  :   -49.0655739 Eh     change       -0.6215615E-09 Eh
 * total energy  :   -49.0723098 Eh     change       -0.6735897E-02 Eh
 * total energy  :   -49.0740087 Eh     change       -0.1698900E-02 Eh
 * total energy  :   -49.0743241 Eh     change       -0.3153577E-03 Eh
 * total energy  :   -49.0745102 Eh     change       -0.1860939E-03 Eh
 * total energy  :   -49.0746182 Eh     change       -0.1080133E-03 Eh
 * total energy  :   -49.0747421 Eh     change       -0.1238982E-03 Eh
 * total energy  :   -49.0748825 Eh     change       -0.1404017E-03 Eh
 * total energy  :   -49.0750241 Eh     change       -0.1416195E-03 Eh
 * total energy  :   -49.0751729 Eh     change       -0.1487505E-03 Eh
 * total energy  :   -49.0838043 Eh     change       -0.1634312E-04 Eh
 * total energy  :   -49.0838179 Eh     change       -0.1357804E-04 Eh
 * total energy  :   -49.0838304 Eh     change       -0.1251267E-04 Eh
 * total energy  :   -49.0838427 Eh     change       -0.1226499E-04 Eh
 * total energy  :   -49.0838554 Eh     change       -0.1275002E-04 Eh
 * total energy  :   -49.0838677 Eh     change       -0.1228528E-04 Eh
 * total energy  :   -49.0838754 Eh     change       -0.7631984E-05 Eh
 * total energy  :   -49.0838797 Eh     change       -0.4305804E-05 Eh
 * total energy  :   -49.0838824 Eh     change       -0.2767068E-05 Eh
   *** GEOMETRY OPTIMIZATION CONVERGED AFTER 87 ITERATIONS ***

 final structure:
================
32
 xtb: 6.7.1 (edcfbbe)
C           -0.18635372905602       -2.98460885080230       -1.53628504531041
O            0.40826947064862       -1.70010303575415       -1.60983361006494
C            0.94083023375018       -1.28145734945364       -2.78119104095766
C            0.90477891265304       -2.03753921542331       -3.95130455491948
C            1.47752260680598       -1.57253362862539       -5.11964174958913
C            2.11195264756287       -0.33810998572351       -5.15473178750291
C            2.15998238985018        0.42027001998572       -4.00996761471836
C            1.57862553530343       -0.01815173761781       -2.80812472383846
C            1.71080117744536        0.88862219862832       -1.67884704790862
O            2.38696235776084        1.89603423486283       -1.69891949548651
C            0.95193220943386        0.55902103860056       -0.36658636716424
N            1.02766858093060        1.70566152519292        0.48957326098704
C           -0.00308096954544        2.51118142270844        0.87257148022209
C            0.53911579585788        3.60310844053886        1.47562967841829
N            1.89406597518619        3.45732079818306        1.43791585205703
C            2.16753851140442        2.30693073420560        0.82957224602700
C            2.84874590924938        4.39364274633964        1.96550861198982
H            0.53202461109223       -3.77060414550097       -1.77873282318757
H           -1.05584943724885       -3.06037859057138       -2.19314733106619
H           -0.50595569279077       -3.09529056449112       -0.50164119963563
H            0.42450483270268       -3.00201522221640       -3.95658100165516
H            1.43011618789275       -2.18266100008563       -6.00827448158817
H            2.56127166207506        0.01981994805235       -6.06651417878016
H            2.64519107263587        1.38427587425840       -4.00319302959522
H           -0.08948068401177        0.31538710542170       -0.57156292959353
H            1.43014738755776       -0.30998834555271        0.09206522189693
H           -1.02868355515689        2.25768027420883        0.69860864984643
H            0.06408113188515        4.45602264121901        1.91522886124834
H            3.15111647016257        1.91672479465897        0.65890502044567
H            2.79990753079102        4.41124770746275        3.05550956105392
H            3.85196911774823        4.10895360731946        1.65747501240589
H            2.63271174942746        5.39424655995491        1.59182655597139

          :  Hamiltonian                  GFN2-xTB          :
         :: total energy             -49.083882436413 Eh    ::
         :: gradient norm              0.000713576946 Eh/a0 ::
         :: HOMO-LUMO gap              2.744492359136 eV    ::
         :: SCC energy               -49.799705132910 Eh    ::
         :: -> dispersion             -0.028911175337 Eh    ::
         :: repulsion energy           0.715822696497 Eh    ::

    * Orbital Energies and Occupations

         #    Occupation            Energy/Eh            Energy/eV
      -------------------------------------------------------------
         1        2.0000           -0.8781554             -23.8958
       ...           ...                  ...                  ...
        32        2.0000           -0.6070040             -16.5174
        33        2.0000           -0.6023204             -16.3900
        34        2.0000           -0.5969771             -16.2446
        35        2.0000           -0.5966995             -16.2370
        36        2.0000           -0.5901830             -16.0597
        37        2.0000           -0.5740701             -15.6212
        38        2.0000           -0.5699938             -15.5103
        39        2.0000           -0.5628275             -15.3153
        40        2.0000           -0.5500369             -14.9673
        41        2.0000           -0.5366039             -14.6017
        42        2.0000           -0.5249832             -14.2855
        43        2.0000           -0.5242632             -14.2659
        44        2.0000           -0.5002844             -13.6134 (HOMO)
        45                         -0.3994262             -10.8689 (LUMO)
        46                         -0.3869795             -10.5302
        47                         -0.3554863              -9.6733
        48                         -0.3302728              -8.9872
        49                         -0.3085936              -8.3973
        50                         -0.1990172              -5.4155
        51                         -0.1642273              -4.4689
        52                         -0.1148674              -3.1257
        53                         -0.0965850              -2.6282
        54                         -0.0678403              -1.8460
        55                         -0.0340024              -0.9253
       ...                                ...                  ...
        83                          0.5500845              14.9686
      -------------------------------------------------------------
                  HL-Gap            0.1008582 Eh            2.7445 eV

     #   Z          covCN         q      C6AA      α(0)
     1   6 C        3.641     0.023    20.540     6.517
     2   8 O        1.704    -0.267    18.426     5.796
     3   6 C        2.859     0.151    24.726     8.150
     4   6 C        2.915    -0.059    29.471     8.902
     5   6 C        2.921    -0.009    28.253     8.717
     6   6 C        2.913    -0.030    28.753     8.793
     7   6 C        2.932    -0.013    28.333     8.730
     8   6 C        2.967    -0.041    29.021     8.836
     9   6 C        2.826     0.229    23.190     7.891
    10   8 O        0.858    -0.373    21.149     6.166
    11   6 C        3.744    -0.052    21.581     6.627
    12   7 N        2.872     0.074    19.959     6.635
    13   6 C        3.067    -0.008    28.153     8.700
    14   6 C        3.070    -0.010    28.181     8.704
    15   7 N        2.867     0.076    19.921     6.629
    16   6 C        3.095     0.059    26.574     8.449
    17   6 C        3.692    -0.085    22.311     6.759
    18   1 H        0.924     0.062     2.175     2.307
    19   1 H        0.924     0.061     2.185     2.312
    20   1 H        0.925     0.075     2.028     2.227
    21   1 H        0.926     0.063     2.163     2.300
    22   1 H        0.926     0.069     2.097     2.264
    23   1 H        0.926     0.068     2.110     2.272
    24   1 H        0.926     0.080     1.977     2.199
    25   1 H        0.925     0.110     1.693     2.035
    26   1 H        0.924     0.110     1.697     2.037
    27   1 H        0.926     0.102     1.768     2.079
    28   1 H        0.926     0.106     1.732     2.058
    29   1 H        0.926     0.122     1.598     1.977
    30   1 H        0.924     0.102     1.769     2.080
    31   1 H        0.925     0.100     1.785     2.089
    32   1 H        0.925     0.106     1.732     2.058

Wiberg/Mayer (AO) data.
largest (>0.10) Wiberg bond orders for each atom

     #   Z sym  total        # sym  WBO       # sym  WBO       # sym  WBO
 ---------------------------------------------------------------------------
     1   6 C    3.927 --    20 H    0.978    18 H    0.975    19 H    0.975
                             2 O    0.965
     2   8 O    2.267 --     3 C    1.094     1 C    0.965
     3   6 C    3.937 --     4 C    1.370     8 C    1.275     2 O    1.094
     4   6 C    3.987 --     5 C    1.454     3 C    1.370    21 H    0.962
                             7 C    0.102
     5   6 C    3.985 --     4 C    1.454     6 C    1.398    22 H    0.968
     6   6 C    3.989 --     7 C    1.485     5 C    1.398    23 H    0.967
     7   6 C    3.983 --     6 C    1.485     8 C    1.335    24 H    0.962
                             4 C    0.102
     8   6 C    3.976 --     7 C    1.335     3 C    1.275     9 C    1.108
     9   6 C    3.937 --    10 O    1.772     8 C    1.108    11 C    0.929
    10   8 O    2.089 --     9 C    1.772
    11   6 C    3.942 --    12 N    0.992    25 H    0.952    26 H    0.937
                             9 C    0.929
    12   7 N    3.710 --    16 C    1.345    13 C    1.215    11 C    0.992
    13   6 C    3.948 --    14 C    1.601    12 N    1.215    27 H    0.962
    14   6 C    3.948 --    13 C    1.601    15 N    1.219    28 H    0.962
    15   7 N    3.715 --    16 C    1.359    14 C    1.219    17 C    0.991
    16   6 C    3.946 --    15 N    1.359    12 N    1.345    29 H    0.952
    17   6 C    3.936 --    15 N    0.991    31 H    0.975    32 H    0.965
                            30 H    0.962
    18   1 H    0.995 --     1 C    0.975
    19   1 H    0.995 --     1 C    0.975
    20   1 H    0.994 --     1 C    0.978
    21   1 H    0.996 --     4 C    0.962
    22   1 H    0.995 --     5 C    0.968
    23   1 H    0.994 --     6 C    0.967
    24   1 H    0.993 --     7 C    0.962
    25   1 H    0.987 --    11 C    0.952
    26   1 H    0.987 --    11 C    0.937
    27   1 H    0.989 --    13 C    0.962
    28   1 H    0.989 --    14 C    0.962
    29   1 H    0.985 --    16 C    0.952
    30   1 H    0.989 --    17 C    0.962
    31   1 H    0.990 --    17 C    0.975
    32   1 H    0.988 --    17 C    0.965
 ---------------------------------------------------------------------------

molecular dipole:
                 x           y           z       tot (Debye)
 q only:        2.231       2.610       0.229
   full:        2.114       2.325       0.233       8.008

           -------------------------------------------------
          | TOTAL ENERGY              -49.083882436413 Eh   |
          | GRADIENT NORM               0.000713576946 Eh/α |
          | HOMO-LUMO GAP               2.744492359136 eV   |
           -------------------------------------------------

 * finished run on 2024/12/20 at 02:04:10.488
