   * xtb version 6.7.1 (edcfbbe) compiled by 'conda@3ef47c1a292c' on 2024-11-25

   ID    Z sym.   atoms
    1    6 C      1, 2, 4-20, 23, 24, 26-32
    2    7 N      3, 22, 25
    3    8 O      21
    4    1 H      33-62

          program call               : xtb C0050.xyz --opt --namespace C0050 --charge +1
          :  Hamiltonian                  GFN2-xTB          :
 * total energy  :   -87.7019623 Eh     change       -0.5578187E-09 Eh
 * total energy  :   -87.7150925 Eh     change       -0.1313027E-01 Eh
 * total energy  :   -87.7189978 Eh     change       -0.3905230E-02 Eh
 * total energy  :   -87.7201687 Eh     change       -0.1170884E-02 Eh
 * total energy  :   -87.7208394 Eh     change       -0.6707481E-03 Eh
 * total energy  :   -87.7212836 Eh     change       -0.4442407E-03 Eh
 * total energy  :   -87.7215984 Eh     change       -0.3147287E-03 Eh
 * total energy  :   -87.7219436 Eh     change       -0.3452031E-03 Eh
 * total energy  :   -87.7223135 Eh     change       -0.3699208E-03 Eh
 * total energy  :   -87.7226638 Eh     change       -0.3502710E-03 Eh
 * total energy  :   -87.7344593 Eh     change       -0.2241884E-04 Eh
 * total energy  :   -87.7344772 Eh     change       -0.1786960E-04 Eh
 * total energy  :   -87.7344913 Eh     change       -0.1415984E-04 Eh
 * total energy  :   -87.7345004 Eh     change       -0.9046924E-05 Eh
 * total energy  :   -87.7345082 Eh     change       -0.7821080E-05 Eh
 * total energy  :   -87.7345155 Eh     change       -0.7256542E-05 Eh
 * total energy  :   -87.7345225 Eh     change       -0.7073063E-05 Eh
 * total energy  :   -87.7345284 Eh     change       -0.5867177E-05 Eh
 * total energy  :   -87.7345302 Eh     change       -0.1794847E-05 Eh
   *** GEOMETRY OPTIMIZATION CONVERGED AFTER 122 ITERATIONS ***

 final structure:
================
62
 xtb: 6.7.1 (edcfbbe)
C            2.32409892298212       -1.55038532153495        1.97262549464258
C            0.84982995287167       -1.64573411704253        1.87610215588315
N           -0.02731610229968       -0.82740129986146        2.47271391722133
C            0.22972280321959        0.46155184180661        3.07490100414966
C            1.15027519575642        1.39256868958533        2.26442573317378
C            1.03276081356513        1.37283046323805        0.73532401000695
C           -0.06713749001783        2.21324346039823        0.02586392090675
C           -0.29570894766283        3.57577081981672        0.66573667923024
C            0.11191522344857        4.77016952944157        0.08403180474730
C           -0.10993167980374        5.98195857653303        0.71783881165683
C           -0.74974791636703        6.02954653952050        1.94273775289849
C           -1.19079217627922        4.85148653151823        2.52036860514527
C           -0.97107022032753        3.64350209080655        1.88498112622142
C            0.36571112806997        2.32185232199139       -1.44066663756755
C           -0.44652608871780        1.89829971587586       -2.48507406693107
C           -0.03148246132657        2.00876449975601       -3.80256891541709
C            1.20772517620439        2.53916892139957       -4.10662882232352
C            2.03161361796197        2.95885335264030       -3.07662865742104
C            1.61548656127032        2.85028850553712       -1.76247965993175
C           -1.37382906476752        1.40280272348391        0.05208093440022
O           -1.39024201035769        0.19424107232540        0.19746632952096
N           -2.49902755155594        2.11719317243167       -0.12137202437809
C           -1.28007067705795       -1.33904642863215        2.29972045498172
C           -1.15997561068818       -2.47256440849072        1.56836643097958
N            0.16750042142462       -2.64480489694866        1.30278135000806
C            0.66027539390677       -3.56625654462150        0.29547447836331
C            0.46226375603386       -2.89941299481458       -1.04972589191193
C           -0.71283387112595       -3.09807562334354       -1.76015477596225
C           -0.93630275864910       -2.41447592599781       -2.94214894105787
C            0.00512489091930       -1.51609135928700       -3.41299385505978
C            1.17909616446835       -1.31286054472267       -2.70848620810278
C            1.40793436855691       -2.00392151413261       -1.53239556021853
H            2.60369097153237       -1.14241185709632        2.94156952129639
H            2.74523747489147       -0.90951301296800        1.19962884347045
H            2.77121817726559       -2.53711553481411        1.87639966753770
H           -0.74817788847961        0.92458785427982        3.21273722550126
H            0.67251789578912        0.31685572673354        4.06658115854207
H            0.97892855186136        2.40623486645868        2.62989381893775
H            2.18505444487928        1.14724844722430        2.50584477781304
H            1.99624036354310        1.71236358332246        0.35959812870005
H            0.88240416777265        0.35293034678963        0.37371733573200
H            0.59425452322149        4.77282848134382       -0.87986011038104
H            0.21809526466563        6.89395517203324        0.24327695800914
H           -0.91731499115149        6.97411512568683        2.43574389012684
H           -1.71309190025909        4.87150940183028        3.46501341419861
H           -1.36287810042323        2.74113422554784        2.33131230547092
H           -1.41493186702477        1.46476242276945       -2.29175063294209
H           -0.68931445317790        1.68135146816167       -4.59332283566942
H            1.52945181085321        2.62717870206689       -5.13269197236103
H            3.00236796077278        3.37823099773450       -3.29419769473845
H            2.27864492473422        3.20132797458968       -0.98464629033765
H           -2.47426299324063        3.10788250067017       -0.29128771063536
H           -3.38139903853192        1.63575302426659       -0.18772801803316
H           -2.15465081869874       -0.86198490498431        2.68797337212936
H           -1.90888880756360       -3.14390857422484        1.20596460949774
H            1.71326265888033       -3.78572407885672        0.47550947097445
H            0.08378318910026       -4.49046413860110        0.36139818746418
H           -1.45318367753060       -3.79541244694406       -1.39669418448091
H           -1.84974106518862       -2.58111484209314       -3.49183935855522
H           -0.17069159742349       -0.97755855703701       -4.33061888629662
H            1.91531315321209       -0.61342951774191       -3.07402472641700
H            2.33496190236036       -1.85628470474789       -0.99799724240568

          :  Hamiltonian                  GFN2-xTB          :
         :: total energy             -87.734530190219 Eh    ::
         :: gradient norm              0.000191143131 Eh/a0 ::
         :: HOMO-LUMO gap              3.048671053675 eV    ::
         :: SCC energy               -89.220245798361 Eh    ::
         :: -> dispersion             -0.081697761875 Eh    ::
         :: repulsion energy           1.485715608141 Eh    ::

    * Orbital Energies and Occupations

         #    Occupation            Energy/Eh            Energy/eV
      -------------------------------------------------------------
         1        2.0000           -0.8540815             -23.2407
       ...           ...                  ...                  ...
        69        2.0000           -0.5211278             -14.1806
        70        2.0000           -0.5203579             -14.1597
        71        2.0000           -0.5188798             -14.1194
        72        2.0000           -0.5130799             -13.9616
        73        2.0000           -0.5093115             -13.8591
        74        2.0000           -0.5046486             -13.7322
        75        2.0000           -0.5037474             -13.7077
        76        2.0000           -0.5035158             -13.7014
        77        2.0000           -0.4982318             -13.5576
        78        2.0000           -0.4925414             -13.4027
        79        2.0000           -0.4889087             -13.3039
        80        2.0000           -0.4853882             -13.2081
        81        2.0000           -0.4819301             -13.1140 (HOMO)
        82                         -0.3698935             -10.0653 (LUMO)
        83                         -0.3331100              -9.0644
        84                         -0.3236688              -8.8075
        85                         -0.3213944              -8.7456
        86                         -0.3158459              -8.5946
        87                         -0.3119704              -8.4891
        88                         -0.3104401              -8.4475
        89                         -0.3092038              -8.4139
        90                         -0.3062072              -8.3323
        91                         -0.1976228              -5.3776
        92                         -0.1850186              -5.0346
       ...                                ...                  ...
       158                          0.5780054              15.7283
      -------------------------------------------------------------
                  HL-Gap            0.1120366 Eh            3.0487 eV

     #   Z          covCN         q      C6AA      α(0)
     1   6 C        3.754    -0.129    23.042     6.845
     2   6 C        3.104     0.110    25.441     8.265
     3   7 N        2.871     0.046    20.440     6.715
     4   6 C        3.739    -0.016    20.937     6.529
     5   6 C        3.798    -0.073    21.897     6.663
     6   6 C        3.807    -0.063    21.710     6.633
     7   6 C        3.907    -0.020    20.869     6.493
     8   6 C        2.969    -0.001    28.054     8.688
     9   6 C        2.924    -0.040    28.982     8.828
    10   6 C        2.920    -0.027    28.666     8.780
    11   6 C        2.919    -0.027    28.676     8.781
    12   6 C        2.918    -0.031    28.772     8.796
    13   6 C        2.927    -0.044    29.104     8.847
    14   6 C        2.976     0.005    27.916     8.667
    15   6 C        2.924    -0.039    28.975     8.827
    16   6 C        2.920    -0.027    28.673     8.781
    17   6 C        2.919    -0.028    28.691     8.784
    18   6 C        2.919    -0.029    28.726     8.789
    19   6 C        2.926    -0.037    28.913     8.818
    20   6 C        2.753     0.291    22.070     7.693
    21   8 O        0.859    -0.471    23.159     6.452
    22   7 N        2.637    -0.262    26.789     7.687
    23   6 C        3.057     0.009    27.770     8.642
    24   6 C        3.053    -0.001    28.005     8.679
    25   7 N        2.880     0.039    20.563     6.735
    26   6 C        3.748    -0.022    21.024     6.540
    27   6 C        2.976     0.004    27.932     8.669
    28   6 C        2.924    -0.030    28.754     8.794
    29   6 C        2.920    -0.020    28.512     8.756
    30   6 C        2.921    -0.021    28.523     8.758
    31   6 C        2.919    -0.023    28.575     8.766
    32   6 C        2.924    -0.036    28.900     8.816
    33   1 H        0.925     0.089     1.891     2.150
    34   1 H        0.925     0.098     1.799     2.098
    35   1 H        0.925     0.086     1.918     2.166
    36   1 H        0.924     0.079     1.986     2.204
    37   1 H        0.924     0.072     2.066     2.248
    38   1 H        0.924     0.073     2.048     2.238
    39   1 H        0.924     0.053     2.289     2.366
    40   1 H        0.925     0.053     2.281     2.362
    41   1 H        0.924     0.051     2.302     2.373
    42   1 H        0.926     0.044     2.391     2.418
    43   1 H        0.926     0.046     2.372     2.408
    44   1 H        0.926     0.047     2.362     2.403
    45   1 H        0.926     0.039     2.461     2.453
    46   1 H        0.926     0.019     2.748     2.592
    47   1 H        0.926     0.028     2.609     2.526
    48   1 H        0.926     0.040     2.445     2.445
    49   1 H        0.926     0.045     2.377     2.411
    50   1 H        0.926     0.043     2.406     2.426
    51   1 H        0.926     0.037     2.495     2.470
    52   1 H        0.860     0.195     1.131     1.666
    53   1 H        0.860     0.199     1.109     1.649
    54   1 H        0.927     0.096     1.825     2.113
    55   1 H        0.927     0.098     1.806     2.101
    56   1 H        0.924     0.077     2.013     2.219
    57   1 H        0.924     0.083     1.948     2.183
    58   1 H        0.926     0.041     2.429     2.437
    59   1 H        0.926     0.053     2.289     2.366
    60   1 H        0.926     0.051     2.307     2.375
    61   1 H        0.926     0.045     2.384     2.415
    62   1 H        0.926     0.032     2.558     2.501

Wiberg/Mayer (AO) data.
largest (>0.10) Wiberg bond orders for each atom

     #   Z sym  total        # sym  WBO       # sym  WBO       # sym  WBO
 ---------------------------------------------------------------------------
     1   6 C    3.981 --     2 C    1.040    35 H    0.965    33 H    0.965
                            34 H    0.948
     2   6 C    3.950 --    25 N    1.324     3 N    1.320     1 C    1.040
     3   7 N    3.692 --     2 C    1.320    23 C    1.210     4 C    0.974
     4   6 C    3.946 --     5 C    0.990     3 N    0.974    36 H    0.962
                            37 H    0.958
     5   6 C    3.985 --     6 C    1.008     4 C    0.990    39 H    0.974
                            38 H    0.960
     6   6 C    3.991 --     5 C    1.008    40 H    0.966    41 H    0.963
                             7 C    0.960
     7   6 C    3.989 --     8 C    0.975    14 C    0.960     6 C    0.960
                            20 C    0.931
     8   6 C    3.986 --     9 C    1.420    13 C    1.394     7 C    0.975
                            11 C    0.110
     9   6 C    3.991 --    10 C    1.437     8 C    1.420    42 H    0.960
                            12 C    0.109
    10   6 C    3.991 --    11 C    1.444     9 C    1.437    43 H    0.970
                            13 C    0.111
    11   6 C    3.990 --    10 C    1.444    12 C    1.432    44 H    0.970
                             8 C    0.110
    12   6 C    3.991 --    13 C    1.450    11 C    1.432    45 H    0.970
                             9 C    0.109
    13   6 C    3.991 --    12 C    1.450     8 C    1.394    46 H    0.962
                            10 C    0.111
    14   6 C    3.984 --    15 C    1.426    19 C    1.399     7 C    0.960
                            17 C    0.110
    15   6 C    3.991 --    16 C    1.433    14 C    1.426    47 H    0.965
                            18 C    0.109
    16   6 C    3.991 --    17 C    1.447    15 C    1.433    48 H    0.970
                            19 C    0.112
    17   6 C    3.990 --    16 C    1.447    18 C    1.431    49 H    0.970
                            14 C    0.110
    18   6 C    3.990 --    19 C    1.449    17 C    1.431    50 H    0.970
                            15 C    0.109
    19   6 C    3.991 --    18 C    1.449    14 C    1.399    51 H    0.962
                            16 C    0.112
    20   6 C    3.937 --    21 O    1.661    22 N    1.282     7 C    0.931
    21   8 O    1.975 --    20 C    1.661    22 N    0.193
    22   7 N    3.396 --    20 C    1.282    53 H    0.938    52 H    0.938
                            21 O    0.193
    23   6 C    3.953 --    24 C    1.608     3 N    1.210    54 H    0.962
    24   6 C    3.950 --    23 C    1.608    25 N    1.207    55 H    0.962
    25   7 N    3.686 --     2 C    1.324    24 C    1.207    26 C    0.959
    26   6 C    3.942 --    27 C    0.978    57 H    0.965    56 H    0.961
                            25 N    0.959
    27   6 C    3.980 --    28 C    1.417    32 C    1.412    26 C    0.978
                            30 C    0.109
    28   6 C    3.991 --    29 C    1.441    27 C    1.417    58 H    0.968
                            31 C    0.111
    29   6 C    3.991 --    30 C    1.441    28 C    1.441    59 H    0.969
                            32 C    0.111
    30   6 C    3.989 --    29 C    1.441    31 C    1.437    60 H    0.969
                            27 C    0.109
    31   6 C    3.991 --    32 C    1.445    30 C    1.437    61 H    0.970
                            28 C    0.111
    32   6 C    3.992 --    31 C    1.445    27 C    1.412    62 H    0.967
                            29 C    0.111
    33   1 H    0.992 --     1 C    0.965
    34   1 H    0.990 --     1 C    0.948
    35   1 H    0.992 --     1 C    0.965
    36   1 H    0.993 --     4 C    0.962
    37   1 H    0.994 --     4 C    0.958
    38   1 H    0.994 --     5 C    0.960
    39   1 H    0.997 --     5 C    0.974
    40   1 H    0.997 --     6 C    0.966
    41   1 H    0.997 --     6 C    0.963
    42   1 H    0.998 --     9 C    0.960
    43   1 H    0.997 --    10 C    0.970
    44   1 H    0.997 --    11 C    0.970
    45   1 H    0.998 --    12 C    0.970
    46   1 H    1.000 --    13 C    0.962
    47   1 H    0.999 --    15 C    0.965
    48   1 H    0.998 --    16 C    0.970
    49   1 H    0.997 --    17 C    0.970
    50   1 H    0.997 --    18 C    0.970
    51   1 H    0.999 --    19 C    0.962
    52   1 H    0.962 --    22 N    0.938
    53   1 H    0.959 --    22 N    0.938
    54   1 H    0.990 --    23 C    0.962
    55   1 H    0.990 --    24 C    0.962
    56   1 H    0.993 --    26 C    0.961
    57   1 H    0.992 --    26 C    0.965
    58   1 H    0.998 --    28 C    0.968
    59   1 H    0.997 --    29 C    0.969
    60   1 H    0.997 --    30 C    0.969
    61   1 H    0.998 --    31 C    0.970
    62   1 H    0.999 --    32 C    0.967
 ---------------------------------------------------------------------------

molecular dipole:
                 x           y           z       tot (Debye)
 q only:        0.434      -0.755       2.095
   full:        0.216      -0.550       2.109       5.567

           -------------------------------------------------
          | TOTAL ENERGY              -87.734530190219 Eh   |
          | GRADIENT NORM               0.000191143131 Eh/α |
          | HOMO-LUMO GAP               3.048671053675 eV   |
           -------------------------------------------------

 * finished run on 2024/12/20 at 02:04:03.835
