   * xtb version 6.7.1 (edcfbbe) compiled by 'conda@3ef47c1a292c' on 2024-11-25

   ID    Z sym.   atoms
    1    6 C      1-6, 8-19
    2   15 P      7
    3    1 H      20-59

          program call               : xtb C0058.xyz --opt --namespace C0058 --charge +1
          :  Hamiltonian                  GFN2-xTB          :
 * total energy  :   -61.0877223 Eh     change       -0.1689813E-09 Eh
 * total energy  :   -61.0932895 Eh     change       -0.5567215E-02 Eh
 * total energy  :   -61.0948516 Eh     change       -0.1562142E-02 Eh
 * total energy  :   -61.0950939 Eh     change       -0.2423038E-03 Eh
 * total energy  :   -61.0952407 Eh     change       -0.1467859E-03 Eh
 * total energy  :   -61.0953619 Eh     change       -0.1212101E-03 Eh
 * total energy  :   -61.0955353 Eh     change       -0.1733394E-03 Eh
 * total energy  :   -61.0957564 Eh     change       -0.2211134E-03 Eh
 * total energy  :   -61.0960079 Eh     change       -0.2515741E-03 Eh
 * total energy  :   -61.0962965 Eh     change       -0.2885134E-03 Eh
 * total energy  :   -61.0999726 Eh     change       -0.1381326E-04 Eh
 * total energy  :   -61.0999825 Eh     change       -0.9996195E-05 Eh
 * total energy  :   -61.0999902 Eh     change       -0.7613607E-05 Eh
 * total energy  :   -61.0999962 Eh     change       -0.6045283E-05 Eh
 * total energy  :   -61.1000030 Eh     change       -0.6762180E-05 Eh
 * total energy  :   -61.1000106 Eh     change       -0.7637544E-05 Eh
 * total energy  :   -61.1000177 Eh     change       -0.7056728E-05 Eh
 * total energy  :   -61.1000243 Eh     change       -0.6662622E-05 Eh
 * total energy  :   -61.1000276 Eh     change       -0.3254409E-05 Eh
   *** GEOMETRY OPTIMIZATION CONVERGED AFTER 44 ITERATIONS ***

 final structure:
================
59
 xtb: 6.7.1 (edcfbbe)
C           -0.80507397128153       -0.55978544198006       -0.67953712614390
C           -0.98975568948430       -0.23175462690935        0.79714113711971
C            0.13884239738721        0.62633552680153        1.37193730150026
C            0.27715365507557        2.01558746543139        0.74456729741572
C           -0.91821749992491        2.94453663496365        0.96554899521652
C           -1.14452798484699        3.34175597076547        2.43372077874127
P           -0.49922478719990        4.99761063027550        2.86926385530360
C           -1.22123082039039        6.22872314140443        1.71692951335147
C           -2.68317383255885        6.02024791205096        1.31487931230771
C           -3.68660443532907        6.13373821687493        2.46230370271193
C           -3.81815808299850        7.54950873301215        3.01154659497409
C           -0.93318120295742        5.48997125396652        4.58962508930896
C           -1.48507092940907        4.38241306145244        5.49025682534418
C           -0.41516499905515        3.40827318894313        5.98586057527207
C            0.41211908371413        3.97614726939417        7.13347191242875
C            1.30321479743601        5.23212944646134        2.60397629933836
C            2.26106800897612        4.70163015072349        3.67411501930470
C            2.61932621995201        3.22192703541892        3.52409647646688
C            3.64591259029543        2.97732187464541        2.42402794364772
H           -0.89147530069384        0.32833382971341       -1.30084209425939
H           -1.56424751834356       -1.26739958377350       -1.00158045071470
H            0.17095470672692       -1.00774870786625       -0.84992974236146
H           -1.95353036361062        0.25965583340586        0.94597567528828
H           -1.01662563446598       -1.16570890071569        1.36156046422037
H           -0.00554438420434        0.71226974490077        2.45241467707951
H            1.08276508412235        0.09964332144844        1.21870912369043
H            1.17954577738404        2.48431626772950        1.13660964141122
H            0.41680308162166        1.89891876298734       -0.33031836462814
H           -0.77852426446852        3.83653971504066        0.34970688814807
H           -1.81531314001419        2.44333895320453        0.60142555934752
H           -2.21516570408664        3.38629631521755        2.65318727908002
H           -0.70896884975844        2.60212817074893        3.10633710563609
H           -1.08953524210286        7.20804113323447        2.18601553091238
H           -0.59646848527648        6.21693744123892        0.81784318284288
H           -2.92848160087435        6.77438574520648        0.56398284978694
H           -2.79449432180044        5.04499297432560        0.83850957048363
H           -4.66242349076400        5.82222865029905        2.08603099081489
H           -3.41353698915462        5.44213438173935        3.26451038147418
H           -4.13424916161454        8.22980110113840        2.22507307497409
H           -4.56532365207017        7.57639084807813        3.79998161253688
H           -2.88208335174534        7.92147808591217        3.42336749976452
H           -0.03635469804377        5.92618832705676        5.03644682073111
H           -1.67067488696519        6.29048022875208        4.50094150355272
H           -1.95183214777541        4.85540004632490        6.35650884752294
H           -2.26991146982511        3.83487462525932        4.96488272582400
H           -0.90488506318010        2.49751287098716        6.33327233800464
H            0.24457874927929        3.13584290279416        5.15816135098517
H           -0.22194065597211        4.17626277348031        7.99319587751138
H            1.17428027125363        3.26295761444919        7.43491406500023
H            0.90927300377500        4.90379355684287        6.85802473502321
H            1.54739562482099        4.81209754561696        1.62519774127068
H            1.41360083058679        6.32057189026621        2.52920290255842
H            3.18430460629798        5.28136080579735        3.61325744677199
H            1.84270270851749        4.87510723931741        4.66607231686319
H            3.03744195676596        2.87043285014595        4.46855038149635
H            1.71809016875699        2.63749294991510        3.32768917902282
H            4.57972592090393        3.48011739407408        2.66186747446678
H            3.84889811919215        1.91412197098088        2.32987187508141
H            3.30381724937274        3.34269288101024        1.45794045918413

          :  Hamiltonian                  GFN2-xTB          :
         :: total energy             -61.100027580549 Eh    ::
         :: gradient norm              0.000192942173 Eh/a0 ::
         :: HOMO-LUMO gap              5.828115080860 eV    ::
         :: SCC energy               -62.003807970573 Eh    ::
         :: -> dispersion             -0.053902416688 Eh    ::
         :: repulsion energy           0.903780390024 Eh    ::

    * Orbital Energies and Occupations

         #    Occupation            Energy/Eh            Energy/eV
      -------------------------------------------------------------
         1        2.0000           -0.8407392             -22.8777
       ...           ...                  ...                  ...
        46        2.0000           -0.5564540             -15.1419
        47        2.0000           -0.5524169             -15.0320
        48        2.0000           -0.5517519             -15.0139
        49        2.0000           -0.5509851             -14.9931
        50        2.0000           -0.5489999             -14.9390
        51        2.0000           -0.5463619             -14.8673
        52        2.0000           -0.5454918             -14.8436
        53        2.0000           -0.5439297             -14.8011
        54        2.0000           -0.5422553             -14.7555
        55        2.0000           -0.5399043             -14.6915
        56        2.0000           -0.5233780             -14.2418
        57        2.0000           -0.5165067             -14.0549
        58        2.0000           -0.5117629             -13.9258 (HOMO)
        59                         -0.2975836              -8.0977 (LUMO)
        60                         -0.2813405              -7.6557
        61                         -0.2677172              -7.2850
        62                         -0.1941377              -5.2828
        63                         -0.1131505              -3.0790
        64                         -0.0742873              -2.0215
        65                         -0.0547644              -1.4902
        66                         -0.0495279              -1.3477
        67                         -0.0449554              -1.2233
        68                         -0.0399532              -1.0872
        69                         -0.0364411              -0.9916
       ...                                ...                  ...
       121                          0.7998361              21.7646
      -------------------------------------------------------------
                  HL-Gap            0.2141793 Eh            5.8281 eV

     #   Z          covCN         q      C6AA      α(0)
     1   6 C        3.751    -0.108    22.617     6.782
     2   6 C        3.799    -0.056    21.586     6.615
     3   6 C        3.800    -0.061    21.671     6.628
     4   6 C        3.800    -0.068    21.802     6.648
     5   6 C        3.853    -0.062    21.645     6.617
     6   6 C        3.749    -0.068    21.860     6.668
     7  15 P        3.891     0.176   152.656    22.195
     8   6 C        3.749    -0.078    22.052     6.697
     9   6 C        3.839    -0.066    21.739     6.633
    10   6 C        3.799    -0.060    21.654     6.626
    11   6 C        3.751    -0.111    22.680     6.792
    12   6 C        3.750    -0.076    22.012     6.691
    13   6 C        3.839    -0.064    21.702     6.627
    14   6 C        3.800    -0.061    21.666     6.627
    15   6 C        3.752    -0.110    22.671     6.790
    16   6 C        3.749    -0.074    21.982     6.687
    17   6 C        3.832    -0.065    21.725     6.632
    18   6 C        3.800    -0.058    21.615     6.620
    19   6 C        3.752    -0.110    22.672     6.790
    20   1 H        0.925     0.034     2.536     2.490
    21   1 H        0.925     0.044     2.399     2.422
    22   1 H        0.925     0.042     2.423     2.434
    23   1 H        0.924     0.028     2.619     2.531
    24   1 H        0.924     0.040     2.446     2.446
    25   1 H        0.924     0.022     2.709     2.574
    26   1 H        0.924     0.046     2.369     2.407
    27   1 H        0.925     0.040     2.454     2.450
    28   1 H        0.925     0.055     2.254     2.348
    29   1 H        0.924     0.046     2.377     2.411
    30   1 H        0.924     0.065     2.141     2.288
    31   1 H        0.928     0.088     1.895     2.152
    32   1 H        0.926     0.097     1.809     2.103
    33   1 H        0.927     0.086     1.916     2.165
    34   1 H        0.927     0.080     1.983     2.202
    35   1 H        0.924     0.066     2.127     2.281
    36   1 H        0.924     0.052     2.294     2.368
    37   1 H        0.924     0.055     2.263     2.353
    38   1 H        0.924     0.033     2.545     2.495
    39   1 H        0.925     0.052     2.295     2.369
    40   1 H        0.925     0.051     2.302     2.373
    41   1 H        0.925     0.029     2.598     2.521
    42   1 H        0.926     0.089     1.884     2.146
    43   1 H        0.927     0.093     1.848     2.126
    44   1 H        0.924     0.068     2.106     2.269
    45   1 H        0.924     0.046     2.373     2.409
    46   1 H        0.924     0.051     2.303     2.373
    47   1 H        0.924     0.037     2.493     2.469
    48   1 H        0.925     0.050     2.314     2.379
    49   1 H        0.925     0.051     2.310     2.377
    50   1 H        0.925     0.032     2.553     2.499
    51   1 H        0.926     0.093     1.849     2.127
    52   1 H        0.929     0.082     1.954     2.186
    53   1 H        0.924     0.065     2.146     2.291
    54   1 H        0.924     0.053     2.285     2.364
    55   1 H        0.924     0.051     2.312     2.378
    56   1 H        0.924     0.035     2.519     2.482
    57   1 H        0.925     0.049     2.338     2.391
    58   1 H        0.925     0.050     2.314     2.379
    59   1 H        0.925     0.033     2.540     2.492

Wiberg/Mayer (AO) data.
largest (>0.10) Wiberg bond orders for each atom

     #   Z sym  total        # sym  WBO       # sym  WBO       # sym  WBO
 ---------------------------------------------------------------------------
     1   6 C    3.995 --     2 C    1.021    22 H    0.987    21 H    0.986
                            20 H    0.986
     2   6 C    3.997 --     1 C    1.021     3 C    1.008    24 H    0.977
                            23 H    0.975
     3   6 C    3.996 --     4 C    1.008     2 C    1.008    26 H    0.975
                            25 H    0.972
     4   6 C    3.992 --     3 C    1.008     5 C    1.006    28 H    0.970
                            27 H    0.966
     5   6 C    3.987 --     4 C    1.006     6 C    0.980    30 H    0.968
                            29 H    0.963
     6   6 C    3.984 --     7 P    1.003     5 C    0.980    31 H    0.928
                            32 H    0.927
     7  15 P    4.557 --     8 C    1.009    16 C    1.006     6 C    1.003
                            12 C    0.993
     8   6 C    3.989 --     7 P    1.009     9 C    0.991    34 H    0.936
                            33 H    0.932
     9   6 C    3.986 --    10 C    1.008     8 C    0.991    36 H    0.969
                            35 H    0.968
    10   6 C    3.995 --    11 C    1.021     9 C    1.008    37 H    0.975
                            38 H    0.962
    11   6 C    3.994 --    10 C    1.021    39 H    0.985    40 H    0.985
                            41 H    0.981
    12   6 C    3.985 --     7 P    0.993    13 C    0.991    43 H    0.931
                            42 H    0.930
    13   6 C    3.989 --    14 C    1.007    12 C    0.991    45 H    0.968
                            44 H    0.968
    14   6 C    3.995 --    15 C    1.021    13 C    1.007    46 H    0.976
                            47 H    0.961
    15   6 C    3.994 --    14 C    1.021    48 H    0.986    49 H    0.985
                            50 H    0.982
    16   6 C    3.987 --     7 P    1.006    17 C    0.991    51 H    0.930
                            52 H    0.930
    17   6 C    3.986 --    18 C    1.006    16 C    0.991    53 H    0.969
                            54 H    0.961
    18   6 C    3.995 --    19 C    1.020    17 C    1.006    55 H    0.976
                            56 H    0.966
    19   6 C    3.993 --    18 C    1.020    57 H    0.986    58 H    0.985
                            59 H    0.982
    20   1 H    0.999 --     1 C    0.986
    21   1 H    0.998 --     1 C    0.986
    22   1 H    0.998 --     1 C    0.987
    23   1 H    0.999 --     2 C    0.975
    24   1 H    0.998 --     2 C    0.977
    25   1 H    1.000 --     3 C    0.972
    26   1 H    0.998 --     3 C    0.975
    27   1 H    0.998 --     4 C    0.966
    28   1 H    0.997 --     4 C    0.970
    29   1 H    0.998 --     5 C    0.963
    30   1 H    0.995 --     5 C    0.968
    31   1 H    0.992 --     6 C    0.928
    32   1 H    0.990 --     6 C    0.927
    33   1 H    0.992 --     8 C    0.932
    34   1 H    0.993 --     8 C    0.936
    35   1 H    0.995 --     9 C    0.968
    36   1 H    0.997 --     9 C    0.969
    37   1 H    0.997 --    10 C    0.975
    38   1 H    0.999 --    10 C    0.962
    39   1 H    0.997 --    11 C    0.985
    40   1 H    0.997 --    11 C    0.985
    41   1 H    0.999 --    11 C    0.981
    42   1 H    0.992 --    12 C    0.930
    43   1 H    0.991 --    12 C    0.931
    44   1 H    0.995 --    13 C    0.968
    45   1 H    0.998 --    13 C    0.968
    46   1 H    0.997 --    14 C    0.976
    47   1 H    0.999 --    14 C    0.961
    48   1 H    0.997 --    15 C    0.986
    49   1 H    0.997 --    15 C    0.985
    50   1 H    0.999 --    15 C    0.982
    51   1 H    0.991 --    16 C    0.930
    52   1 H    0.993 --    16 C    0.930
    53   1 H    0.995 --    17 C    0.969
    54   1 H    0.997 --    17 C    0.961
    55   1 H    0.997 --    18 C    0.976
    56   1 H    0.999 --    18 C    0.966
    57   1 H    0.997 --    19 C    0.986
    58   1 H    0.997 --    19 C    0.985
    59   1 H    0.999 --    19 C    0.982
 ---------------------------------------------------------------------------

molecular dipole:
                 x           y           z       tot (Debye)
 q only:       -0.932       8.824       5.473
   full:       -0.943       9.009       5.432      26.847

           -------------------------------------------------
          | TOTAL ENERGY              -61.100027580549 Eh   |
          | GRADIENT NORM               0.000192942173 Eh/α |
          | HOMO-LUMO GAP               5.828115080860 eV   |
           -------------------------------------------------

 * finished run on 2024/12/20 at 02:04:17.951
