   * xtb version 6.7.1 (edcfbbe) compiled by 'conda@3ef47c1a292c' on 2024-11-25

   ID    Z sym.   atoms
    1    6 C      1, 2, 4, 6, 7, 9-31
    2    8 O      3, 5
    3    7 N      8
    4    1 H      32-57

          program call               : xtb C0051.xyz --opt --namespace C0051 --charge +1
          :  Hamiltonian                  GFN2-xTB          :
 * total energy  :   -83.8591701 Eh     change       -0.1124221E-08 Eh
 * total energy  :   -83.8688255 Eh     change       -0.9655370E-02 Eh
 * total energy  :   -83.8713240 Eh     change       -0.2498540E-02 Eh
 * total energy  :   -83.8720407 Eh     change       -0.7166809E-03 Eh
 * total energy  :   -83.8724690 Eh     change       -0.4283217E-03 Eh
 * total energy  :   -83.8727480 Eh     change       -0.2789462E-03 Eh
 * total energy  :   -83.8730026 Eh     change       -0.2546309E-03 Eh
 * total energy  :   -83.8731911 Eh     change       -0.1885094E-03 Eh
 * total energy  :   -83.8733303 Eh     change       -0.1392397E-03 Eh
 * total energy  :   -83.8734487 Eh     change       -0.1183924E-03 Eh
 * total energy  :   -83.8745881 Eh     change       -0.1461616E-04 Eh
 * total energy  :   -83.8746079 Eh     change       -0.1979524E-04 Eh
 * total energy  :   -83.8746330 Eh     change       -0.2514832E-04 Eh
 * total energy  :   -83.8746601 Eh     change       -0.2708379E-04 Eh
 * total energy  :   -83.8746515 Eh     change        0.8616658E-05 Eh
 * total energy  :   -83.8746763 Eh     change       -0.2481798E-04 Eh
 * total energy  :   -83.8746901 Eh     change       -0.1373975E-04 Eh
 * total energy  :   -83.8746993 Eh     change       -0.9273849E-05 Eh
 * total energy  :   -83.8747043 Eh     change       -0.4947327E-05 Eh
   *** GEOMETRY OPTIMIZATION CONVERGED AFTER 44 ITERATIONS ***

 final structure:
================
57
 xtb: 6.7.1 (edcfbbe)
C            0.15928704262949       -1.70829768969151       -0.20221572194970
C           -0.07236376765023       -1.23295442085617       -1.62620053610567
O            0.76698828375825       -1.94058935203516       -2.55858655449063
C            2.00534597823671       -1.50598779506617       -2.71015430892799
O            2.49565078692442       -0.54681774437701       -2.18261932017697
C            2.74142327537887       -2.35961227458109       -3.71739716512249
C            2.07121712202065       -2.76522384941999       -4.85165202716181
N            2.67301083804210       -3.48303093754395       -5.80616069762566
C            3.96645056196565       -3.81434825249250       -5.67558357530678
C            4.68974045169438       -3.44747365414975       -4.56949674432441
C            4.09568070637910       -2.70371320944341       -3.54211958812997
C            4.83231788417192       -2.31298964713644       -2.30744934097022
C            4.10980002119906       -2.79825159768005       -1.06041961199346
C            3.35310704835472       -3.96342508497971       -1.06423918964667
C            2.73879492360126       -4.40114405534530        0.09698384477414
C            2.87841759474579       -3.68284724043414        1.27136662268183
C            3.63805935398512       -2.52432604227633        1.28117637395248
C            4.24913496358526       -2.08281972139956        0.12127588680365
C            6.28158969272364       -2.75726185040113       -2.31153055618837
C            7.26767074680735       -1.87927945474574       -2.74394020184253
C            8.59507802251266       -2.27097095149059       -2.76131358530100
C            8.94867376740446       -3.54336827077452       -2.34479032452353
C            7.97039559338269       -4.42237532310702       -1.91129316831861
C            6.64225174258726       -4.03313045537732       -1.89614341146408
C            1.96657063670483       -3.87032981141536       -7.02066817319534
C            2.63984712167360       -3.26599055938115       -8.23325856824703
C            3.19836769286955       -4.07723121705349       -9.21092775421027
C            3.81321607539681       -3.51059074483009      -10.31474296415276
C            3.88294165778976       -2.13371011328292      -10.43976025699646
C            3.33223875266976       -1.32070614777634       -9.46229526930855
C            2.71128059723220       -1.88372389643016       -8.36208487581794
H            0.00312520664874       -2.78158055611542       -0.12936100986901
H           -0.53818033576757       -1.20396727690074        0.45932440803584
H            1.17352307415425       -1.47804135349426        0.11475321824499
H           -1.09006615631648       -1.44793443096484       -1.95558271454117
H            0.13508263282590       -0.16257790039396       -1.71237453406226
H            1.02984088378325       -2.51427124765535       -4.99162146668509
H            4.40681135657624       -4.38091413480223       -6.48286034917411
H            5.72580278749821       -3.73719361983739       -4.48670492283458
H            4.80875450817929       -1.21525049358091       -2.26911494254428
H            3.24522670950312       -4.54301492259433       -1.97192087142429
H            2.15570576479780       -5.30962725061703        0.08175286441694
H            2.39977357324089       -4.02537301240045        2.17540925503960
H            3.75343727799358       -1.96073038513909        2.19399236563575
H            4.83669256657959       -1.17766441189183        0.13198080197049
H            6.99741779234815       -0.88298598498702       -3.06435837819365
H            9.35328269126219       -1.57980371060311       -3.09581540843855
H            9.98382549269563       -3.84714811952274       -2.35267466746886
H            8.24087099286912       -5.41296465508160       -1.57925210920004
H            5.88478917514255       -4.71996505410181       -1.54807979662929
H            1.96841881615343       -4.96103855144726       -7.09771874862857
H            0.93197672119414       -3.52850334894615       -6.94749989187937
H            3.14053931727816       -5.15231860091320       -9.12050301931747
H            4.23667256678408       -4.14700816262484      -11.07572249159256
H            4.36250512737653       -1.69345728979248      -11.29961142709441
H            3.38153681407772       -0.24744053233533       -9.55844878856541
H            2.27596947432535       -1.24632362828867       -7.60500661192027

          :  Hamiltonian                  GFN2-xTB          :
         :: total energy             -83.874704283692 Eh    ::
         :: gradient norm              0.000285147624 Eh/a0 ::
         :: HOMO-LUMO gap              1.440379658162 eV    ::
         :: SCC energy               -85.304706991904 Eh    ::
         :: -> dispersion             -0.068793171389 Eh    ::
         :: repulsion energy           1.430002708213 Eh    ::

    * Orbital Energies and Occupations

         #    Occupation            Energy/Eh            Energy/eV
      -------------------------------------------------------------
         1        2.0000           -0.8670690             -23.5941
       ...           ...                  ...                  ...
        65        2.0000           -0.5395822             -14.6828
        66        2.0000           -0.5384599             -14.6522
        67        2.0000           -0.5343201             -14.5396
        68        2.0000           -0.5240977             -14.2614
        69        2.0000           -0.5192682             -14.1300
        70        2.0000           -0.5186632             -14.1135
        71        2.0000           -0.5172121             -14.0741
        72        2.0000           -0.5161559             -14.0453
        73        2.0000           -0.5111524             -13.9092
        74        2.0000           -0.4999493             -13.6043
        75        2.0000           -0.4987878             -13.5727
        76        2.0000           -0.4964837             -13.5100
        77        2.0000           -0.4903926             -13.3443 (HOMO)
        78                         -0.4374597             -11.9039 (LUMO)
        79                         -0.4171427             -11.3510
        80                         -0.3477110              -9.4617
        81                         -0.3436700              -9.3517
        82                         -0.3370357              -9.1712
        83                         -0.3237872              -8.8107
        84                         -0.3181024              -8.6560
        85                         -0.3157686              -8.5925
        86                         -0.3138888              -8.5413
        87                         -0.2794474              -7.6042
        88                         -0.2141555              -5.8275
       ...                                ...                  ...
       150                          0.5733385              15.6013
      -------------------------------------------------------------
                  HL-Gap            0.0529330 Eh            1.4404 eV

     #   Z          covCN         q      C6AA      α(0)
     1   6 C        3.751    -0.119    22.843     6.816
     2   6 C        3.698     0.072    19.530     6.321
     3   8 O        1.703    -0.254    18.201     5.760
     4   6 C        2.721     0.364    20.824     7.470
     5   8 O        0.856    -0.377    21.224     6.177
     6   6 C        2.971    -0.009    28.238     8.717
     7   6 C        2.891     0.030    27.330     8.571
     8   7 N        2.750     0.094    19.626     6.580
     9   6 C        2.891     0.031    27.306     8.567
    10   6 C        2.918    -0.026    28.652     8.778
    11   6 C        2.977     0.069    26.443     8.435
    12   6 C        3.868    -0.034    21.144     6.539
    13   6 C        2.976     0.015    27.674     8.629
    14   6 C        2.922    -0.039    28.963     8.825
    15   6 C        2.920    -0.027    28.685     8.783
    16   6 C        2.920    -0.026    28.653     8.778
    17   6 C        2.920    -0.023    28.589     8.768
    18   6 C        2.924    -0.030    28.745     8.792
    19   6 C        2.974     0.003    27.961     8.674
    20   6 C        2.923    -0.039    28.981     8.828
    21   6 C        2.919    -0.026    28.641     8.776
    22   6 C        2.920    -0.026    28.640     8.776
    23   6 C        2.919    -0.027    28.669     8.780
    24   6 C        2.922    -0.038    28.944     8.823
    25   6 C        3.762    -0.033    21.216     6.566
    26   6 C        2.972    -0.003    28.091     8.694
    27   6 C        2.922    -0.036    28.891     8.815
    28   6 C        2.920    -0.021    28.531     8.759
    29   6 C        2.920    -0.019    28.494     8.754
    30   6 C        2.919    -0.022    28.545     8.761
    31   6 C        2.923    -0.037    28.918     8.819
    32   1 H        0.925     0.059     2.210     2.325
    33   1 H        0.925     0.070     2.081     2.256
    34   1 H        0.925     0.062     2.181     2.309
    35   1 H        0.924     0.074     2.040     2.234
    36   1 H        0.924     0.071     2.073     2.252
    37   1 H        0.926     0.105     1.740     2.063
    38   1 H        0.926     0.104     1.745     2.066
    39   1 H        0.926     0.103     1.757     2.073
    40   1 H        0.923     0.111     1.684     2.029
    41   1 H        0.925     0.012     2.856     2.643
    42   1 H        0.926     0.043     2.413     2.429
    43   1 H        0.926     0.051     2.310     2.377
    44   1 H        0.926     0.053     2.283     2.363
    45   1 H        0.926     0.049     2.328     2.386
    46   1 H        0.926     0.035     2.521     2.483
    47   1 H        0.926     0.048     2.343     2.394
    48   1 H        0.926     0.050     2.324     2.384
    49   1 H        0.926     0.046     2.367     2.406
    50   1 H        0.926     0.035     2.517     2.481
    51   1 H        0.924     0.091     1.867     2.137
    52   1 H        0.924     0.088     1.898     2.155
    53   1 H        0.926     0.044     2.402     2.424
    54   1 H        0.926     0.059     2.208     2.324
    55   1 H        0.926     0.061     2.192     2.316
    56   1 H        0.926     0.056     2.244     2.343
    57   1 H        0.926     0.032     2.559     2.502

Wiberg/Mayer (AO) data.
largest (>0.10) Wiberg bond orders for each atom

     #   Z sym  total        # sym  WBO       # sym  WBO       # sym  WBO
 ---------------------------------------------------------------------------
     1   6 C    3.987 --     2 C    1.013    32 H    0.985    34 H    0.983
                            33 H    0.979
     2   6 C    3.902 --     1 C    1.013    35 H    0.969    36 H    0.969
                             3 O    0.911
     3   8 O    2.340 --     4 C    1.174     2 C    0.911     5 O    0.193
     4   6 C    3.935 --     5 O    1.749     3 O    1.174     6 C    0.945
     5   8 O    2.073 --     4 C    1.749     3 O    0.193
     6   6 C    3.984 --     7 C    1.461    11 C    1.322     4 C    0.945
     7   6 C    3.956 --     6 C    1.461     8 N    1.314    37 H    0.952
     8   7 N    3.746 --     7 C    1.314     9 C    1.298    25 C    0.953
     9   6 C    3.956 --    10 C    1.501     8 N    1.298    38 H    0.955
    10   6 C    3.981 --     9 C    1.501    11 C    1.352    39 H    0.953
    11   6 C    3.961 --    10 C    1.352     6 C    1.322    12 C    1.032
    12   6 C    3.982 --    11 C    1.032    19 C    0.975    13 C    0.949
                            40 H    0.901
    13   6 C    3.981 --    14 C    1.410    18 C    1.410    12 C    0.949
                            16 C    0.108
    14   6 C    3.991 --    15 C    1.438    13 C    1.410    41 H    0.968
                            17 C    0.109
    15   6 C    3.991 --    16 C    1.442    14 C    1.438    42 H    0.970
                            18 C    0.111
    16   6 C    3.987 --    15 C    1.442    17 C    1.434    43 H    0.970
                            13 C    0.108
    17   6 C    3.988 --    18 C    1.446    16 C    1.434    44 H    0.969
                            14 C    0.109
    18   6 C    3.988 --    17 C    1.446    13 C    1.410    45 H    0.968
                            15 C    0.111
    19   6 C    3.984 --    24 C    1.413    20 C    1.413    12 C    0.975
                            22 C    0.110
    20   6 C    3.990 --    21 C    1.443    19 C    1.413    46 H    0.969
                            23 C    0.111
    21   6 C    3.990 --    20 C    1.443    22 C    1.439    47 H    0.970
                            24 C    0.111
    22   6 C    3.990 --    21 C    1.439    23 C    1.439    48 H    0.970
                            19 C    0.110
    23   6 C    3.991 --    24 C    1.443    22 C    1.439    49 H    0.970
                            20 C    0.111
    24   6 C    3.991 --    23 C    1.443    19 C    1.413    50 H    0.967
                            21 C    0.111
    25   6 C    3.933 --    26 C    0.979    52 H    0.961    51 H    0.954
                             8 N    0.953
    26   6 C    3.975 --    27 C    1.417    31 C    1.409    25 C    0.979
                            29 C    0.109
    27   6 C    3.989 --    28 C    1.438    26 C    1.417    53 H    0.968
                            30 C    0.110
    28   6 C    3.989 --    29 C    1.443    27 C    1.438    54 H    0.968
                            31 C    0.112
    29   6 C    3.988 --    28 C    1.443    30 C    1.435    55 H    0.969
                            26 C    0.109
    30   6 C    3.990 --    31 C    1.448    29 C    1.435    56 H    0.969
                            27 C    0.110
    31   6 C    3.992 --    30 C    1.448    26 C    1.409    57 H    0.970
                            28 C    0.112
    32   1 H    0.996 --     1 C    0.985
    33   1 H    0.994 --     1 C    0.979
    34   1 H    0.996 --     1 C    0.983
    35   1 H    0.994 --     2 C    0.969
    36   1 H    0.995 --     2 C    0.969
    37   1 H    0.988 --     7 C    0.952
    38   1 H    0.988 --     9 C    0.955
    39   1 H    0.989 --    10 C    0.953
    40   1 H    0.986 --    12 C    0.901
    41   1 H    1.000 --    14 C    0.968
    42   1 H    0.997 --    15 C    0.970
    43   1 H    0.997 --    16 C    0.970
    44   1 H    0.996 --    17 C    0.969
    45   1 H    0.997 --    18 C    0.968
    46   1 H    0.999 --    20 C    0.969
    47   1 H    0.997 --    21 C    0.970
    48   1 H    0.997 --    22 C    0.970
    49   1 H    0.997 --    23 C    0.970
    50   1 H    0.999 --    24 C    0.967
    51   1 H    0.990 --    25 C    0.954
    52   1 H    0.992 --    25 C    0.961
    53   1 H    0.998 --    27 C    0.968
    54   1 H    0.996 --    28 C    0.968
    55   1 H    0.996 --    29 C    0.969
    56   1 H    0.996 --    30 C    0.969
    57   1 H    0.999 --    31 C    0.970
 ---------------------------------------------------------------------------

molecular dipole:
                 x           y           z       tot (Debye)
 q only:        5.951      -6.195      -9.201
   full:        5.789      -6.280      -9.336      32.162

           -------------------------------------------------
          | TOTAL ENERGY              -83.874704283692 Eh   |
          | GRADIENT NORM               0.000285147624 Eh/α |
          | HOMO-LUMO GAP               1.440379658162 eV   |
           -------------------------------------------------

 * finished run on 2024/12/20 at 02:04:07.076
