   * xtb version 6.7.1 (edcfbbe) compiled by 'conda@3ef47c1a292c' on 2024-11-25

   ID    Z sym.   atoms
    1    7 N      1-3, 5, 6, 8
    2    6 C      4, 7, 9
    3    1 H      10-14

          program call               : xtb C0054.xyz --opt --namespace C0054 --charge +1
          :  Hamiltonian                  GFN2-xTB          :
 * total energy  :   -25.9186154 Eh     change       -0.1088623E-09 Eh
 * total energy  :   -25.9449041 Eh     change       -0.2628875E-01 Eh
 * total energy  :   -25.9524694 Eh     change       -0.7565276E-02 Eh
 * total energy  :   -25.9549870 Eh     change       -0.2517555E-02 Eh
 * total energy  :   -25.9592291 Eh     change       -0.4242116E-02 Eh
 * total energy  :   -25.9603725 Eh     change       -0.1143418E-02 Eh
 * total energy  :   -25.9613308 Eh     change       -0.9583131E-03 Eh
 * total energy  :   -25.9622815 Eh     change       -0.9506572E-03 Eh
 * total energy  :   -25.9628546 Eh     change       -0.5731025E-03 Eh
 * total energy  :   -25.9633484 Eh     change       -0.4938585E-03 Eh
 * total energy  :   -25.9636016 Eh     change       -0.2531255E-03 Eh
 * total energy  :   -25.9635828 Eh     change        0.1873008E-04 Eh
 * total energy  :   -25.9637800 Eh     change       -0.1972004E-03 Eh
 * total energy  :   -25.9638142 Eh     change       -0.3412532E-04 Eh
 * total energy  :   -25.9638493 Eh     change       -0.3516502E-04 Eh
 * total energy  :   -25.9638717 Eh     change       -0.2237475E-04 Eh
 * total energy  :   -25.9638799 Eh     change       -0.8190032E-05 Eh
 * total energy  :   -25.9638889 Eh     change       -0.8964404E-05 Eh
 * total energy  :   -25.9638923 Eh     change       -0.3455095E-05 Eh
   *** GEOMETRY OPTIMIZATION CONVERGED AFTER 19 ITERATIONS ***

 final structure:
================
14
 xtb: 6.7.1 (edcfbbe)
N            1.59648226189773       -1.34276109590997        0.04699861076088
N            2.50697761495862       -0.70900751057042        0.05551327461808
N            3.58013030303038       -0.18102618802308       -0.07887696264408
C            4.09992400233415        0.92576318186420        0.40975803784862
N            3.55215827762415        1.78909328350600        1.21558021685241
N            4.50505835242851        2.79789701797485        1.43642283055631
C            5.68793266921720        2.33524831663583        0.62775994208111
N            5.42308220754651        1.26549906631189        0.04620551103622
C            4.00718910426349        4.14114095737379        1.06037545952130
H            4.73642506968324        2.81889192378666        2.44267343454277
H            6.59451376584194        2.90700934335773        0.58528811588732
H            3.08710231626710        4.34188303426525        1.60755571998063
H            4.75389256930465        4.89533607090760        1.29901021781785
H            3.79278148560247        4.15630259851954       -0.00765440885930

          :  Hamiltonian                  GFN2-xTB          :
         :: total energy             -25.963892308044 Eh    ::
         :: gradient norm              0.000845680834 Eh/a0 ::
         :: HOMO-LUMO gap              2.752671004272 eV    ::
         :: SCC energy               -26.319172121778 Eh    ::
         :: -> dispersion             -0.009473466873 Eh    ::
         :: repulsion energy           0.355279813734 Eh    ::

    * Orbital Energies and Occupations

         #    Occupation            Energy/Eh            Energy/eV
      -------------------------------------------------------------
         1        2.0000           -0.9410418             -25.6071
       ...           ...                  ...                  ...
        11        2.0000           -0.7834702             -21.3193
        12        2.0000           -0.7688696             -20.9220
        13        2.0000           -0.7569884             -20.5987
        14        2.0000           -0.7253829             -19.7387
        15        2.0000           -0.7168932             -19.5077
        16        2.0000           -0.6915428             -18.8178
        17        2.0000           -0.6840768             -18.6147
        18        2.0000           -0.6720519             -18.2875
        19        2.0000           -0.6501499             -17.6915
        20        2.0000           -0.6331860             -17.2299
        21        2.0000           -0.6228068             -16.9474
        22        2.0000           -0.6067490             -16.5105
        23        2.0000           -0.6024048             -16.3923 (HOMO)
        24                         -0.5012460             -13.6396 (LUMO)
        25                         -0.4369367             -11.8897
        26                         -0.4283470             -11.6559
        27                         -0.3457299              -9.4078
        28                         -0.2735779              -7.4444
        29                         -0.2370687              -6.4510
        30                         -0.1678681              -4.5679
        31                         -0.1540529              -4.1920
        32                         -0.1326606              -3.6099
        33                         -0.0404070              -1.0995
        34                          0.0050648               0.1378
       ...                                ...                  ...
        41                          0.9482774              25.8039
      -------------------------------------------------------------
                  HL-Gap            0.1011588 Eh            2.7527 eV

     #   Z          covCN         q      C6AA      α(0)
     1   7 N        0.992    -0.052    21.857     6.720
     2   7 N        1.983     0.362    16.168     5.963
     3   7 N        1.912    -0.087    23.689     7.216
     4   6 C        3.083     0.251    22.724     7.815
     5   7 N        1.947    -0.251    27.370     7.758
     6   7 N        3.762     0.147    18.749     6.431
     7   6 C        3.008     0.103    25.713     8.318
     8   7 N        1.861    -0.133    24.665     7.361
     9   6 C        3.689    -0.095    22.514     6.791
    10   1 H        0.859     0.244     0.907     1.492
    11   1 H        0.926     0.141     1.455     1.886
    12   1 H        0.925     0.135     1.498     1.914
    13   1 H        0.925     0.117     1.636     2.000
    14   1 H        0.925     0.118     1.626     1.994

Wiberg/Mayer (AO) data.
largest (>0.10) Wiberg bond orders for each atom

     #   Z sym  total        # sym  WBO       # sym  WBO       # sym  WBO
 ---------------------------------------------------------------------------
     1   7 N    2.999 --     2 N    2.339     3 N    0.477     5 N    0.103
     2   7 N    3.854 --     1 N    2.339     3 N    1.475
     3   7 N    3.363 --     2 N    1.475     4 C    1.252     1 N    0.477
                             5 N    0.101
     4   6 C    3.966 --     5 N    1.536     3 N    1.252     8 N    1.034
     5   7 N    2.934 --     4 C    1.536     6 N    1.010     1 N    0.103
                             7 C    0.102     3 N    0.101
     6   7 N    3.811 --     5 N    1.010     9 C    0.921     7 C    0.890
                            10 H    0.884
     7   6 C    3.929 --     8 N    1.930    11 H    0.945     6 N    0.890
                             5 N    0.102
     8   7 N    3.136 --     7 C    1.930     4 C    1.034
     9   6 C    3.884 --    14 H    0.975    13 H    0.971    12 H    0.966
                             6 N    0.921
    10   1 H    0.936 --     6 N    0.884
    11   1 H    0.979 --     7 C    0.945
    12   1 H    0.982 --     9 C    0.966
    13   1 H    0.985 --     9 C    0.971
    14   1 H    0.986 --     9 C    0.975
 ---------------------------------------------------------------------------

molecular dipole:
                 x           y           z       tot (Debye)
 q only:        8.130       4.634       1.962
   full:        8.547       5.099       2.304      25.964

           -------------------------------------------------
          | TOTAL ENERGY              -25.963892308044 Eh   |
          | GRADIENT NORM               0.000845680834 Eh/α |
          | HOMO-LUMO GAP               2.752671004272 eV   |
           -------------------------------------------------

 * finished run on 2024/12/20 at 02:04:10.768
