   * xtb version 6.7.1 (edcfbbe) compiled by 'conda@3ef47c1a292c' on 2024-11-25

   ID    Z sym.   atoms
    1    6 C      1, 2, 4, 5
    2    8 O      3
    3    7 N      6
    4    1 H      7-16

          program call               : xtb C0055.xyz --opt --namespace C0055 --charge +1
          :  Hamiltonian                  GFN2-xTB          :
 * total energy  :   -20.2134319 Eh     change       -0.8307310E-10 Eh
 * total energy  :   -20.2157564 Eh     change       -0.2324534E-02 Eh
 * total energy  :   -20.2161658 Eh     change       -0.4093860E-03 Eh
 * total energy  :   -20.2162482 Eh     change       -0.8233574E-04 Eh
 * total energy  :   -20.2162714 Eh     change       -0.2328302E-04 Eh
 * total energy  :   -20.2162759 Eh     change       -0.4444808E-05 Eh
 * total energy  :   -20.2162772 Eh     change       -0.1354509E-05 Eh
   *** GEOMETRY OPTIMIZATION CONVERGED AFTER 7 ITERATIONS ***

 final structure:
================
16
 xtb: 6.7.1 (edcfbbe)
C           -0.72568190315289       -1.23961545900405       -0.25309723152194
C            0.70766143636193       -1.14782881489223        0.28163099555143
O            1.32786840873868        0.02680435482293       -0.16865775891901
C            0.65981732177202        1.17622986649050        0.27822904543070
C           -0.77605581351008        1.20739044581507       -0.25668476358131
N           -1.47305299795675       -0.03032049239960        0.19530814603755
H           -0.70924802259661       -1.24865146205907       -1.34449445133601
H           -1.21904205130411       -2.14045785203039        0.11151186205102
H            0.70373152214962       -1.18957379666079        1.38157999860731
H            1.30399800689140       -1.97761756920151       -0.09974675344607
H            0.65409083478692        1.22098961439551        1.37804998034549
H            1.22153169312900        2.02873855079312       -0.10559908429802
H           -1.30609685517862        2.08823167883562        0.10531558159396
H           -0.75994531056206        1.21389537953298       -1.34810641557312
H           -2.43620014209290       -0.05067182985278       -0.15923249834582
H           -1.51261612747555       -0.02962261458530        1.22406334740385

          :  Hamiltonian                  GFN2-xTB          :
         :: total energy             -20.216277232478 Eh    ::
         :: gradient norm              0.000533193898 Eh/a0 ::
         :: HOMO-LUMO gap              8.408268497546 eV    ::
         :: SCC energy               -20.438534721769 Eh    ::
         :: -> dispersion             -0.008194237734 Eh    ::
         :: repulsion energy           0.222257489291 Eh    ::

    * Orbital Energies and Occupations

         #    Occupation            Energy/Eh            Energy/eV
      -------------------------------------------------------------
         1        2.0000           -0.9035288             -24.5863
       ...           ...                  ...                  ...
         6        2.0000           -0.8144512             -22.1623
         7        2.0000           -0.7791777             -21.2025
         8        2.0000           -0.7503830             -20.4190
         9        2.0000           -0.7479261             -20.3521
        10        2.0000           -0.7232414             -19.6804
        11        2.0000           -0.7195119             -19.5789
        12        2.0000           -0.7030945             -19.1322
        13        2.0000           -0.6814115             -18.5422
        14        2.0000           -0.6744171             -18.3518
        15        2.0000           -0.6526988             -17.7608
        16        2.0000           -0.6320815             -17.1998
        17        2.0000           -0.6146908             -16.7266
        18        2.0000           -0.5761178             -15.6770 (HOMO)
        19                         -0.2671196              -7.2687 (LUMO)
        20                         -0.1804072              -4.9091
        21                         -0.1593200              -4.3353
        22                         -0.1226158              -3.3365
        23                         -0.1184692              -3.2237
        24                         -0.1051179              -2.8604
        25                         -0.0743363              -2.0228
        26                         -0.0351549              -0.9566
        27                         -0.0234985              -0.6394
        28                         -0.0144430              -0.3930
        29                          0.0025649               0.0698
       ...                                ...                  ...
        34                          0.1264900               3.4420
      -------------------------------------------------------------
                  HL-Gap            0.3089982 Eh            8.4083 eV

     #   Z          covCN         q      C6AA      α(0)
     1   6 C        3.737    -0.043    21.425     6.605
     2   6 C        3.717     0.057    19.742     6.347
     3   8 O        1.702    -0.271    18.502     5.808
     4   6 C        3.717     0.057    19.742     6.347
     5   6 C        3.737    -0.043    21.425     6.605
     6   7 N        3.533    -0.029    21.808     6.936
     7   1 H        0.924     0.117     1.640     2.003
     8   1 H        0.925     0.102     1.763     2.077
     9   1 H        0.923     0.057     2.230     2.335
    10   1 H        0.924     0.111     1.684     2.029
    11   1 H        0.923     0.057     2.230     2.335
    12   1 H        0.924     0.111     1.684     2.029
    13   1 H        0.925     0.102     1.763     2.077
    14   1 H        0.924     0.117     1.640     2.003
    15   1 H        0.859     0.248     0.893     1.480
    16   1 H        0.859     0.250     0.885     1.474

Wiberg/Mayer (AO) data.
largest (>0.10) Wiberg bond orders for each atom

     #   Z sym  total        # sym  WBO       # sym  WBO       # sym  WBO
 ---------------------------------------------------------------------------
     1   6 C    3.910 --     2 C    0.995     8 H    0.968     7 H    0.964
                             6 N    0.936
     2   6 C    3.949 --     3 O    1.001     1 C    0.995     9 H    0.960
                            10 H    0.956
     3   8 O    2.113 --     4 C    1.001     2 C    1.001
     4   6 C    3.949 --     3 O    1.001     5 C    0.995    11 H    0.960
                            12 H    0.956
     5   6 C    3.910 --     4 C    0.995    13 H    0.968    14 H    0.964
                             6 N    0.936
     6   7 N    3.733 --     1 C    0.936     5 C    0.936    15 H    0.915
                            16 H    0.909
     7   1 H    0.986 --     1 C    0.964
     8   1 H    0.990 --     1 C    0.968
     9   1 H    0.997 --     2 C    0.960
    10   1 H    0.988 --     2 C    0.956
    11   1 H    0.997 --     4 C    0.960
    12   1 H    0.988 --     4 C    0.956
    13   1 H    0.990 --     5 C    0.968
    14   1 H    0.986 --     5 C    0.964
    15   1 H    0.939 --     6 N    0.915
    16   1 H    0.938 --     6 N    0.909
 ---------------------------------------------------------------------------

molecular dipole:
                 x           y           z       tot (Debye)
 q only:       -2.318      -0.048       0.384
   full:       -2.758      -0.056       0.588       7.168

           -------------------------------------------------
          | TOTAL ENERGY              -20.216277232478 Eh   |
          | GRADIENT NORM               0.000533193898 Eh/α |
          | HOMO-LUMO GAP               8.408268497546 eV   |
           -------------------------------------------------

 * finished run on 2024/12/20 at 02:04:10.862
