   * xtb version 6.7.1 (edcfbbe) compiled by 'conda@3ef47c1a292c' on 2024-11-25

   ID    Z sym.   atoms
    1    6 C      1-12, 14-21
    2    7 N      13
    3    1 H      22-57

          program call               : xtb C0057.xyz --opt --namespace C0057 --charge +1
          :  Hamiltonian                  GFN2-xTB          :
 * total energy  :   -63.7431239 Eh     change       -0.1087983E-09 Eh
 * total energy  :   -63.7466630 Eh     change       -0.3539107E-02 Eh
 * total energy  :   -63.7473060 Eh     change       -0.6429562E-03 Eh
 * total energy  :   -63.7474118 Eh     change       -0.1057670E-03 Eh
 * total energy  :   -63.7475026 Eh     change       -0.9083431E-04 Eh
 * total energy  :   -63.7475436 Eh     change       -0.4097115E-04 Eh
 * total energy  :   -63.7475877 Eh     change       -0.4408566E-04 Eh
 * total energy  :   -63.7476183 Eh     change       -0.3068117E-04 Eh
 * total energy  :   -63.7476520 Eh     change       -0.3362546E-04 Eh
 * total energy  :   -63.7476775 Eh     change       -0.2557449E-04 Eh
 * total energy  :   -63.7481510 Eh     change       -0.1129879E-04 Eh
 * total energy  :   -63.7481636 Eh     change       -0.1259653E-04 Eh
 * total energy  :   -63.7481761 Eh     change       -0.1245314E-04 Eh
 * total energy  :   -63.7481875 Eh     change       -0.1144521E-04 Eh
 * total energy  :   -63.7481976 Eh     change       -0.1004330E-04 Eh
 * total energy  :   -63.7482068 Eh     change       -0.9181560E-05 Eh
 * total energy  :   -63.7482145 Eh     change       -0.7704529E-05 Eh
 * total energy  :   -63.7482204 Eh     change       -0.5890983E-05 Eh
 * total energy  :   -63.7482245 Eh     change       -0.4148452E-05 Eh
   *** GEOMETRY OPTIMIZATION CONVERGED AFTER 41 ITERATIONS ***

 final structure:
================
57
 xtb: 6.7.1 (edcfbbe)
C            1.17339498952097       -0.23376417056334       -0.43209275951386
C            0.89117130317380       -1.21417540994727        0.70006872845185
C            1.36585675724237       -0.71270193212922        2.06489142991535
C            0.70567261590531        0.58268199829289        2.54207396598988
C           -0.81941843845736        0.52885424066747        2.64846345149150
C           -1.36166054776421       -0.54990981615263        3.58787219655165
C           -0.91617400225171       -0.41808903976339        5.04569822558525
C           -1.30284831883414        0.89892929820742        5.72219364056336
C           -2.79861059604974        1.22393845601112        5.69569139817744
C           -3.69804299995900        0.15540949259655        6.32211610027976
C           -3.47490179531607       -0.07292874814252        7.81681497734219
C           -3.91375567959792        1.10604841593152        8.69768742008137
N           -5.34777666544695        1.30522270696200        8.60021716167999
C           -6.17406715100966        0.53784848520094        9.32357651399899
C           -7.53861646321662        0.63244790756952        9.19328974239085
C           -8.09916108322248        1.53906442711282        8.28716375068234
C           -7.20781582475902        2.32374718175397        7.54916666354334
C           -5.85137219256083        2.18514589425981        7.72484549617362
C           -9.56416439992955        1.63190487914995        8.07207803390752
C           -9.97357663486313        0.87137843206941        6.79222808952121
C           -9.73642145198040       -0.62771050473312        6.90538723025714
H            0.58659175447989        0.67507826370992       -0.32236304257999
H            0.92206411550283       -0.68332848916836       -1.38995651341212
H            2.22719597093163        0.03587599110659       -0.44729201961112
H           -0.17769295243118       -1.43356629509304        0.73381865637717
H            1.40700017901706       -2.15379125211387        0.48861303580669
H            1.19989723849980       -1.49955702868024        2.80404709758408
H            2.44376236294486       -0.54080821910851        2.01513249045080
H            1.12901954698208        0.84427142208696        3.51456395923350
H            0.96823512019151        1.38912837442898        1.85524086086909
H           -1.17492336872096        1.50943728630302        2.97414123511420
H           -1.23931982002173        0.35420998497002        1.65643888235642
H           -2.45334841459371       -0.53500151770812        3.53585441229828
H           -1.04247725146784       -1.52829546885683        3.22601303892974
H           -1.33057443660720       -1.25661021172904        5.61103322662008
H            0.16924653037278       -0.51222493166266        5.09527753860642
H           -0.94790061539891        0.87402989922748        6.75556503804478
H           -0.77698892330605        1.71781697948117        5.22966702155799
H           -2.94554723444490        2.18599590834171        6.19466425250981
H           -3.11070043609332        1.35564239852793        4.65924869257866
H           -4.74553075246119        0.41762168929878        6.13985749069412
H           -3.51964065136135       -0.78980463770756        5.81044519015146
H           -4.01775383681734       -0.96804141666278        8.12872298949992
H           -2.41625357596363       -0.24796707742903        8.00295482970628
H           -3.65582967749505        0.90202644461448        9.73866576600862
H           -3.40424636909076        2.01723524849227        8.38371731327919
H           -5.71986951689125       -0.15667680415733       10.01478414750790
H           -8.17320821755656        0.00176363034008        9.79536024967712
H           -7.57814554579860        3.04563803548629        6.83838840712817
H           -5.14834754803727        2.78718799950467        7.16916900396021
H          -10.10107385119723        1.20907413935611        8.92110038011297
H           -9.85242527971877        2.67772111659734        7.95559241324400
H          -11.03384561912813        1.05640261744320        6.62159074758493
H           -9.42199498629036        1.27103473887067        5.93945394295517
H          -10.26648702225952       -1.03795091319669        7.76123074696204
H          -10.10288965141059       -1.12674249691642        6.01284020526080
H           -8.67726868496742       -0.85667760237059        7.00944685593797

          :  Hamiltonian                  GFN2-xTB          :
         :: total energy             -63.748224500789 Eh    ::
         :: gradient norm              0.000376290565 Eh/a0 ::
         :: HOMO-LUMO gap              0.757980592368 eV    ::
         :: SCC energy               -64.749835166122 Eh    ::
         :: -> dispersion             -0.048440725632 Eh    ::
         :: repulsion energy           1.001610665333 Eh    ::

    * Orbital Energies and Occupations

         #    Occupation            Energy/Eh            Energy/eV
      -------------------------------------------------------------
         1        2.0000           -0.8654966             -23.5514
       ...           ...                  ...                  ...
        48        2.0000           -0.5459263             -14.8554
        49        2.0000           -0.5399564             -14.6930
        50        2.0000           -0.5325082             -14.4903
        51        2.0000           -0.5302160             -14.4279
        52        2.0000           -0.5186754             -14.1139
        53        2.0000           -0.5146488             -14.0043
        54        2.0000           -0.5075976             -13.8124
        55        2.0000           -0.4977422             -13.5443
        56        2.0000           -0.4938499             -13.4383
        57        2.0000           -0.4903905             -13.3442
        58        2.0000           -0.4749351             -12.9236
        59        2.0000           -0.4713449             -12.8259
        60        2.0000           -0.4691164             -12.7653 (HOMO)
        61        0.0000           -0.4412612             -12.0073 (LUMO)
        62                         -0.4128445             -11.2341
        63                         -0.2952068              -8.0330
        64                         -0.1575458              -4.2870
        65                         -0.0747573              -2.0342
        66                         -0.0575284              -1.5654
        67                         -0.0451922              -1.2297
        68                         -0.0310099              -0.8438
        69                         -0.0292792              -0.7967
        70                         -0.0233644              -0.6358
        71                         -0.0119719              -0.3258
       ...                                ...                  ...
       120                          0.4501137              12.2482
      -------------------------------------------------------------
                  HL-Gap            0.0278553 Eh            0.7580 eV

     #   Z          covCN         q      C6AA      α(0)
     1   6 C        3.751    -0.103    22.520     6.768
     2   6 C        3.799    -0.052    21.517     6.605
     3   6 C        3.801    -0.058    21.619     6.620
     4   6 C        3.800    -0.058    21.617     6.620
     5   6 C        3.800    -0.057    21.605     6.618
     6   6 C        3.800    -0.058    21.627     6.621
     7   6 C        3.800    -0.060    21.660     6.626
     8   6 C        3.800    -0.061    21.673     6.628
     9   6 C        3.800    -0.061    21.670     6.628
    10   6 C        3.800    -0.065    21.742     6.639
    11   6 C        3.801    -0.068    21.811     6.649
    12   6 C        3.758    -0.033    21.205     6.565
    13   7 N        2.750     0.098    19.554     6.568
    14   6 C        2.891     0.029    27.350     8.574
    15   6 C        2.920    -0.025    28.636     8.775
    16   6 C        2.974     0.068    26.472     8.440
    17   6 C        2.921    -0.027    28.668     8.780
    18   6 C        2.889     0.031    27.317     8.569
    19   6 C        3.808    -0.075    21.926     6.666
    20   6 C        3.802    -0.053    21.517     6.604
    21   6 C        3.752    -0.112    22.695     6.794
    22   1 H        0.925     0.033     2.542     2.493
    23   1 H        0.925     0.034     2.533     2.489
    24   1 H        0.925     0.036     2.502     2.473
    25   1 H        0.924     0.029     2.607     2.525
    26   1 H        0.924     0.030     2.591     2.517
    27   1 H        0.924     0.027     2.630     2.536
    28   1 H        0.924     0.032     2.552     2.498
    29   1 H        0.924     0.027     2.635     2.539
    30   1 H        0.924     0.036     2.508     2.476
    31   1 H        0.924     0.024     2.680     2.560
    32   1 H        0.924     0.036     2.503     2.474
    33   1 H        0.924     0.022     2.706     2.573
    34   1 H        0.924     0.039     2.456     2.451
    35   1 H        0.924     0.024     2.672     2.556
    36   1 H        0.924     0.043     2.406     2.425
    37   1 H        0.924     0.025     2.656     2.549
    38   1 H        0.924     0.046     2.373     2.409
    39   1 H        0.924     0.017     2.776     2.606
    40   1 H        0.924     0.049     2.332     2.388
    41   1 H        0.924     0.020     2.740     2.589
    42   1 H        0.925     0.065     2.143     2.289
    43   1 H        0.924     0.048     2.339     2.392
    44   1 H        0.925     0.082     1.963     2.191
    45   1 H        0.924     0.084     1.937     2.176
    46   1 H        0.925     0.091     1.869     2.138
    47   1 H        0.926     0.101     1.779     2.086
    48   1 H        0.926     0.099     1.795     2.095
    49   1 H        0.926     0.097     1.812     2.105
    50   1 H        0.926     0.104     1.752     2.070
    51   1 H        0.925     0.074     2.044     2.236
    52   1 H        0.924     0.078     2.005     2.214
    53   1 H        0.925     0.066     2.125     2.280
    54   1 H        0.924     0.046     2.374     2.410
    55   1 H        0.925     0.050     2.317     2.381
    56   1 H        0.925     0.060     2.200     2.320
    57   1 H        0.925     0.028     2.612     2.527

Wiberg/Mayer (AO) data.
largest (>0.10) Wiberg bond orders for each atom

     #   Z sym  total        # sym  WBO       # sym  WBO       # sym  WBO
 ---------------------------------------------------------------------------
     1   6 C    3.997 --     2 C    1.020    24 H    0.987    23 H    0.987
                            22 H    0.986
     2   6 C    3.998 --     1 C    1.020     3 C    1.008    26 H    0.978
                            25 H    0.976
     3   6 C    3.997 --     2 C    1.008     4 C    1.008    28 H    0.977
                            27 H    0.976
     4   6 C    3.997 --     5 C    1.008     3 C    1.008    29 H    0.975
                            30 H    0.975
     5   6 C    3.997 --     4 C    1.008     6 C    1.008    31 H    0.975
                            32 H    0.974
     6   6 C    3.997 --     5 C    1.008     7 C    1.008    33 H    0.975
                            34 H    0.974
     7   6 C    3.996 --     6 C    1.008     8 C    1.007    35 H    0.975
                            36 H    0.973
     8   6 C    3.995 --     7 C    1.007     9 C    1.007    37 H    0.975
                            38 H    0.973
     9   6 C    3.995 --    10 C    1.007     8 C    1.007    39 H    0.973
                            40 H    0.973
    10   6 C    3.993 --    11 C    1.009     9 C    1.007    41 H    0.972
                            42 H    0.966
    11   6 C    3.981 --    10 C    1.009    12 C    0.975    43 H    0.974
                            44 H    0.961
    12   6 C    3.935 --    11 C    0.975    13 N    0.965    45 H    0.963
                            46 H    0.961
    13   7 N    3.753 --    14 C    1.309    18 C    1.308    12 C    0.965
    14   6 C    3.960 --    15 C    1.493    13 N    1.309    47 H    0.956
    15   6 C    3.984 --    14 C    1.493    16 C    1.359    48 H    0.959
    16   6 C    3.966 --    17 C    1.366    15 C    1.359    19 C    1.047
    17   6 C    3.984 --    18 C    1.487    16 C    1.366    49 H    0.959
    18   6 C    3.958 --    17 C    1.487    13 N    1.308    50 H    0.953
    19   6 C    3.987 --    16 C    1.047    51 H    0.968    52 H    0.954
                            20 C    0.953
    20   6 C    3.987 --    21 C    1.023    54 H    0.977    53 H    0.971
                            19 C    0.953
    21   6 C    3.994 --    20 C    1.023    57 H    0.987    55 H    0.986
                            56 H    0.982
    22   1 H    0.999 --     1 C    0.986
    23   1 H    0.999 --     1 C    0.987
    24   1 H    0.999 --     1 C    0.987
    25   1 H    0.999 --     2 C    0.976
    26   1 H    0.999 --     2 C    0.978
    27   1 H    0.999 --     3 C    0.976
    28   1 H    0.999 --     3 C    0.977
    29   1 H    0.999 --     4 C    0.975
    30   1 H    0.999 --     4 C    0.975
    31   1 H    0.999 --     5 C    0.975
    32   1 H    0.999 --     5 C    0.974
    33   1 H    0.999 --     6 C    0.975
    34   1 H    0.998 --     6 C    0.974
    35   1 H    0.999 --     7 C    0.975
    36   1 H    0.998 --     7 C    0.973
    37   1 H    0.999 --     8 C    0.975
    38   1 H    0.998 --     8 C    0.973
    39   1 H    1.000 --     9 C    0.973
    40   1 H    0.998 --     9 C    0.973
    41   1 H    1.000 --    10 C    0.972
    42   1 H    0.995 --    10 C    0.966
    43   1 H    0.998 --    11 C    0.974
    44   1 H    0.992 --    11 C    0.961
    45   1 H    0.992 --    12 C    0.963
    46   1 H    0.991 --    12 C    0.961
    47   1 H    0.990 --    14 C    0.956
    48   1 H    0.990 --    15 C    0.959
    49   1 H    0.990 --    17 C    0.959
    50   1 H    0.989 --    18 C    0.953
    51   1 H    0.994 --    19 C    0.968
    52   1 H    0.993 --    19 C    0.954
    53   1 H    0.994 --    20 C    0.971
    54   1 H    0.998 --    20 C    0.977
    55   1 H    0.997 --    21 C    0.986
    56   1 H    0.995 --    21 C    0.982
    57   1 H    0.999 --    21 C    0.987
 ---------------------------------------------------------------------------

molecular dipole:
                 x           y           z       tot (Debye)
 q only:      -11.537       2.133      15.191
   full:      -11.496       2.198      15.323      49.008

           -------------------------------------------------
          | TOTAL ENERGY              -63.748224500789 Eh   |
          | GRADIENT NORM               0.000376290565 Eh/α |
          | HOMO-LUMO GAP               0.757980592368 eV   |
           -------------------------------------------------

 * finished run on 2024/12/20 at 02:04:15.188
