   * xtb version 6.7.1 (edcfbbe) compiled by 'conda@3ef47c1a292c' on 2024-11-25

   ID    Z sym.   atoms
    1    6 C      1, 3, 6, 7
    2    7 N      2, 4, 5
    3    1 H      8-15

          program call               : xtb C0059.xyz --opt --namespace C0059 --charge +1
          :  Hamiltonian                  GFN2-xTB          :
 * total energy  :   -21.0039176 Eh     change       -0.7005951E-11 Eh
 * total energy  :   -21.0072433 Eh     change       -0.3325738E-02 Eh
 * total energy  :   -21.0079294 Eh     change       -0.6860958E-03 Eh
 * total energy  :   -21.0080038 Eh     change       -0.7436164E-04 Eh
 * total energy  :   -21.0080335 Eh     change       -0.2973977E-04 Eh
 * total energy  :   -21.0080364 Eh     change       -0.2908305E-05 Eh
   *** GEOMETRY OPTIMIZATION CONVERGED AFTER 6 ITERATIONS ***

 final structure:
================
15
 xtb: 6.7.1 (edcfbbe)
C            0.96080589274667       -0.09258308797896        0.07050211714545
N            0.60998669183964       -1.34496053981847        0.68364442454747
C           -0.23217610870534       -1.54355544520391        1.73218145409388
N           -0.31976277049435       -2.80721313481261        2.01362902844994
N            0.46341664345257       -3.43771183506230        1.15037391826169
C            1.03679363140293       -2.56498424271145        0.33363625621661
C            0.59448659968127       -4.86554070748596        1.18546971287591
H            0.56701737539300        0.72569122869286        0.66939435641170
H            0.53888639103038       -0.03171204107772       -0.93393220681421
H            2.04425157976408        0.00330510055957        0.00025220999357
H           -0.75357379126362       -0.76985115000173        2.25887884365047
H            1.71955788211460       -2.79170227860705       -0.46233440563764
H            0.20204510357632       -5.30939804188978        0.27003994231667
H            1.63954238279803       -5.15278156817735        1.29952216829207
H            0.02083249666383       -5.22910225642514        2.03622218019641

          :  Hamiltonian                  GFN2-xTB          :
         :: total energy             -21.008036399940 Eh    ::
         :: gradient norm              0.000749391687 Eh/a0 ::
         :: HOMO-LUMO gap              4.503847680232 eV    ::
         :: SCC energy               -21.298279143375 Eh    ::
         :: -> dispersion             -0.008430341775 Eh    ::
         :: repulsion energy           0.290242743435 Eh    ::

    * Orbital Energies and Occupations

         #    Occupation            Energy/Eh            Energy/eV
      -------------------------------------------------------------
         1        2.0000           -0.9394549             -25.5639
       ...           ...                  ...                  ...
         7        2.0000           -0.7914633             -21.5368
         8        2.0000           -0.7913565             -21.5339
         9        2.0000           -0.7417917             -20.1852
        10        2.0000           -0.7257509             -19.7487
        11        2.0000           -0.7202485             -19.5990
        12        2.0000           -0.7147966             -19.4506
        13        2.0000           -0.6945667             -18.9001
        14        2.0000           -0.6679105             -18.1748
        15        2.0000           -0.6634218             -18.0526
        16        2.0000           -0.6516179             -17.7314
        17        2.0000           -0.6372550             -17.3406
        18        2.0000           -0.6241187             -16.9831
        19        2.0000           -0.6071226             -16.5206 (HOMO)
        20                         -0.4416093             -12.0168 (LUMO)
        21                         -0.4141832             -11.2705
        22                         -0.2110347              -5.7425
        23                         -0.1579083              -4.2969
        24                         -0.0987539              -2.6872
        25                         -0.0678990              -1.8476
        26                         -0.0247797              -0.6743
        27                         -0.0161725              -0.4401
        28                         -0.0116024              -0.3157
        29                          0.0043327               0.1179
        30                          0.0324880               0.8840
       ...                                ...                  ...
        36                          0.3451967               9.3933
      -------------------------------------------------------------
                  HL-Gap            0.1655134 Eh            4.5038 eV

     #   Z          covCN         q      C6AA      α(0)
     1   6 C        3.690    -0.087    22.364     6.768
     2   7 N        2.853     0.066    20.083     6.656
     3   6 C        3.147     0.085    25.850     8.317
     4   7 N        2.046    -0.137    24.658     7.366
     5   7 N        3.057     0.168    18.426     6.375
     6   6 C        3.069     0.045    26.917     8.507
     7   6 C        3.692    -0.101    22.630     6.807
     8   1 H        0.925     0.112     1.676     2.024
     9   1 H        0.924     0.113     1.674     2.024
    10   1 H        0.925     0.111     1.689     2.033
    11   1 H        0.926     0.127     1.554     1.950
    12   1 H        0.926     0.129     1.539     1.940
    13   1 H        0.924     0.117     1.636     2.000
    14   1 H        0.925     0.116     1.649     2.008
    15   1 H        0.925     0.136     1.493     1.911

Wiberg/Mayer (AO) data.
largest (>0.10) Wiberg bond orders for each atom

     #   Z sym  total        # sym  WBO       # sym  WBO       # sym  WBO
 ---------------------------------------------------------------------------
     1   6 C    3.924 --     2 N    0.986     8 H    0.972    10 H    0.963
                             9 H    0.957
     2   7 N    3.722 --     6 C    1.336     3 C    1.248     1 C    0.986
     3   6 C    3.947 --     4 N    1.583     2 N    1.248    11 H    0.952
     4   7 N    3.029 --     3 C    1.583     5 N    1.218     6 C    0.100
     5   7 N    3.759 --     6 C    1.405     4 N    1.218     7 C    0.986
     6   6 C    3.948 --     5 N    1.405     2 N    1.336    12 H    0.950
                             4 N    0.100
     7   6 C    3.916 --     5 N    0.986    15 H    0.966    14 H    0.958
                            13 H    0.955
     8   1 H    0.987 --     1 C    0.972
     9   1 H    0.987 --     1 C    0.957
    10   1 H    0.987 --     1 C    0.963
    11   1 H    0.984 --     3 C    0.952
    12   1 H    0.983 --     6 C    0.950
    13   1 H    0.986 --     7 C    0.955
    14   1 H    0.986 --     7 C    0.958
    15   1 H    0.981 --     7 C    0.966
 ---------------------------------------------------------------------------

molecular dipole:
                 x           y           z       tot (Debye)
 q only:        1.396      -4.413       1.238
   full:        1.604      -4.174       0.944      11.617

           -------------------------------------------------
          | TOTAL ENERGY              -21.008036399940 Eh   |
          | GRADIENT NORM               0.000749391687 Eh/α |
          | HOMO-LUMO GAP               4.503847680232 eV   |
           -------------------------------------------------

 * finished run on 2024/12/20 at 02:04:18.191
