   * xtb version 6.7.1 (edcfbbe) compiled by 'conda@3ef47c1a292c' on 2024-11-25

   ID    Z sym.   atoms
    1    6 C      1, 3-14
    2    7 N      2
    3    1 H      15-28

          program call               : xtb C0068.xyz --opt --namespace C0068 --charge +1
          :  Hamiltonian                  GFN2-xTB          :
 * total energy  :   -37.4833410 Eh     change       -0.9870931E-09 Eh
 * total energy  :   -37.4871401 Eh     change       -0.3799140E-02 Eh
 * total energy  :   -37.4877967 Eh     change       -0.6566016E-03 Eh
 * total energy  :   -37.4879152 Eh     change       -0.1185427E-03 Eh
 * total energy  :   -37.4879934 Eh     change       -0.7819528E-04 Eh
 * total energy  :   -37.4880365 Eh     change       -0.4308799E-04 Eh
 * total energy  :   -37.4880787 Eh     change       -0.4213101E-04 Eh
 * total energy  :   -37.4881228 Eh     change       -0.4414494E-04 Eh
 * total energy  :   -37.4881806 Eh     change       -0.5781756E-04 Eh
 * total energy  :   -37.4882127 Eh     change       -0.3203910E-04 Eh
 * total energy  :   -37.4882667 Eh     change       -0.5408491E-04 Eh
 * total energy  :   -37.4883176 Eh     change       -0.5083693E-04 Eh
 * total energy  :   -37.4883556 Eh     change       -0.3797388E-04 Eh
 * total energy  :   -37.4883765 Eh     change       -0.2094070E-04 Eh
 * total energy  :   -37.4883866 Eh     change       -0.1013960E-04 Eh
 * total energy  :   -37.4883923 Eh     change       -0.5661844E-05 Eh
 * total energy  :   -37.4883964 Eh     change       -0.4141493E-05 Eh
   *** GEOMETRY OPTIMIZATION CONVERGED AFTER 17 ITERATIONS ***

 final structure:
================
28
 xtb: 6.7.1 (edcfbbe)
C           -2.30838513694081        0.22885323291402        0.20761635575017
N           -0.87164034813089        0.08486368161683        0.13397648222677
C           -0.34006694590499       -1.05445539713060       -0.33376045582966
C            1.01876170128843       -1.23066366957622       -0.41409176611259
C            1.88978206655017       -0.21237963678833       -0.00633968416401
C            1.29962697841956        0.95515147971936        0.49334323725605
C           -0.06693202511778        1.07310349427488        0.55050100718407
C            3.36216121618868       -0.38688193459445       -0.03208450733585
C            3.76824246165419       -0.88800516502637        1.34871516007582
C            4.14235783259563        0.01082965694815        2.33723966480106
C            4.52993713356790       -0.44879216239421        3.58414939666683
C            4.53309594814499       -1.80684969124786        3.85395125531313
C            4.14957806139837       -2.70543940202411        2.87273825254525
C            3.76086549886609       -2.24777029260860        1.62553350812304
H           -2.77974621546874       -0.23872313786914       -0.65546823892695
H           -2.68833438551966       -0.25167585250998        1.11159393817343
H           -2.58333301073986        1.28115511493899        0.23262504427451
H           -1.02888306565140       -1.82262690554723       -0.65282354655228
H            1.40810117196816       -2.15671631109049       -0.80595602436521
H            1.91431835735187        1.77464697730793        0.82967816334638
H           -0.53901680005283        1.96934979070522        0.92446199688021
H            3.65420192122758       -1.11759949091191       -0.78539743093448
H            3.86098006420780        0.56103753322708       -0.23162576682561
H            4.15892811865444        1.07082607787808        2.12997300041916
H            4.83574748377008        0.25564698236980        4.34198284017736
H            4.83833921282993       -2.16430572964588        4.82493394132927
H            4.15753840178391       -3.76525484043068        3.07480680957967
H            3.47499430305897       -2.95561440250309        0.86124736692453

          :  Hamiltonian                  GFN2-xTB          :
         :: total energy             -37.488396442360 Eh    ::
         :: gradient norm              0.000267624295 Eh/a0 ::
         :: HOMO-LUMO gap              1.718981391831 eV    ::
         :: SCC energy               -38.177068157095 Eh    ::
         :: -> dispersion             -0.024730118937 Eh    ::
         :: repulsion energy           0.688671714734 Eh    ::

    * Orbital Energies and Occupations

         #    Occupation            Energy/Eh            Energy/eV
      -------------------------------------------------------------
         1        2.0000           -0.8717718             -23.7221
       ...           ...                  ...                  ...
        23        2.0000           -0.6228077             -16.9475
        24        2.0000           -0.6106164             -16.6157
        25        2.0000           -0.6081387             -16.5483
        26        2.0000           -0.6061841             -16.4951
        27        2.0000           -0.5962583             -16.2250
        28        2.0000           -0.5850851             -15.9210
        29        2.0000           -0.5793804             -15.7657
        30        2.0000           -0.5788247             -15.7506
        31        2.0000           -0.5780799             -15.7304
        32        2.0000           -0.5307211             -14.4417
        33        2.0000           -0.5268076             -14.3352
        34        2.0000           -0.5108069             -13.8998
        35        2.0000           -0.5086194             -13.8402 (HOMO)
        36                         -0.4454480             -12.1213 (LUMO)
        37                         -0.4169269             -11.3452
        38                         -0.3319553              -9.0330
        39                         -0.3291178              -8.9558
        40                         -0.2969400              -8.0801
        41                         -0.1998965              -5.4395
        42                         -0.1633946              -4.4462
        43                         -0.0707100              -1.9241
        44                         -0.0428660              -1.1664
        45                         -0.0279008              -0.7592
        46                         -0.0210757              -0.5735
       ...                                ...                  ...
        70                          0.5577610              15.1774
      -------------------------------------------------------------
                  HL-Gap            0.0631714 Eh            1.7190 eV

     #   Z          covCN         q      C6AA      α(0)
     1   6 C        3.708    -0.092    22.405     6.765
     2   7 N        2.748     0.103    19.470     6.553
     3   6 C        2.890     0.027    27.405     8.583
     4   6 C        2.920    -0.025    28.639     8.776
     5   6 C        2.983     0.069    26.442     8.435
     6   6 C        2.920    -0.026    28.641     8.776
     7   6 C        2.888     0.027    27.397     8.581
     8   6 C        3.813    -0.077    21.953     6.669
     9   6 C        2.982     0.014    27.685     8.631
    10   6 C        2.923    -0.038    28.939     8.822
    11   6 C        2.920    -0.023    28.590     8.768
    12   6 C        2.920    -0.023    28.568     8.765
    13   6 C        2.920    -0.024    28.592     8.769
    14   6 C        2.923    -0.038    28.942     8.822
    15   1 H        0.925     0.105     1.736     2.060
    16   1 H        0.924     0.109     1.709     2.045
    17   1 H        0.925     0.104     1.750     2.068
    18   1 H        0.926     0.104     1.750     2.069
    19   1 H        0.926     0.100     1.787     2.090
    20   1 H        0.926     0.100     1.781     2.087
    21   1 H        0.926     0.103     1.755     2.072
    22   1 H        0.925     0.079     1.994     2.208
    23   1 H        0.925     0.081     1.967     2.193
    24   1 H        0.926     0.039     2.468     2.457
    25   1 H        0.926     0.054     2.274     2.358
    26   1 H        0.926     0.056     2.243     2.342
    27   1 H        0.926     0.053     2.279     2.361
    28   1 H        0.926     0.038     2.479     2.462

Wiberg/Mayer (AO) data.
largest (>0.10) Wiberg bond orders for each atom

     #   Z sym  total        # sym  WBO       # sym  WBO       # sym  WBO
 ---------------------------------------------------------------------------
     1   6 C    3.933 --     2 N    0.986    17 H    0.972    15 H    0.968
                            16 H    0.956
     2   7 N    3.745 --     7 C    1.303     3 C    1.301     1 C    0.986
     3   6 C    3.955 --     4 C    1.503     2 N    1.301    18 H    0.956
     4   6 C    3.982 --     3 C    1.503     5 C    1.350    19 H    0.959
     5   6 C    3.967 --     6 C    1.352     4 C    1.350     8 C    1.041
     6   6 C    3.983 --     7 C    1.500     5 C    1.352    20 H    0.958
     7   6 C    3.956 --     6 C    1.500     2 N    1.303    21 H    0.955
     8   6 C    3.984 --     5 C    1.041    22 H    0.962    23 H    0.957
                             9 C    0.937
     9   6 C    3.977 --    10 C    1.412    14 C    1.411     8 C    0.937
                            12 C    0.107
    10   6 C    3.988 --    11 C    1.441     9 C    1.412    24 H    0.968
                            13 C    0.110
    11   6 C    3.988 --    10 C    1.441    12 C    1.438    25 H    0.968
                            14 C    0.110
    12   6 C    3.985 --    11 C    1.438    13 C    1.438    26 H    0.969
                             9 C    0.107
    13   6 C    3.988 --    14 C    1.442    12 C    1.438    27 H    0.969
                            10 C    0.110
    14   6 C    3.989 --    13 C    1.442     9 C    1.411    28 H    0.968
                            11 C    0.110
    15   1 H    0.988 --     1 C    0.968
    16   1 H    0.986 --     1 C    0.956
    17   1 H    0.989 --     1 C    0.972
    18   1 H    0.989 --     3 C    0.956
    19   1 H    0.990 --     4 C    0.959
    20   1 H    0.990 --     6 C    0.958
    21   1 H    0.989 --     7 C    0.955
    22   1 H    0.993 --     8 C    0.962
    23   1 H    0.993 --     8 C    0.957
    24   1 H    0.998 --    10 C    0.968
    25   1 H    0.996 --    11 C    0.968
    26   1 H    0.995 --    12 C    0.969
    27   1 H    0.996 --    13 C    0.969
    28   1 H    0.998 --    14 C    0.968
 ---------------------------------------------------------------------------

molecular dipole:
                 x           y           z       tot (Debye)
 q only:        0.638      -0.314       0.833
   full:        0.531      -0.294       0.797       2.548

           -------------------------------------------------
          | TOTAL ENERGY              -37.488396442360 Eh   |
          | GRADIENT NORM               0.000267624295 Eh/α |
          | HOMO-LUMO GAP               1.718981391831 eV   |
           -------------------------------------------------

 * finished run on 2024/12/20 at 02:04:44.697
