   * xtb version 6.7.1 (edcfbbe) compiled by 'conda@3ef47c1a292c' on 2024-11-25

   ID    Z sym.   atoms
    1    6 C      1-3, 5-10
    2    7 N      4
    3    1 H      11-30

          program call               : xtb C0065.xyz --opt --namespace C0065 --charge +1
          :  Hamiltonian                  GFN2-xTB          :
 * total energy  :   -32.0083788 Eh     change       -0.3422684E-10 Eh
 * total energy  :   -32.0142415 Eh     change       -0.5862766E-02 Eh
 * total energy  :   -32.0156151 Eh     change       -0.1373600E-02 Eh
 * total energy  :   -32.0156707 Eh     change       -0.5560711E-04 Eh
 * total energy  :   -32.0156880 Eh     change       -0.1723401E-04 Eh
 * total energy  :   -32.0156951 Eh     change       -0.7074588E-05 Eh
 * total energy  :   -32.0157004 Eh     change       -0.5342483E-05 Eh
 * total energy  :   -32.0157023 Eh     change       -0.1869404E-05 Eh
   *** GEOMETRY OPTIMIZATION CONVERGED AFTER 8 ITERATIONS ***

 final structure:
================
30
 xtb: 6.7.1 (edcfbbe)
C            0.80458841143727        0.10616686689274        0.54680678099210
C            0.48792473922118        1.39406896009798       -0.20723178237446
C            1.02138623604170        1.51509206274127       -1.63803774817245
N            0.47760952515681        0.61684534594945       -2.71463374893284
C            0.80182222735501        1.26277622847920       -4.00245453491871
C            1.13319438245851       -0.72167557868103       -2.65070526724401
C            0.57090314846689       -1.72905629852092       -3.64956050269247
C           -0.93892308796746       -1.86988528578448       -3.48688833810965
C           -1.59773566418846       -0.49895611950190       -3.59881731062569
C           -0.99492037869819        0.45387736122683       -2.57271741362950
H            0.18041991303518       -0.72886509032109        0.23630987522576
H            0.61547249877193        0.26297454824817        1.60528803246657
H            1.85169658154942       -0.16564831519914        0.43735740207140
H           -0.58341005628495        1.59307176290115       -0.17281780978818
H            0.96947691074741        2.21637180171151        0.32729703423038
H            0.82180501648768        2.53971867789865       -1.95915380892665
H            2.10411310750481        1.37117936632506       -1.62346690070888
H            0.25594818150395        2.19940490738501       -4.09982300157921
H            1.86931780504043        1.47009880276846       -4.05204441453923
H            0.53558708316373        0.62035523532042       -4.83565031231148
H            0.99127025791785       -1.11090373215709       -1.64416425243502
H            2.20261716065271       -0.58405093724959       -2.82125464901123
H            1.05763064827282       -2.68607901877750       -3.45918283265361
H            0.81399689393124       -1.45012051792306       -4.67506763074900
H           -1.33429894954013       -2.53926082852217       -4.24881715951382
H           -1.16574158791468       -2.30732865938552       -2.51294201416943
H           -1.49901550519225       -0.10944486688983       -4.61185781299899
H           -2.66484631984336       -0.57923517906905       -3.39011994089155
H           -1.45543169181025        1.44099384507288       -2.64362408325469
H           -1.18841748727680        0.04573465496352       -1.58068585475552

          :  Hamiltonian                  GFN2-xTB          :
         :: total energy             -32.015702265771 Eh    ::
         :: gradient norm              0.000339439458 Eh/a0 ::
         :: HOMO-LUMO gap              9.171984565223 eV    ::
         :: SCC energy               -32.470134002321 Eh    ::
         :: -> dispersion             -0.022633469874 Eh    ::
         :: repulsion energy           0.454431736551 Eh    ::

    * Orbital Energies and Occupations

         #    Occupation            Energy/Eh            Energy/eV
      -------------------------------------------------------------
         1        2.0000           -0.8580428             -23.3485
       ...           ...                  ...                  ...
        18        2.0000           -0.6463931             -17.5893
        19        2.0000           -0.6447452             -17.5444
        20        2.0000           -0.6392603             -17.3952
        21        2.0000           -0.6364477             -17.3186
        22        2.0000           -0.6318127             -17.1925
        23        2.0000           -0.6262950             -17.0424
        24        2.0000           -0.6044736             -16.4486
        25        2.0000           -0.5981919             -16.2776
        26        2.0000           -0.5841776             -15.8963
        27        2.0000           -0.5835695             -15.8797
        28        2.0000           -0.5817953             -15.8315
        29        2.0000           -0.5778432             -15.7239
        30        2.0000           -0.5705767             -15.5262 (HOMO)
        31                         -0.2335125              -6.3542 (LUMO)
        32                         -0.1613764              -4.3913
        33                         -0.1572427              -4.2788
        34                         -0.1467146              -3.9923
        35                         -0.0784568              -2.1349
        36                         -0.0693039              -1.8859
        37                         -0.0657513              -1.7892
        38                         -0.0494166              -1.3447
        39                         -0.0339803              -0.9247
        40                         -0.0257316              -0.7002
        41                         -0.0143707              -0.3910
       ...                                ...                  ...
        60                          0.1792261               4.8770
      -------------------------------------------------------------
                  HL-Gap            0.3370642 Eh            9.1720 eV

     #   Z          covCN         q      C6AA      α(0)
     1   6 C        3.750    -0.118    22.821     6.813
     2   6 C        3.798    -0.070    21.850     6.656
     3   6 C        3.761    -0.042    21.372     6.590
     4   7 N        3.620     0.120    19.184     6.505
     5   6 C        3.722    -0.092    22.366     6.754
     6   6 C        3.762    -0.037    21.279     6.576
     7   6 C        3.804    -0.072    21.882     6.660
     8   6 C        3.807    -0.071    21.859     6.656
     9   6 C        3.804    -0.073    21.891     6.661
    10   6 C        3.761    -0.033    21.212     6.566
    11   1 H        0.925     0.040     2.448     2.447
    12   1 H        0.925     0.069     2.094     2.263
    13   1 H        0.925     0.052     2.296     2.370
    14   1 H        0.925     0.059     2.213     2.326
    15   1 H        0.924     0.078     2.005     2.214
    16   1 H        0.924     0.082     1.957     2.188
    17   1 H        0.924     0.083     1.952     2.185
    18   1 H        0.925     0.091     1.871     2.139
    19   1 H        0.925     0.091     1.866     2.136
    20   1 H        0.925     0.105     1.744     2.065
    21   1 H        0.925     0.096     1.825     2.113
    22   1 H        0.924     0.077     2.008     2.216
    23   1 H        0.924     0.077     2.015     2.220
    24   1 H        0.924     0.059     2.214     2.327
    25   1 H        0.925     0.070     2.090     2.261
    26   1 H        0.924     0.055     2.256     2.349
    27   1 H        0.925     0.060     2.194     2.316
    28   1 H        0.924     0.076     2.017     2.221
    29   1 H        0.924     0.078     1.999     2.211
    30   1 H        0.925     0.092     1.859     2.132

Wiberg/Mayer (AO) data.
largest (>0.10) Wiberg bond orders for each atom

     #   Z sym  total        # sym  WBO       # sym  WBO       # sym  WBO
 ---------------------------------------------------------------------------
     1   6 C    3.991 --     2 C    1.019    13 H    0.985    12 H    0.981
                            11 H    0.980
     2   6 C    3.985 --     1 C    1.019     3 C    1.007    14 H    0.972
                            15 H    0.963
     3   6 C    3.932 --     2 C    1.007    16 H    0.968    17 H    0.967
                             4 N    0.923
     4   7 N    3.805 --     5 C    0.962    10 C    0.933     6 C    0.931
                             3 C    0.923
     5   6 C    3.932 --    19 H    0.976    18 H    0.975    20 H    0.965
                             4 N    0.962
     6   6 C    3.932 --     7 C    1.008    22 H    0.969    21 H    0.958
                             4 N    0.931
     7   6 C    3.988 --     8 C    1.009     6 C    1.008    24 H    0.970
                            23 H    0.966
     8   6 C    3.992 --     9 C    1.009     7 C    1.009    26 H    0.975
                            25 H    0.973
     9   6 C    3.987 --     8 C    1.009    10 C    1.007    27 H    0.971
                            28 H    0.966
    10   6 C    3.934 --     9 C    1.007    29 H    0.969    30 H    0.962
                             4 N    0.933
    11   1 H    0.998 --     1 C    0.980
    12   1 H    0.995 --     1 C    0.981
    13   1 H    0.997 --     1 C    0.985
    14   1 H    0.997 --     2 C    0.972
    15   1 H    0.993 --     2 C    0.963
    16   1 H    0.993 --     3 C    0.968
    17   1 H    0.993 --     3 C    0.967
    18   1 H    0.992 --     5 C    0.975
    19   1 H    0.992 --     5 C    0.976
    20   1 H    0.989 --     5 C    0.965
    21   1 H    0.991 --     6 C    0.958
    22   1 H    0.994 --     6 C    0.969
    23   1 H    0.994 --     7 C    0.966
    24   1 H    0.996 --     7 C    0.970
    25   1 H    0.995 --     8 C    0.973
    26   1 H    0.997 --     8 C    0.975
    27   1 H    0.996 --     9 C    0.971
    28   1 H    0.994 --     9 C    0.966
    29   1 H    0.994 --    10 C    0.969
    30   1 H    0.992 --    10 C    0.962
 ---------------------------------------------------------------------------

molecular dipole:
                 x           y           z       tot (Debye)
 q only:        0.648       0.712      -4.921
   full:        0.726       0.854      -4.927      12.843

           -------------------------------------------------
          | TOTAL ENERGY              -32.015702265771 Eh   |
          | GRADIENT NORM               0.000339439458 Eh/α |
          | HOMO-LUMO GAP               9.171984565223 eV   |
           -------------------------------------------------

 * finished run on 2024/12/20 at 02:04:37.898
