   * xtb version 6.7.1 (edcfbbe) compiled by 'conda@3ef47c1a292c' on 2024-11-25

   ID    Z sym.   atoms
    1    6 C      1-9, 11-14
    2    7 N      10
    3    1 H      15-30

          program call               : xtb C0069.xyz --opt --namespace C0069 --charge +1
          :  Hamiltonian                  GFN2-xTB          :
 * total energy  :   -38.5319623 Eh     change       -0.1033058E-09 Eh
 * total energy  :   -38.5360352 Eh     change       -0.4072907E-02 Eh
 * total energy  :   -38.5368560 Eh     change       -0.8207704E-03 Eh
 * total energy  :   -38.5369259 Eh     change       -0.6997276E-04 Eh
 * total energy  :   -38.5369603 Eh     change       -0.3439758E-04 Eh
 * total energy  :   -38.5369712 Eh     change       -0.1090767E-04 Eh
 * total energy  :   -38.5369788 Eh     change       -0.7594265E-05 Eh
 * total energy  :   -38.5369838 Eh     change       -0.4919764E-05 Eh
   *** GEOMETRY OPTIMIZATION CONVERGED AFTER 8 ITERATIONS ***

 final structure:
================
30
 xtb: 6.7.1 (edcfbbe)
C            0.96829422118271        0.93678912734981        0.37691099951506
C           -0.02261951609956        1.18119889913728       -0.76727381405481
C            0.65016383989310        1.08528044221560       -2.09736182047594
C            1.04783626547274        2.23600185195065       -2.73936372060356
C            1.68433970783267        2.22589358657277       -3.99011890745620
C            2.08125807651752        3.40863270699469       -4.65157401039406
C            2.68014131670477        3.35361375359065       -5.87769454405403
C            2.89943114373750        2.09589201340387       -6.47203623908337
C            2.51425767797757        0.96643957580033       -5.82050898377201
N            1.91322840890392        1.01719334235068       -4.59579914251599
C            1.53356295936757       -0.12719749241991       -3.96854872118880
C            0.92315777013131       -0.15431974863361       -2.74348910608174
C            0.59845133924167       -1.49246938527597       -2.15047940082022
C            1.87028791712798       -2.22404536304543       -1.70724659516848
H            1.36893569382311       -0.07173796263268        0.34436252338727
H            0.46229491078711        1.07265470068702        1.32801666852242
H            1.79421848762110        1.64174957763418        0.32282597856613
H           -0.83856765160736        0.46106934956989       -0.70011387672247
H           -0.44658378718429        2.17964261088219       -0.65501109926368
H            0.86519610906165        3.19662812559126       -2.28312424110948
H            1.89439165729581        4.35007408427662       -4.16075898444606
H            2.98233898150513        4.25251829603192       -6.38957645699887
H            3.36989269404351        2.02232170719233       -7.43858661040508
H            2.66398656159533       -0.01741195315945       -6.23803947268673
H            1.73838835372104       -1.04493904903548       -4.49999441356241
H           -0.06630597835086       -1.38550891812448       -1.29685888602605
H            0.08864535589248       -2.10044970261226       -2.90054522300290
H            2.42716184102674       -1.63513212492915       -0.98286793129709
H            1.60243404731331       -3.16995561903376       -1.24605214880611
H            2.52168159546471       -2.42889643232958       -2.55253181999456

          :  Hamiltonian                  GFN2-xTB          :
         :: total energy             -38.536983751623 Eh    ::
         :: gradient norm              0.000576273439 Eh/a0 ::
         :: HOMO-LUMO gap              3.164545974626 eV    ::
         :: SCC energy               -39.214302256842 Eh    ::
         :: -> dispersion             -0.026881927820 Eh    ::
         :: repulsion energy           0.677318505220 Eh    ::

    * Orbital Energies and Occupations

         #    Occupation            Energy/Eh            Energy/eV
      -------------------------------------------------------------
         1        2.0000           -0.8625037             -23.4699
       ...           ...                  ...                  ...
        24        2.0000           -0.6237582             -16.9733
        25        2.0000           -0.6165468             -16.7771
        26        2.0000           -0.6110748             -16.6282
        27        2.0000           -0.6053574             -16.4726
        28        2.0000           -0.6025918             -16.3974
        29        2.0000           -0.5994335             -16.3114
        30        2.0000           -0.5926146             -16.1259
        31        2.0000           -0.5718344             -15.5604
        32        2.0000           -0.5681693             -15.4607
        33        2.0000           -0.5620380             -15.2938
        34        2.0000           -0.5611294             -15.2691
        35        2.0000           -0.5549016             -15.0996
        36        2.0000           -0.5520647             -15.0224 (HOMO)
        37                         -0.4357698             -11.8579 (LUMO)
        38                         -0.4292762             -11.6812
        39                         -0.3790757             -10.3152
        40                         -0.3186401              -8.6706
        41                         -0.2557399              -6.9590
        42                         -0.1348258              -3.6688
        43                         -0.0707978              -1.9265
        44                         -0.0480666              -1.3080
        45                         -0.0409572              -1.1145
        46                         -0.0169787              -0.4620
        47                         -0.0160351              -0.4363
       ...                                ...                  ...
        72                          0.5068608              13.7924
      -------------------------------------------------------------
                  HL-Gap            0.1162949 Eh            3.1645 eV

     #   Z          covCN         q      C6AA      α(0)
     1   6 C        3.753    -0.107    22.608     6.780
     2   6 C        3.807    -0.065    21.750     6.639
     3   6 C        2.969     0.045    26.995     8.522
     4   6 C        2.924    -0.042    29.045     8.838
     5   6 C        2.945     0.073    26.364     8.421
     6   6 C        2.918    -0.024    28.603     8.770
     7   6 C        2.918    -0.001    28.056     8.686
     8   6 C        2.914    -0.014    28.359     8.732
     9   6 C        2.884     0.015    27.667     8.623
    10   7 N        2.758     0.099    19.541     6.565
    11   6 C        2.895     0.000    28.026     8.680
    12   6 C        2.966     0.033    27.253     8.563
    13   6 C        3.809    -0.068    21.803     6.647
    14   6 C        3.753    -0.108    22.631     6.784
    15   1 H        0.925     0.054     2.276     2.359
    16   1 H        0.925     0.067     2.120     2.277
    17   1 H        0.925     0.048     2.341     2.393
    18   1 H        0.924     0.070     2.081     2.256
    19   1 H        0.924     0.065     2.137     2.286
    20   1 H        0.926     0.088     1.894     2.152
    21   1 H        0.926     0.092     1.855     2.130
    22   1 H        0.926     0.094     1.843     2.123
    23   1 H        0.926     0.098     1.803     2.100
    24   1 H        0.926     0.093     1.849     2.126
    25   1 H        0.926     0.090     1.878     2.143
    26   1 H        0.925     0.074     2.041     2.234
    27   1 H        0.924     0.068     2.109     2.271
    28   1 H        0.925     0.049     2.327     2.385
    29   1 H        0.925     0.068     2.109     2.271
    30   1 H        0.925     0.046     2.374     2.409

Wiberg/Mayer (AO) data.
largest (>0.10) Wiberg bond orders for each atom

     #   Z sym  total        # sym  WBO       # sym  WBO       # sym  WBO
 ---------------------------------------------------------------------------
     1   6 C    3.983 --    17 H    0.987    15 H    0.983     2 C    0.982
                            16 H    0.981
     2   6 C    3.988 --     3 C    1.032     1 C    0.982    19 H    0.969
                            18 H    0.955
     3   6 C    3.976 --     4 C    1.498    12 C    1.241     2 C    1.032
     4   6 C    3.985 --     3 C    1.498     5 C    1.304    20 H    0.958
     5   6 C    3.962 --     4 C    1.304     6 C    1.273    10 N    1.174
     6   6 C    3.981 --     7 C    1.563     5 C    1.273    21 H    0.961
                             9 C    0.109
     7   6 C    3.976 --     6 C    1.563     8 C    1.295    22 H    0.963
     8   6 C    3.979 --     9 C    1.585     7 C    1.295    23 H    0.961
     9   6 C    3.955 --     8 C    1.585    10 N    1.194    24 H    0.956
                             6 C    0.109
    10   7 N    3.759 --    11 C    1.207     9 C    1.194     5 C    1.174
    11   6 C    3.953 --    12 C    1.532    10 N    1.207    25 H    0.954
    12   6 C    3.979 --    11 C    1.532     3 C    1.241    13 C    1.020
    13   6 C    3.986 --    12 C    1.020    14 C    0.990    26 H    0.967
                            27 H    0.959
    14   6 C    3.987 --    13 C    0.990    30 H    0.986    28 H    0.984
                            29 H    0.982
    15   1 H    0.997 --     1 C    0.983
    16   1 H    0.994 --     1 C    0.981
    17   1 H    0.998 --     1 C    0.987
    18   1 H    0.993 --     2 C    0.955
    19   1 H    0.995 --     2 C    0.969
    20   1 H    0.991 --     4 C    0.958
    21   1 H    0.991 --     6 C    0.961
    22   1 H    0.991 --     7 C    0.963
    23   1 H    0.990 --     8 C    0.961
    24   1 H    0.991 --     9 C    0.956
    25   1 H    0.991 --    11 C    0.954
    26   1 H    0.994 --    13 C    0.967
    27   1 H    0.994 --    13 C    0.959
    28   1 H    0.997 --    14 C    0.984
    29   1 H    0.994 --    14 C    0.982
    30   1 H    0.998 --    14 C    0.986
 ---------------------------------------------------------------------------

molecular dipole:
                 x           y           z       tot (Debye)
 q only:        3.101       2.143      -7.120
   full:        3.135       2.146      -7.280      20.872

           -------------------------------------------------
          | TOTAL ENERGY              -38.536983751623 Eh   |
          | GRADIENT NORM               0.000576273439 Eh/α |
          | HOMO-LUMO GAP               3.164545974626 eV   |
           -------------------------------------------------

 * finished run on 2024/12/20 at 02:04:45.363
