   * xtb version 6.7.1 (edcfbbe) compiled by 'conda@3ef47c1a292c' on 2024-11-25

   ID    Z sym.   atoms
    1    6 C      1, 3, 4, 6-13
    2    7 N      2, 5
    3    1 H      14-26

          program call               : xtb C0062.xyz --opt --namespace C0062 --charge +1
          :  Hamiltonian                  GFN2-xTB          :
 * total energy  :   -35.6506648 Eh     change       -0.8561898E-09 Eh
 * total energy  :   -35.6556864 Eh     change       -0.5021563E-02 Eh
 * total energy  :   -35.6569318 Eh     change       -0.1245372E-02 Eh
 * total energy  :   -35.6571376 Eh     change       -0.2058905E-03 Eh
 * total energy  :   -35.6574276 Eh     change       -0.2899527E-03 Eh
 * total energy  :   -35.6575438 Eh     change       -0.1161951E-03 Eh
 * total energy  :   -35.6577649 Eh     change       -0.2210636E-03 Eh
 * total energy  :   -35.6579304 Eh     change       -0.1655889E-03 Eh
 * total energy  :   -35.6580411 Eh     change       -0.1106532E-03 Eh
 * total energy  :   -35.6580617 Eh     change       -0.2057444E-04 Eh
 * total energy  :   -35.6580963 Eh     change       -0.3463247E-04 Eh
 * total energy  :   -35.6581094 Eh     change       -0.1306283E-04 Eh
 * total energy  :   -35.6581168 Eh     change       -0.7399899E-05 Eh
 * total energy  :   -35.6581212 Eh     change       -0.4419284E-05 Eh
   *** GEOMETRY OPTIMIZATION CONVERGED AFTER 14 ITERATIONS ***

 final structure:
================
26
 xtb: 6.7.1 (edcfbbe)
C            2.44745251830550        0.59972376536544       -0.08261787759819
N            1.07864177828197        0.15572293933590       -0.04951115530560
C            0.69083240748192       -1.15230436407284       -0.02902561005384
C           -0.66505364355869       -1.17224089201099        0.03365433042055
N           -1.09122406835812        0.12381781771957        0.05270157782061
C           -0.01789707513706        0.92761129384335        0.00115801807195
C           -0.03939224788186        2.38715690281742        0.00033444594817
C           -0.72896737298464        3.07925686848083        0.99769977674666
C           -0.73985688362077        4.46170228553502        0.99566724151377
C           -0.08026971176152        5.16308242900471       -0.00126992652028
C            0.59970481688909        4.48027472675584       -0.99740484800301
C            0.62952731074359        3.09810810643514       -0.99783746263799
C           -2.47251841091278        0.52734102373917        0.08538282362371
H            2.84217886849535        0.55022295336309       -1.09890624112494
H            2.51265444396798        1.62558662237107        0.27573589712578
H            3.05199709577335       -0.04390317308859        0.55508894245890
H            1.39406280759950       -1.95878101652101       -0.05876804022502
H           -1.34422404245279       -1.99904879774347        0.06428165852584
H           -1.22544561690018        2.53593213593044        1.78685088160549
H           -1.26553082221273        4.99141718880459        1.77407032845223
H           -0.09614922050474        6.24146402673644       -0.00189317148815
H            1.10957031424766        5.02433672096636       -1.77642615311362
H            1.14180638061923        2.56872388811922       -1.78636386232505
H           -2.86557618372317        0.46743418228720        1.10172288692992
H           -2.56793440227990        1.55038062022283       -0.27415597323374
H           -3.05785904011595       -0.13453825439643       -0.55149848761440

          :  Hamiltonian                  GFN2-xTB          :
         :: total energy             -35.658121185608 Eh    ::
         :: gradient norm              0.000635225231 Eh/a0 ::
         :: HOMO-LUMO gap              3.677016375709 eV    ::
         :: SCC energy               -36.274782410084 Eh    ::
         :: -> dispersion             -0.023500292093 Eh    ::
         :: repulsion energy           0.616661224476 Eh    ::

    * Orbital Energies and Occupations

         #    Occupation            Energy/Eh            Energy/eV
      -------------------------------------------------------------
         1        2.0000           -0.8831185             -24.0309
       ...           ...                  ...                  ...
        21        2.0000           -0.6402440             -17.4219
        22        2.0000           -0.6317342             -17.1904
        23        2.0000           -0.6289436             -17.1144
        24        2.0000           -0.6285520             -17.1038
        25        2.0000           -0.6189786             -16.8433
        26        2.0000           -0.6151420             -16.7389
        27        2.0000           -0.6123571             -16.6631
        28        2.0000           -0.5918377             -16.1047
        29        2.0000           -0.5776226             -15.7179
        30        2.0000           -0.5610691             -15.2675
        31        2.0000           -0.5551480             -15.1063
        32        2.0000           -0.5431933             -14.7810
        33        2.0000           -0.5412185             -14.7273 (HOMO)
        34                         -0.4060906             -11.0503 (LUMO)
        35                         -0.3607982              -9.8178
        36                         -0.3596020              -9.7853
        37                         -0.3513934              -9.5619
        38                         -0.2329958              -6.3401
        39                         -0.1789428              -4.8693
        40                         -0.1152196              -3.1353
        41                         -0.0595701              -1.6210
        42                         -0.0447541              -1.2178
        43                         -0.0137411              -0.3739
        44                         -0.0134524              -0.3661
       ...                                ...                  ...
        65                          0.5331266              14.5071
      -------------------------------------------------------------
                  HL-Gap            0.1351279 Eh            3.6770 eV

     #   Z          covCN         q      C6AA      α(0)
     1   6 C        3.691    -0.077    22.169     6.738
     2   7 N        2.868     0.048    20.409     6.710
     3   6 C        3.048    -0.010    28.210     8.711
     4   6 C        3.048    -0.010    28.210     8.711
     5   7 N        2.868     0.048    20.409     6.710
     6   6 C        3.109     0.096    25.740     8.312
     7   6 C        2.973    -0.007    28.192     8.709
     8   6 C        2.922    -0.030    28.744     8.792
     9   6 C        2.918    -0.018    28.458     8.748
    10   6 C        2.920    -0.012    28.317     8.726
    11   6 C        2.918    -0.018    28.458     8.748
    12   6 C        2.922    -0.030    28.744     8.792
    13   6 C        3.692    -0.077    22.169     6.738
    14   1 H        0.924     0.097     1.810     2.104
    15   1 H        0.925     0.095     1.829     2.115
    16   1 H        0.925     0.100     1.786     2.090
    17   1 H        0.926     0.103     1.756     2.072
    18   1 H        0.926     0.103     1.756     2.072
    19   1 H        0.926     0.050     2.317     2.380
    20   1 H        0.926     0.068     2.110     2.272
    21   1 H        0.926     0.071     2.079     2.255
    22   1 H        0.926     0.068     2.110     2.272
    23   1 H        0.926     0.050     2.317     2.380
    24   1 H        0.924     0.097     1.810     2.104
    25   1 H        0.925     0.095     1.829     2.115
    26   1 H        0.925     0.100     1.786     2.090

Wiberg/Mayer (AO) data.
largest (>0.10) Wiberg bond orders for each atom

     #   Z sym  total        # sym  WBO       # sym  WBO       # sym  WBO
 ---------------------------------------------------------------------------
     1   6 C    3.939 --     2 N    0.991    15 H    0.972    16 H    0.970
                            14 H    0.962
     2   7 N    3.696 --     6 C    1.310     3 C    1.214     1 C    0.991
     3   6 C    3.947 --     4 C    1.605     2 N    1.214    17 H    0.962
     4   6 C    3.947 --     3 C    1.605     5 N    1.214    18 H    0.962
     5   7 N    3.696 --     6 C    1.310     4 C    1.214    13 C    0.991
     6   6 C    3.943 --     5 N    1.310     2 N    1.310     7 C    1.046
     7   6 C    3.974 --     8 C    1.374    12 C    1.374     6 C    1.046
                            10 C    0.103
     8   6 C    3.990 --     9 C    1.452     7 C    1.374    19 H    0.969
                            11 C    0.106
     9   6 C    3.988 --     8 C    1.452    10 C    1.433    20 H    0.967
                            12 C    0.106
    10   6 C    3.981 --     9 C    1.433    11 C    1.433    21 H    0.968
                             7 C    0.103
    11   6 C    3.988 --    12 C    1.452    10 C    1.433    22 H    0.967
                             8 C    0.106
    12   6 C    3.990 --    11 C    1.452     7 C    1.374    23 H    0.969
                             9 C    0.106
    13   6 C    3.939 --     5 N    0.991    25 H    0.972    26 H    0.970
                            24 H    0.962
    14   1 H    0.990 --     1 C    0.962
    15   1 H    0.991 --     1 C    0.972
    16   1 H    0.989 --     1 C    0.970
    17   1 H    0.988 --     3 C    0.962
    18   1 H    0.988 --     4 C    0.962
    19   1 H    0.997 --     8 C    0.969
    20   1 H    0.995 --     9 C    0.967
    21   1 H    0.995 --    10 C    0.968
    22   1 H    0.995 --    11 C    0.967
    23   1 H    0.997 --    12 C    0.969
    24   1 H    0.990 --    13 C    0.962
    25   1 H    0.991 --    13 C    0.972
    26   1 H    0.989 --    13 C    0.970
 ---------------------------------------------------------------------------

molecular dipole:
                 x           y           z       tot (Debye)
 q only:       -0.035       1.822       0.002
   full:       -0.033       1.710       0.002       4.346

           -------------------------------------------------
          | TOTAL ENERGY              -35.658121185608 Eh   |
          | GRADIENT NORM               0.000635225231 Eh/α |
          | HOMO-LUMO GAP               3.677016375709 eV   |
           -------------------------------------------------

 * finished run on 2024/12/20 at 02:04:24.453
