   * xtb version 6.7.1 (edcfbbe) compiled by 'conda@3ef47c1a292c' on 2024-11-25

   ID    Z sym.   atoms
    1    8 O      1, 11
    2    6 C      2, 3, 5, 6, 8-10, 12-39
    3    7 N      4, 7
    4    1 H      40-72

          program call               : xtb C0064.xyz --opt --namespace C0064 --charge +1
          :  Hamiltonian                  GFN2-xTB          :
 * total energy  :  -105.3310778 Eh     change       -0.4486481E-08 Eh
 * total energy  :  -105.3479077 Eh     change       -0.1682991E-01 Eh
 * total energy  :  -105.3518834 Eh     change       -0.3975632E-02 Eh
 * total energy  :  -105.3528529 Eh     change       -0.9695332E-03 Eh
 * total energy  :  -105.3534287 Eh     change       -0.5758482E-03 Eh
 * total energy  :  -105.3536929 Eh     change       -0.2641244E-03 Eh
 * total energy  :  -105.3539771 Eh     change       -0.2842517E-03 Eh
 * total energy  :  -105.3542799 Eh     change       -0.3027680E-03 Eh
 * total energy  :  -105.3545513 Eh     change       -0.2714152E-03 Eh
 * total energy  :  -105.3547577 Eh     change       -0.2063933E-03 Eh
 * total energy  :  -105.3690605 Eh     change       -0.6354830E-05 Eh
 * total energy  :  -105.3690671 Eh     change       -0.6563295E-05 Eh
 * total energy  :  -105.3690752 Eh     change       -0.8096420E-05 Eh
 * total energy  :  -105.3690850 Eh     change       -0.9768747E-05 Eh
 * total energy  :  -105.3690936 Eh     change       -0.8580862E-05 Eh
 * total energy  :  -105.3691000 Eh     change       -0.6415240E-05 Eh
 * total energy  :  -105.3691054 Eh     change       -0.5426638E-05 Eh
 * total energy  :  -105.3691109 Eh     change       -0.5544031E-05 Eh
 * total energy  :  -105.3691155 Eh     change       -0.4571238E-05 Eh
   *** GEOMETRY OPTIMIZATION CONVERGED AFTER 136 ITERATIONS ***

 final structure:
================
72
 xtb: 6.7.1 (edcfbbe)
O            4.40156889077000        2.04527682970071        1.29338066626537
C            4.46896608830325        0.83396528116361        1.27290777639077
C            4.86367191771967        0.14966750321168       -0.08594575000476
N            5.44944708823662        1.23238380432704       -0.86661807842693
C            6.76416823373063        1.46638315652749       -1.14984669807534
C            6.85399846018657        2.72048252356656       -1.66642400307721
N            5.59673629519946        3.24899738611810       -1.67668492287886
C            4.76845991943523        2.33463154536391       -1.17777359797913
C            5.16171350269832        4.56148877453224       -2.15259253328788
C            4.16754457017333        4.25586658553852       -3.32839816997989
O            3.07162767795820        3.83283286880777       -3.05312861114397
C            4.62524857670307        4.49307589919447       -4.70307746121737
C            3.82784474958783        5.26467182861471       -5.54939966621648
C            4.22584821996985        5.51362877619635       -6.84540909486817
C            5.40559585881127        4.96444039547495       -7.34980256407895
C            6.16677887613261        4.14357685264545       -6.51581772169282
C            5.79249366380254        3.91820421010066       -5.20834981566618
C            5.83186685580929        5.23543680495029       -8.72699632478848
C            5.69463794818862        6.51279873123777       -9.26855996751819
C            6.10461679985288        6.77337939017126      -10.56238752790673
C            6.64662255935947        5.76180552755097      -11.33827153659830
C            6.78177560135477        4.48773834931258      -10.81170297303728
C            6.38334667058162        4.22593963471807       -9.51437388564285
C            4.36920772069147        5.24324324989503       -1.03076614192864
C            6.34371869448716        5.43727578087582       -2.54304586205954
C            5.89066924421358       -0.96093156276482        0.10462559261874
C            3.60868906504355       -0.34501311085678       -0.81722233561481
C            4.26351689040938        0.01758755647484        2.46474538269922
C            4.56444340708008        0.63185834875350        3.68938440628008
C            4.43010249259541       -0.04968121104020        4.87604747242173
C            3.96404430580380       -1.36676015651664        4.89392310960824
C            3.62182342382175       -1.96262329113202        3.67677554597817
C            3.77043208523302       -1.29090014500741        2.48375664741583
C            3.83058704688000       -2.10190390224523        6.15356755470338
C            3.37652489686355       -1.46132364428833        7.30637087785061
C            3.25275868581864       -2.15898908957802        8.49284676525100
C            3.59271221436161       -3.50079104683608        8.55099150181596
C            4.05012128370496       -4.14548138002465        7.41301007697570
C            4.16217602710827       -3.45528515383925        6.22130459991898
H            7.54025218912788        0.75033868868026       -0.98453747251525
H            7.71902802361118        3.25154464935935       -2.00244463436561
H            3.70737616376953        2.45859198021311       -1.10619563114029
H            2.90762965702899        5.68019551315237       -5.16784985111070
H            3.60397900690874        6.11849477960633       -7.48717217061294
H            7.07223903532618        3.69454987399920       -6.89513073819410
H            6.38033618675686        3.24954303854400       -4.59438381591206
H            5.29045303506377        7.30985394593859       -8.66182526916168
H            6.00119565586225        7.76877539189308      -10.96720824206805
H            6.96196265613485        5.96545797179263      -12.35003104288513
H            7.19833302604253        3.69497703057342      -11.41468673987166
H            6.47125140313234        3.22503915897977       -9.11747973189654
H            4.93612088834213        5.22478420335401       -0.10323000974103
H            4.17253659931424        6.27737131067344       -1.29970630302689
H            3.41458911126945        4.75029178344796       -0.86940433016619
H            6.94674136188896        5.65796232692587       -1.66429661153082
H            6.97210976139353        4.99115823125280       -3.30677060948729
H            5.96803236667952        6.37767472588299       -2.93822167988076
H            5.44792443071715       -1.79903035866434        0.63126631453263
H            6.24108902787516       -1.31727061471040       -0.86206570714605
H            6.73703977219925       -0.61486421566389        0.69401212294629
H            3.29917707398593       -1.31374901611168       -0.44009036603723
H            2.77689509594940        0.34441221206075       -0.69677018359071
H            3.82053345260370       -0.45399337919775       -1.87942594863217
H            4.92848697179685        1.64822820690364        3.67925244696185
H            4.70306695342567        0.43222262330774        5.80209004480411
H            3.21049394609654       -2.96059117932487        3.67445828627129
H            3.44589167741667       -1.77405824101366        1.57655232410910
H            3.08997824098637       -0.42099223328231        7.26290230712050
H            2.89051836359549       -1.65431299849443        9.37568363721991
H            3.50210029861930       -4.04258781406908        9.47963651466823
H            4.32059445346055       -5.18970368842833        7.45500339162649
H            4.53914760193941       -3.95868780885154        5.34297696618215

          :  Hamiltonian                  GFN2-xTB          :
         :: total energy            -105.369115509878 Eh    ::
         :: gradient norm              0.000437528899 Eh/a0 ::
         :: HOMO-LUMO gap              2.070868123031 eV    ::
         :: SCC energy              -107.165449366029 Eh    ::
         :: -> dispersion             -0.085048149000 Eh    ::
         :: repulsion energy           1.796333856151 Eh    ::

    * Orbital Energies and Occupations

         #    Occupation            Energy/Eh            Energy/eV
      -------------------------------------------------------------
         1        2.0000           -0.8545506             -23.2535
       ...           ...                  ...                  ...
        85        2.0000           -0.5112756             -13.9125
        86        2.0000           -0.5073225             -13.8049
        87        2.0000           -0.5070658             -13.7980
        88        2.0000           -0.5042084             -13.7202
        89        2.0000           -0.5011002             -13.6356
        90        2.0000           -0.4957237             -13.4893
        91        2.0000           -0.4916050             -13.3773
        92        2.0000           -0.4909808             -13.3603
        93        2.0000           -0.4880442             -13.2804
        94        2.0000           -0.4770141             -12.9802
        95        2.0000           -0.4736256             -12.8880
        96        2.0000           -0.4699179             -12.7871
        97        2.0000           -0.4658183             -12.6756 (HOMO)
        98                         -0.3897153             -10.6047 (LUMO)
        99                         -0.3830782             -10.4241
       100                         -0.3651093              -9.9351
       101                         -0.3367560              -9.1636
       102                         -0.3255301              -8.8581
       103                         -0.3230461              -8.7905
       104                         -0.3205368              -8.7222
       105                         -0.3201151              -8.7108
       106                         -0.2945177              -8.0142
       107                         -0.2912789              -7.9261
       108                         -0.2787565              -7.5854
       ...                                ...                  ...
       189                          0.6135657              16.6960
      -------------------------------------------------------------
                  HL-Gap            0.0761030 Eh            2.0709 eV

     #   Z          covCN         q      C6AA      α(0)
     1   8 O        0.858    -0.368    21.046     6.151
     2   6 C        2.828     0.220    23.364     7.921
     3   6 C        3.838     0.049    19.721     6.318
     4   7 N        2.875     0.045    20.446     6.716
     5   6 C        3.070    -0.010    28.202     8.708
     6   6 C        3.069    -0.010    28.189     8.706
     7   7 N        2.873     0.046    20.439     6.715
     8   6 C        3.105     0.071    26.284     8.400
     9   6 C        3.836     0.048    19.751     6.323
    10   6 C        2.824     0.224    23.300     7.909
    11   8 O        0.857    -0.342    20.551     6.078
    12   6 C        2.972    -0.018    28.459     8.750
    13   6 C        2.923    -0.017    28.437     8.745
    14   6 C        2.923    -0.027    28.688     8.783
    15   6 C        2.977     0.027    27.395     8.586
    16   6 C        2.923    -0.031    28.775     8.797
    17   6 C        2.919    -0.029    28.728     8.789
    18   6 C        2.977     0.007    27.857     8.658
    19   6 C        2.925    -0.031    28.763     8.795
    20   6 C        2.918    -0.025    28.626     8.774
    21   6 C        2.920    -0.023    28.580     8.767
    22   6 C        2.918    -0.025    28.639     8.776
    23   6 C        2.924    -0.031    28.769     8.796
    24   6 C        3.761    -0.122    22.886     6.820
    25   6 C        3.757    -0.128    23.002     6.838
    26   6 C        3.757    -0.126    22.972     6.834
    27   6 C        3.757    -0.120    22.861     6.817
    28   6 C        2.969    -0.017    28.420     8.744
    29   6 C        2.928    -0.014    28.372     8.735
    30   6 C        2.921    -0.028    28.707     8.786
    31   6 C        2.977     0.032    27.274     8.566
    32   6 C        2.923    -0.030    28.751     8.793
    33   6 C        2.917    -0.028    28.696     8.784
    34   6 C        2.977     0.008    27.846     8.656
    35   6 C        2.924    -0.029    28.727     8.790
    36   6 C        2.918    -0.024    28.609     8.771
    37   6 C        2.920    -0.021    28.542     8.761
    38   6 C        2.918    -0.025    28.622     8.773
    39   6 C        2.924    -0.030    28.746     8.792
    40   1 H        0.927     0.095     1.832     2.117
    41   1 H        0.927     0.096     1.822     2.111
    42   1 H        0.926     0.126     1.563     1.955
    43   1 H        0.926     0.055     2.253     2.347
    44   1 H        0.926     0.058     2.221     2.331
    45   1 H        0.926     0.050     2.316     2.380
    46   1 H        0.925     0.023     2.682     2.561
    47   1 H        0.926     0.037     2.495     2.470
    48   1 H        0.926     0.044     2.397     2.421
    49   1 H        0.926     0.045     2.378     2.412
    50   1 H        0.926     0.042     2.416     2.430
    51   1 H        0.926     0.034     2.529     2.487
    52   1 H        0.925     0.065     2.141     2.288
    53   1 H        0.925     0.072     2.066     2.248
    54   1 H        0.925     0.076     2.016     2.221
    55   1 H        0.925     0.067     2.120     2.277
    56   1 H        0.925     0.062     2.179     2.308
    57   1 H        0.925     0.071     2.071     2.250
    58   1 H        0.925     0.078     1.997     2.210
    59   1 H        0.925     0.067     2.122     2.278
    60   1 H        0.925     0.057     2.232     2.336
    61   1 H        0.925     0.075     2.029     2.227
    62   1 H        0.925     0.062     2.174     2.306
    63   1 H        0.925     0.065     2.146     2.291
    64   1 H        0.926     0.061     2.187     2.313
    65   1 H        0.926     0.058     2.222     2.331
    66   1 H        0.926     0.055     2.261     2.351
    67   1 H        0.926     0.042     2.416     2.431
    68   1 H        0.926     0.039     2.458     2.451
    69   1 H        0.926     0.046     2.373     2.409
    70   1 H        0.926     0.047     2.352     2.398
    71   1 H        0.926     0.045     2.389     2.417
    72   1 H        0.926     0.036     2.508     2.477

Wiberg/Mayer (AO) data.
largest (>0.10) Wiberg bond orders for each atom

     #   Z sym  total        # sym  WBO       # sym  WBO       # sym  WBO
 ---------------------------------------------------------------------------
     1   8 O    2.091 --     2 C    1.796
     2   6 C    3.913 --     1 O    1.796    28 C    1.079     3 C    0.893
     3   6 C    3.942 --    26 C    0.997    27 C    0.976     4 N    0.950
                             2 C    0.893
     4   7 N    3.690 --     8 C    1.345     5 C    1.209     3 C    0.950
     5   6 C    3.949 --     6 C    1.601     4 N    1.209    40 H    0.961
     6   6 C    3.948 --     5 C    1.601     7 N    1.211    41 H    0.961
     7   7 N    3.697 --     8 C    1.355     6 C    1.211     9 C    0.934
     8   6 C    3.944 --     7 N    1.355     4 N    1.345    42 H    0.947
     9   6 C    3.937 --    25 C    1.005    24 C    0.980     7 N    0.934
                            10 C    0.888
    10   6 C    3.910 --    11 O    1.855    12 C    1.038     9 C    0.888
    11   8 O    2.097 --    10 C    1.855
    12   6 C    3.979 --    13 C    1.363    17 C    1.360    10 C    1.038
    13   6 C    3.986 --    14 C    1.469    12 C    1.363    43 H    0.968
    14   6 C    3.989 --    13 C    1.469    15 C    1.375    44 H    0.964
    15   6 C    3.985 --    14 C    1.375    16 C    1.370    18 C    1.058
    16   6 C    3.990 --    17 C    1.472    15 C    1.370    45 H    0.965
    17   6 C    3.990 --    16 C    1.472    12 C    1.360    46 H    0.967
    18   6 C    3.986 --    23 C    1.382    19 C    1.381    15 C    1.058
                            21 C    0.103
    19   6 C    3.988 --    20 C    1.454    18 C    1.381    47 H    0.968
                            22 C    0.108
    20   6 C    3.991 --    19 C    1.454    21 C    1.433    48 H    0.970
                            23 C    0.108
    21   6 C    3.982 --    22 C    1.433    20 C    1.433    49 H    0.970
                            18 C    0.103
    22   6 C    3.991 --    23 C    1.453    21 C    1.433    50 H    0.970
                            19 C    0.108
    23   6 C    3.988 --    22 C    1.453    18 C    1.382    51 H    0.968
                            20 C    0.108
    24   6 C    3.980 --     9 C    0.980    52 H    0.980    53 H    0.979
                            54 H    0.977
    25   6 C    3.986 --     9 C    1.005    55 H    0.979    57 H    0.978
                            56 H    0.974
    26   6 C    3.985 --     3 C    0.997    60 H    0.981    59 H    0.979
                            58 H    0.972
    27   6 C    3.982 --    62 H    0.982    63 H    0.979     3 C    0.976
                            61 H    0.973
    28   6 C    3.975 --    33 C    1.346    29 C    1.336     2 C    1.079
    29   6 C    3.984 --    30 C    1.487    28 C    1.336    64 H    0.966
    30   6 C    3.989 --    29 C    1.487    31 C    1.363    65 H    0.964
    31   6 C    3.983 --    30 C    1.363    32 C    1.359    34 C    1.066
    32   6 C    3.990 --    33 C    1.488    31 C    1.359    66 H    0.966
    33   6 C    3.989 --    32 C    1.488    28 C    1.346    67 H    0.959
    34   6 C    3.985 --    35 C    1.377    39 C    1.377    31 C    1.066
                            37 C    0.102
    35   6 C    3.986 --    36 C    1.455    34 C    1.377    68 H    0.968
                            38 C    0.107
    36   6 C    3.990 --    35 C    1.455    37 C    1.432    69 H    0.969
                            39 C    0.107
    37   6 C    3.978 --    36 C    1.432    38 C    1.431    70 H    0.970
                            34 C    0.102
    38   6 C    3.990 --    39 C    1.456    37 C    1.431    71 H    0.970
                            35 C    0.107
    39   6 C    3.986 --    38 C    1.456    34 C    1.377    72 H    0.968
                            36 C    0.107
    40   1 H    0.990 --     5 C    0.961
    41   1 H    0.990 --     6 C    0.961
    42   1 H    0.984 --     8 C    0.947
    43   1 H    0.996 --    13 C    0.968
    44   1 H    0.996 --    14 C    0.964
    45   1 H    0.996 --    16 C    0.965
    46   1 H    0.999 --    17 C    0.967
    47   1 H    0.999 --    19 C    0.968
    48   1 H    0.997 --    20 C    0.970
    49   1 H    0.997 --    21 C    0.970
    50   1 H    0.997 --    22 C    0.970
    51   1 H    0.999 --    23 C    0.968
    52   1 H    0.995 --    24 C    0.980
    53   1 H    0.994 --    24 C    0.979
    54   1 H    0.994 --    24 C    0.977
    55   1 H    0.995 --    25 C    0.979
    56   1 H    0.996 --    25 C    0.974
    57   1 H    0.994 --    25 C    0.978
    58   1 H    0.993 --    26 C    0.972
    59   1 H    0.995 --    26 C    0.979
    60   1 H    0.997 --    26 C    0.981
    61   1 H    0.994 --    27 C    0.973
    62   1 H    0.996 --    27 C    0.982
    63   1 H    0.995 --    27 C    0.979
    64   1 H    0.996 --    29 C    0.966
    65   1 H    0.996 --    30 C    0.964
    66   1 H    0.996 --    32 C    0.966
    67   1 H    0.998 --    33 C    0.959
    68   1 H    0.998 --    35 C    0.968
    69   1 H    0.997 --    36 C    0.969
    70   1 H    0.997 --    37 C    0.970
    71   1 H    0.997 --    38 C    0.970
    72   1 H    0.999 --    39 C    0.968
 ---------------------------------------------------------------------------

molecular dipole:
                 x           y           z       tot (Debye)
 q only:       10.774       3.110      -2.033
   full:       10.864       3.047      -2.065      29.156

           -------------------------------------------------
          | TOTAL ENERGY             -105.369115509878 Eh   |
          | GRADIENT NORM               0.000437528899 Eh/α |
          | HOMO-LUMO GAP               2.070868123031 eV   |
           -------------------------------------------------

 * finished run on 2024/12/20 at 02:04:37.529
