   * xtb version 6.7.1 (edcfbbe) compiled by 'conda@3ef47c1a292c' on 2024-11-25

   ID    Z sym.   atoms
    1    6 C      1, 2, 4-7
    2   16 S      3
    3    1 H      8-22

          program call               : xtb C0060.xyz --opt --namespace C0060 --charge +1
          :  Hamiltonian                  GFN2-xTB          :
 * total energy  :   -23.3058898 Eh     change       -0.7993606E-11 Eh
 * total energy  :   -23.3084364 Eh     change       -0.2546558E-02 Eh
 * total energy  :   -23.3090823 Eh     change       -0.6458736E-03 Eh
 * total energy  :   -23.3092271 Eh     change       -0.1448765E-03 Eh
 * total energy  :   -23.3092590 Eh     change       -0.3189964E-04 Eh
 * total energy  :   -23.3092736 Eh     change       -0.1455497E-04 Eh
 * total energy  :   -23.3092831 Eh     change       -0.9499745E-05 Eh
 * total energy  :   -23.3092881 Eh     change       -0.5011384E-05 Eh
 * total energy  :   -23.3092891 Eh     change       -0.9789102E-06 Eh
   *** GEOMETRY OPTIMIZATION CONVERGED AFTER 9 ITERATIONS ***

 final structure:
================
22
 xtb: 6.7.1 (edcfbbe)
C            0.90434419777821       -0.05830265958056        0.06397900218960
C            0.62629403967453        1.39704682881412        0.38633674700288
S            1.10826827428666        2.45330909567460       -1.03343913006523
C            0.37480777060249        4.07683202178210       -0.58307851572995
C            0.80345144501446        4.68116889745965        0.73501015807229
C            2.92502972512970        2.71851201348061       -0.84109664172777
C            3.53039945991973        2.45981163228892        0.52101215027770
H            0.36315862313391       -0.36988334349442       -0.82540386200248
H            0.57381044241574       -0.67740282369404        0.89449393969935
H            1.96366127869998       -0.24313188628868       -0.09308607555819
H           -0.44307341686883        1.56359910957292        0.51341807009220
H            1.15850349476857        1.72707538126194        1.27490880903956
H            0.63082947200845        4.73036427519163       -1.41755521685005
H           -0.70085611256836        3.89992650900744       -0.60675229230384
H            1.86076090048491        4.93047711262010        0.74245500546650
H            0.25062983219981        5.60784168458576        0.87560352423245
H            0.57305730421070        4.03375184436890        1.57684943079254
H            3.36330992360219        2.05178606808203       -1.58392221647139
H            3.08885691718104        3.74568519824407       -1.16480144036427
H            3.44927090800447        1.41613770553086        0.81117061188748
H            4.59121918774783        2.69583037918635        0.45921469359905
H            3.10239633257383        3.08501495590567        1.29911324872155

          :  Hamiltonian                  GFN2-xTB          :
         :: total energy             -23.309289074433 Eh    ::
         :: gradient norm              0.000217557096 Eh/a0 ::
         :: HOMO-LUMO gap              5.662734942225 eV    ::
         :: SCC energy               -23.630224270349 Eh    ::
         :: -> dispersion             -0.014481854182 Eh    ::
         :: repulsion energy           0.320935195917 Eh    ::

    * Orbital Energies and Occupations

         #    Occupation            Energy/Eh            Energy/eV
      -------------------------------------------------------------
         1        2.0000           -0.9315018             -25.3475
       ...           ...                  ...                  ...
        10        2.0000           -0.6830073             -18.5856
        11        2.0000           -0.6754549             -18.3801
        12        2.0000           -0.6640423             -18.0695
        13        2.0000           -0.6610262             -17.9874
        14        2.0000           -0.6502622             -17.6945
        15        2.0000           -0.6387297             -17.3807
        16        2.0000           -0.6345444             -17.2668
        17        2.0000           -0.6193920             -16.8545
        18        2.0000           -0.6159863             -16.7618
        19        2.0000           -0.6057653             -16.4837
        20        2.0000           -0.6018537             -16.3773
        21        2.0000           -0.5996759             -16.3180
        22        2.0000           -0.5956969             -16.2097 (HOMO)
        23                         -0.3875953             -10.5470 (LUMO)
        24                         -0.3832528             -10.4288
        25                         -0.3069812              -8.3534
        26                         -0.2031893              -5.5291
        27                         -0.1873764              -5.0988
        28                         -0.1477546              -4.0206
        29                         -0.0580169              -1.5787
        30                         -0.0496411              -1.3508
        31                         -0.0436370              -1.1874
        32                         -0.0290117              -0.7894
        33                         -0.0216921              -0.5903
       ...                                ...                  ...
        48                          0.2164334               5.8895
      -------------------------------------------------------------
                  HL-Gap            0.2081017 Eh            5.6627 eV

     #   Z          covCN         q      C6AA      α(0)
     1   6 C        3.790    -0.128    22.964     6.825
     2   6 C        3.793    -0.056    21.592     6.617
     3  16 S        2.964     0.287   129.902    19.183
     4   6 C        3.792    -0.061    21.676     6.630
     5   6 C        3.763    -0.124    22.921     6.825
     6   6 C        3.791    -0.058    21.629     6.623
     7   6 C        3.760    -0.124    22.935     6.827
     8   1 H        0.925     0.074     2.039     2.233
     9   1 H        0.925     0.090     1.881     2.145
    10   1 H        0.925     0.067     2.115     2.274
    11   1 H        0.925     0.095     1.835     2.118
    12   1 H        0.925     0.096     1.822     2.111
    13   1 H        0.925     0.096     1.818     2.109
    14   1 H        0.925     0.096     1.821     2.110
    15   1 H        0.925     0.070     2.081     2.256
    16   1 H        0.925     0.092     1.863     2.134
    17   1 H        0.925     0.066     2.135     2.285
    18   1 H        0.925     0.097     1.815     2.107
    19   1 H        0.925     0.095     1.832     2.117
    20   1 H        0.925     0.072     2.063     2.246
    21   1 H        0.925     0.091     1.869     2.138
    22   1 H        0.925     0.068     2.112     2.273

Wiberg/Mayer (AO) data.
largest (>0.10) Wiberg bond orders for each atom

     #   Z sym  total        # sym  WBO       # sym  WBO       # sym  WBO
 ---------------------------------------------------------------------------
     1   6 C    3.980 --     2 C    1.024     8 H    0.982    10 H    0.981
                             9 H    0.968
     2   6 C    3.947 --     1 C    1.024    11 H    0.959    12 H    0.958
                             3 S    0.952
     3  16 S    3.040 --     4 C    0.953     2 C    0.952     6 C    0.942
     4   6 C    3.950 --     5 C    1.029    13 H    0.959    14 H    0.958
                             3 S    0.953
     5   6 C    3.981 --     4 C    1.029    17 H    0.980    15 H    0.979
                            16 H    0.963
     6   6 C    3.948 --     7 C    1.030    18 H    0.962    19 H    0.958
                             3 S    0.942
     7   6 C    3.981 --     6 C    1.030    20 H    0.978    22 H    0.977
                            21 H    0.961
     8   1 H    0.994 --     1 C    0.982
     9   1 H    0.991 --     1 C    0.968
    10   1 H    0.995 --     1 C    0.981
    11   1 H    0.991 --     2 C    0.959
    12   1 H    0.991 --     2 C    0.958
    13   1 H    0.990 --     4 C    0.959
    14   1 H    0.991 --     4 C    0.958
    15   1 H    0.995 --     5 C    0.979
    16   1 H    0.991 --     5 C    0.963
    17   1 H    0.996 --     5 C    0.980
    18   1 H    0.991 --     6 C    0.962
    19   1 H    0.991 --     6 C    0.958
    20   1 H    0.995 --     7 C    0.978
    21   1 H    0.991 --     7 C    0.961
    22   1 H    0.995 --     7 C    0.977
 ---------------------------------------------------------------------------

molecular dipole:
                 x           y           z       tot (Debye)
 q only:        2.637       4.944      -0.470
   full:        2.645       5.075      -0.371      14.577

           -------------------------------------------------
          | TOTAL ENERGY              -23.309289074433 Eh   |
          | GRADIENT NORM               0.000217557096 Eh/α |
          | HOMO-LUMO GAP               5.662734942225 eV   |
           -------------------------------------------------

 * finished run on 2024/12/20 at 02:04:18.475
