   * xtb version 6.7.1 (edcfbbe) compiled by 'conda@3ef47c1a292c' on 2024-11-25

   ID    Z sym.   atoms
    1    6 C      1-11, 13, 14, 16-25
    2    7 N      12, 15
    3    1 H      26-62

          program call               : xtb C0067.xyz --opt --namespace C0067 --charge +1
          :  Hamiltonian                  GFN2-xTB          :
 * total energy  :   -73.6385001 Eh     change       -0.1735060E-08 Eh
 * total energy  :   -73.6440874 Eh     change       -0.5587293E-02 Eh
 * total energy  :   -73.6451266 Eh     change       -0.1039128E-02 Eh
 * total energy  :   -73.6453149 Eh     change       -0.1883447E-03 Eh
 * total energy  :   -73.6454664 Eh     change       -0.1514845E-03 Eh
 * total energy  :   -73.6455363 Eh     change       -0.6988944E-04 Eh
 * total energy  :   -73.6456330 Eh     change       -0.9671690E-04 Eh
 * total energy  :   -73.6457364 Eh     change       -0.1033564E-03 Eh
 * total energy  :   -73.6458122 Eh     change       -0.7583299E-04 Eh
 * total energy  :   -73.6458591 Eh     change       -0.4691819E-04 Eh
 * total energy  :   -73.6459195 Eh     change       -0.1507048E-04 Eh
 * total energy  :   -73.6459399 Eh     change       -0.2037465E-04 Eh
 * total energy  :   -73.6459549 Eh     change       -0.1498139E-04 Eh
 * total energy  :   -73.6459759 Eh     change       -0.2101188E-04 Eh
 * total energy  :   -73.6460019 Eh     change       -0.2605003E-04 Eh
 * total energy  :   -73.6460156 Eh     change       -0.1368384E-04 Eh
 * total energy  :   -73.6460237 Eh     change       -0.8071109E-05 Eh
 * total energy  :   -73.6460339 Eh     change       -0.1018094E-04 Eh
 * total energy  :   -73.6460383 Eh     change       -0.4440562E-05 Eh
   *** GEOMETRY OPTIMIZATION CONVERGED AFTER 22 ITERATIONS ***

 final structure:
================
62
 xtb: 6.7.1 (edcfbbe)
C            0.41245322633668        0.58258891399455        0.97948626454616
C            0.52981631787428        1.76989721343046        0.03144729385076
C            1.04177808579566        1.38456708702238       -1.35722066656278
C            0.12877404406863        0.44210824828449       -2.14465793222362
C           -1.28131909031909        0.97440926027151       -2.40998514238506
C           -1.34065260591424        2.31672751106324       -3.14214683578041
C           -0.63042134306986        2.34523016221548       -4.49665662769459
C           -1.16244637812629        1.34779478936929       -5.52806947097606
C           -2.64197892765418        1.51035490726028       -5.88835308851466
C           -3.04001699169754        2.90275966504683       -6.38012174376670
C           -2.30659206892490        3.35979272454932       -7.64701888337953
N           -2.67596692396141        2.56783696341451       -8.79728728090471
C           -2.09805616151722        1.39804312998311       -9.18682400683904
C           -2.76814083098588        0.95876702975496      -10.28774977903618
N           -3.74801115857733        1.86748292549440      -10.55343394072341
C           -3.67495779630339        2.82893170517980       -9.63705891197361
C           -4.65996506545530        1.81026809997937      -11.64770276164201
C           -5.58918714573008        0.76855384590359      -11.70271249792666
C           -5.66870745639424       -0.27881044067927      -10.63395688664989
C           -6.45610921912731        0.72619698049251      -12.78317452082194
C           -6.41458414594984        1.67975707053606      -13.79282207320138
C           -5.47622785097295        2.70003617003570      -13.70491422966560
C           -4.58894653844180        2.78763319624510      -12.64337166253216
C           -3.58861871305001        3.90316550158264      -12.59477061856978
C           -7.34217778949105        1.59352425005566      -14.95887078330796
H           -0.34822920696896       -0.11724729571958        0.64287567694024
H            0.13977123030208        0.92300286361723        1.97557990309069
H            1.36128360182878        0.05484182036901        1.04693609745762
H           -0.43840664975840        2.26687876251971       -0.05181430388718
H            1.22881009560471        2.49257090445473        0.45923702352226
H            1.20765346959714        2.29692034287011       -1.93446031797704
H            2.01206362595756        0.89447391607102       -1.24434215625853
H            0.61536169258842        0.21116934922262       -3.09543993911920
H            0.03624556554514       -0.49955785699778       -1.60103212523605
H           -1.82930849042797        0.22143665813835       -2.98196773361552
H           -1.80347867944596        1.08890598825738       -1.45873596388122
H           -2.39038029767898        2.59151311992834       -3.27145163219120
H           -0.88785452183752        3.08376400654837       -2.51212712897139
H           -0.69246374617393        3.36000152113520       -4.89833837140349
H            0.42836941545810        2.13193558674726       -4.34413836569137
H           -0.54433475340436        1.42863462929521       -6.42687646125534
H           -1.02486818617122        0.33608984821131       -5.14514494918841
H           -2.90427019757964        0.76337226398714       -6.64352336579084
H           -3.24253704334944        1.29057249852496       -5.00561249169613
H           -4.11630592124067        2.92143618174296       -6.56705929079120
H           -2.83024336583382        3.63399080278779       -5.60074553159550
H           -2.55601461194604        4.40179012575753       -7.85753905301759
H           -1.22844039381681        3.27773334740862       -7.50429841260409
H           -1.26126502487529        0.96973905143815       -8.67487605635796
H           -2.61325952227220        0.09220837049464      -10.89641417168579
H           -4.32346627364256        3.68120111780372       -9.58767369004132
H           -6.67485640377420       -0.68625979666073      -10.58930485777687
H           -4.99216389297233       -1.10349861335630      -10.85831152398950
H           -5.41395366190896        0.11546329766413       -9.65213954708207
H           -7.18212479878518       -0.07058405695333      -12.83710928475051
H           -5.42971008793952        3.44538056737845      -14.48413316111558
H           -3.36667966241318        4.24262323276456      -13.60261678394513
H           -3.99161970826055        4.75453410999307      -12.04605061286524
H           -2.65542964443614        3.59903476288513      -12.12457790384837
H           -6.91036282144368        0.94651600122043      -15.72266277134374
H           -8.29848700629614        1.16870714939455      -14.66548932528961
H           -7.50616159465771        2.57183851055796      -15.40208463004689

          :  Hamiltonian                  GFN2-xTB          :
         :: total energy             -73.646038291488 Eh    ::
         :: gradient norm              0.000291384086 Eh/a0 ::
         :: HOMO-LUMO gap              2.136375537446 eV    ::
         :: SCC energy               -74.828513334567 Eh    ::
         :: -> dispersion             -0.057903936704 Eh    ::
         :: repulsion energy           1.182475043079 Eh    ::

    * Orbital Energies and Occupations

         #    Occupation            Energy/Eh            Energy/eV
      -------------------------------------------------------------
         1        2.0000           -0.8783917             -23.9023
       ...           ...                  ...                  ...
        57        2.0000           -0.5360692             -14.5872
        58        2.0000           -0.5350251             -14.5588
        59        2.0000           -0.5236402             -14.2490
        60        2.0000           -0.5198560             -14.1460
        61        2.0000           -0.5119905             -13.9320
        62        2.0000           -0.5100970             -13.8804
        63        2.0000           -0.5087393             -13.8435
        64        2.0000           -0.5017375             -13.6530
        65        2.0000           -0.4967822             -13.5181
        66        2.0000           -0.4929334             -13.4134
        67        2.0000           -0.4777289             -12.9997
        68        2.0000           -0.4738984             -12.8954
        69        2.0000           -0.4710586             -12.8182 (HOMO)
        70                         -0.3925482             -10.6818 (LUMO)
        71                         -0.3571185              -9.7177
        72                         -0.3385848              -9.2134
        73                         -0.3380376              -9.1985
        74                         -0.2160923              -5.8802
        75                         -0.1645354              -4.4772
        76                         -0.1106623              -3.0113
        77                         -0.0505213              -1.3748
        78                         -0.0393984              -1.0721
        79                         -0.0353960              -0.9632
        80                         -0.0300870              -0.8187
       ...                                ...                  ...
       137                          0.5265616              14.3285
      -------------------------------------------------------------
                  HL-Gap            0.0785104 Eh            2.1364 eV

     #   Z          covCN         q      C6AA      α(0)
     1   6 C        3.751    -0.103    22.527     6.769
     2   6 C        3.799    -0.053    21.523     6.605
     3   6 C        3.800    -0.058    21.619     6.620
     4   6 C        3.800    -0.058    21.616     6.620
     5   6 C        3.800    -0.058    21.618     6.620
     6   6 C        3.800    -0.060    21.647     6.624
     7   6 C        3.800    -0.061    21.670     6.628
     8   6 C        3.800    -0.061    21.667     6.627
     9   6 C        3.800    -0.064    21.727     6.637
    10   6 C        3.801    -0.068    21.803     6.648
    11   6 C        3.742    -0.025    21.098     6.553
    12   7 N        2.867     0.062    20.150     6.667
    13   6 C        3.074    -0.007    28.117     8.694
    14   6 C        3.072    -0.005    28.063     8.686
    15   7 N        2.874     0.068    20.049     6.650
    16   6 C        3.101     0.050    26.765     8.478
    17   6 C        2.926     0.009    27.822     8.650
    18   6 C        2.962     0.014    27.701     8.633
    19   6 C        3.758    -0.117    22.789     6.806
    20   6 C        2.933    -0.048    29.202     8.862
    21   6 C        2.962     0.034    27.241     8.561
    22   6 C        2.933    -0.048    29.198     8.862
    23   6 C        2.962     0.012    27.754     8.641
    24   6 C        3.757    -0.117    22.800     6.808
    25   6 C        3.759    -0.121    22.868     6.818
    26   1 H        0.925     0.034     2.533     2.489
    27   1 H        0.925     0.035     2.519     2.482
    28   1 H        0.925     0.036     2.506     2.476
    29   1 H        0.924     0.030     2.591     2.517
    30   1 H        0.924     0.030     2.589     2.516
    31   1 H        0.924     0.026     2.639     2.540
    32   1 H        0.924     0.032     2.554     2.499
    33   1 H        0.924     0.024     2.667     2.554
    34   1 H        0.924     0.037     2.493     2.469
    35   1 H        0.924     0.024     2.673     2.557
    36   1 H        0.924     0.038     2.470     2.458
    37   1 H        0.924     0.025     2.664     2.552
    38   1 H        0.924     0.041     2.438     2.442
    39   1 H        0.924     0.022     2.696     2.568
    40   1 H        0.924     0.045     2.389     2.417
    41   1 H        0.924     0.017     2.784     2.609
    42   1 H        0.924     0.049     2.329     2.387
    43   1 H        0.924     0.025     2.664     2.553
    44   1 H        0.925     0.059     2.206     2.323
    45   1 H        0.924     0.045     2.382     2.413
    46   1 H        0.925     0.076     2.024     2.225
    47   1 H        0.924     0.075     2.029     2.228
    48   1 H        0.924     0.093     1.855     2.130
    49   1 H        0.926     0.102     1.763     2.076
    50   1 H        0.927     0.101     1.773     2.082
    51   1 H        0.926     0.105     1.741     2.063
    52   1 H        0.925     0.069     2.097     2.265
    53   1 H        0.925     0.062     2.175     2.306
    54   1 H        0.925     0.039     2.467     2.456
    55   1 H        0.926     0.062     2.176     2.307
    56   1 H        0.926     0.061     2.181     2.310
    57   1 H        0.925     0.071     2.078     2.254
    58   1 H        0.925     0.057     2.235     2.338
    59   1 H        0.925     0.038     2.475     2.460
    60   1 H        0.925     0.072     2.064     2.247
    61   1 H        0.925     0.064     2.155     2.296
    62   1 H        0.925     0.062     2.172     2.304

Wiberg/Mayer (AO) data.
largest (>0.10) Wiberg bond orders for each atom

     #   Z sym  total        # sym  WBO       # sym  WBO       # sym  WBO
 ---------------------------------------------------------------------------
     1   6 C    3.997 --     2 C    1.020    28 H    0.987    27 H    0.987
                            26 H    0.986
     2   6 C    3.998 --     1 C    1.020     3 C    1.008    30 H    0.978
                            29 H    0.976
     3   6 C    3.997 --     2 C    1.008     4 C    1.008    32 H    0.977
                            31 H    0.976
     4   6 C    3.997 --     3 C    1.008     5 C    1.008    33 H    0.976
                            34 H    0.975
     5   6 C    3.997 --     4 C    1.008     6 C    1.008    35 H    0.976
                            36 H    0.974
     6   6 C    3.997 --     7 C    1.008     5 C    1.008    37 H    0.975
                            38 H    0.974
     7   6 C    3.996 --     6 C    1.008     8 C    1.007    39 H    0.975
                            40 H    0.973
     8   6 C    3.995 --     7 C    1.007     9 C    1.007    41 H    0.973
                            42 H    0.973
     9   6 C    3.993 --    10 C    1.008     8 C    1.007    43 H    0.975
                            44 H    0.970
    10   6 C    3.984 --     9 C    1.008    11 C    0.982    45 H    0.975
                            46 H    0.964
    11   6 C    3.938 --    10 C    0.982    12 N    0.969    47 H    0.967
                            48 H    0.959
    12   7 N    3.712 --    16 C    1.357    13 C    1.227    11 C    0.969
    13   6 C    3.949 --    14 C    1.588    12 N    1.227    49 H    0.959
    14   6 C    3.951 --    13 C    1.588    15 N    1.222    50 H    0.963
    15   7 N    3.717 --    16 C    1.356    14 C    1.222    17 C    0.962
    16   6 C    3.948 --    12 N    1.357    15 N    1.356    51 H    0.956
    17   6 C    3.912 --    23 C    1.359    18 C    1.358    15 N    0.962
    18   6 C    3.987 --    20 C    1.423    17 C    1.358    19 C    1.028
    19   6 C    3.992 --    18 C    1.028    54 H    0.980    52 H    0.978
                            53 H    0.963
    20   6 C    3.988 --    18 C    1.423    21 C    1.401    55 H    0.964
    21   6 C    3.984 --    22 C    1.402    20 C    1.401    25 C    1.036
    22   6 C    3.988 --    23 C    1.422    21 C    1.402    56 H    0.964
    23   6 C    3.986 --    22 C    1.422    17 C    1.359    24 C    1.027
    24   6 C    3.993 --    23 C    1.027    59 H    0.980    57 H    0.978
                            58 H    0.965
    25   6 C    3.991 --    21 C    1.036    62 H    0.979    61 H    0.976
                            60 H    0.956
    26   1 H    0.999 --     1 C    0.986
    27   1 H    0.999 --     1 C    0.987
    28   1 H    0.999 --     1 C    0.987
    29   1 H    0.999 --     2 C    0.976
    30   1 H    0.999 --     2 C    0.978
    31   1 H    0.999 --     3 C    0.976
    32   1 H    0.999 --     3 C    0.977
    33   1 H    0.999 --     4 C    0.976
    34   1 H    0.999 --     4 C    0.975
    35   1 H    0.999 --     5 C    0.976
    36   1 H    0.999 --     5 C    0.974
    37   1 H    0.999 --     6 C    0.975
    38   1 H    0.998 --     6 C    0.974
    39   1 H    0.999 --     7 C    0.975
    40   1 H    0.998 --     7 C    0.973
    41   1 H    1.000 --     8 C    0.973
    42   1 H    0.998 --     8 C    0.973
    43   1 H    0.999 --     9 C    0.975
    44   1 H    0.996 --     9 C    0.970
    45   1 H    0.998 --    10 C    0.975
    46   1 H    0.993 --    10 C    0.964
    47   1 H    0.994 --    11 C    0.967
    48   1 H    0.991 --    11 C    0.959
    49   1 H    0.989 --    13 C    0.959
    50   1 H    0.990 --    14 C    0.963
    51   1 H    0.989 --    16 C    0.956
    52   1 H    0.995 --    19 C    0.978
    53   1 H    0.996 --    19 C    0.963
    54   1 H    0.998 --    19 C    0.980
    55   1 H    0.995 --    20 C    0.964
    56   1 H    0.995 --    22 C    0.964
    57   1 H    0.995 --    24 C    0.978
    58   1 H    0.997 --    24 C    0.965
    59   1 H    0.998 --    24 C    0.980
    60   1 H    0.994 --    25 C    0.956
    61   1 H    0.995 --    25 C    0.976
    62   1 H    0.996 --    25 C    0.979
 ---------------------------------------------------------------------------

molecular dipole:
                 x           y           z       tot (Debye)
 q only:       -6.769       4.014     -18.499
   full:       -6.710       4.101     -18.500      51.095

           -------------------------------------------------
          | TOTAL ENERGY              -73.646038291488 Eh   |
          | GRADIENT NORM               0.000291384086 Eh/α |
          | HOMO-LUMO GAP               2.136375537446 eV   |
           -------------------------------------------------

 * finished run on 2024/12/20 at 02:04:43.998
