   * xtb version 6.7.1 (edcfbbe) compiled by 'conda@3ef47c1a292c' on 2024-11-25

   ID    Z sym.   atoms
    1    6 C      1-12, 14, 15, 17, 18
    2    7 N      13
    3    8 O      16
    4    1 H      19-54

          program call               : xtb C0063.xyz --opt --namespace C0063 --charge +1
          :  Hamiltonian                  GFN2-xTB          :
 * total energy  :   -59.2113211 Eh     change       -0.9145396E-10 Eh
 * total energy  :   -59.2191794 Eh     change       -0.7858245E-02 Eh
 * total energy  :   -59.2211120 Eh     change       -0.1932587E-02 Eh
 * total energy  :   -59.2212686 Eh     change       -0.1566561E-03 Eh
 * total energy  :   -59.2215045 Eh     change       -0.2359026E-03 Eh
 * total energy  :   -59.2216240 Eh     change       -0.1194723E-03 Eh
 * total energy  :   -59.2217997 Eh     change       -0.1757036E-03 Eh
 * total energy  :   -59.2218780 Eh     change       -0.7827949E-04 Eh
 * total energy  :   -59.2219273 Eh     change       -0.4929239E-04 Eh
 * total energy  :   -59.2219633 Eh     change       -0.3600095E-04 Eh
 * total energy  :   -59.2239950 Eh     change       -0.5194170E-04 Eh
 * total energy  :   -59.2240296 Eh     change       -0.3453592E-04 Eh
 * total energy  :   -59.2240233 Eh     change        0.6295704E-05 Eh
 * total energy  :   -59.2240707 Eh     change       -0.4739362E-04 Eh
 * total energy  :   -59.2240869 Eh     change       -0.1621866E-04 Eh
 * total energy  :   -59.2240963 Eh     change       -0.9453285E-05 Eh
 * total energy  :   -59.2241019 Eh     change       -0.5552998E-05 Eh
 * total energy  :   -59.2241087 Eh     change       -0.6827748E-05 Eh
 * total energy  :   -59.2241118 Eh     change       -0.3072387E-05 Eh
   *** GEOMETRY OPTIMIZATION CONVERGED AFTER 68 ITERATIONS ***

 final structure:
================
54
 xtb: 6.7.1 (edcfbbe)
C            1.81830223309992       -0.56898363551537        0.75608566038710
C            1.20528602139940       -0.29394298941474        2.12387632186130
C            1.42076773493628        1.14237968192177        2.60310216828730
C            0.77576289975471        2.21865799644634        1.72745922768400
C           -0.74393117623395        2.11287139651268        1.58518565655772
C           -1.52184791794319        2.16442142126708        2.90170876949482
C           -1.28131077769637        3.41808326607450        3.74534481133428
C           -1.60933853042113        4.73828159330191        3.04511645016676
C           -3.05452675801665        4.87424031437511        2.56095948626922
C           -4.12254958414798        4.71026424813917        3.64532408915354
C           -4.02080296035081        5.72095783146773        4.79440485421857
C           -4.31248398899652        7.16829150707081        4.37692798924023
N           -5.63685246951910        7.71458946493046        4.80249639471209
C           -5.81378530272581        7.72084190232506        6.28618037241208
C           -4.58098763854863        8.10878629460878        7.11011825615817
O           -4.07548232869556        9.35121470921510        6.67837024738470
C           -5.73559680029949        9.10233913165163        4.30032323176522
C           -6.73101046506178        6.92868840222166        4.20366697075303
H            1.31364733438591       -0.00339500304276       -0.02299500236124
H            1.73544406204862       -1.62546366426942        0.51239371617952
H            2.87196948784998       -0.29894671827535        0.75080325907203
H            0.13837751510746       -0.52284856573426        2.09763543242434
H            1.66220582258259       -0.96529366528921        2.85487761734068
H            1.04426033144541        1.23086320814600        3.62460081264079
H            2.49548810586290        1.33768220480311        2.63808715207201
H            1.03478349993293        3.19626356513082        2.14080923486256
H            1.21243997450902        2.17235881819370        0.72846334701629
H           -1.08306289429343        2.91886917712073        0.92996410855118
H           -0.99129870124989        1.17496983707086        1.08515130073707
H           -2.58698189928738        2.07518221480533        2.67420355076318
H           -1.25416173195185        1.29665086597225        3.50667426624101
H           -1.86669548169758        3.33245139839813        4.66462597348142
H           -0.23203635376880        3.44909777573402        4.04207807750633
H           -1.36796459166402        5.56148990823596        3.72294457262859
H           -0.95850243928232        4.84856912542568        2.17730650591169
H           -3.15915126325318        5.84766314213950        2.07388762775043
H           -3.24251368706626        4.11949320918823        1.79718521768738
H           -5.10498747820391        4.77131434137891        3.17216454839644
H           -4.03380276186482        3.71111116966343        4.07132397719490
H           -4.68595210584378        5.40581975116445        5.59856082932988
H           -3.00779276994713        5.67079368098073        5.19268510245701
H           -3.55525693142977        7.84765278475344        4.76839557682580
H           -4.27807948709451        7.23274991511613        3.28804076469960
H           -6.61675063717270        8.42589407728170        6.50894863833736
H           -6.12807496674950        6.72921336789757        6.61393601042998
H           -4.91299553779090        8.15918697181417        8.15427586735030
H           -3.80659780969312        7.33377542164109        7.04052822910642
H           -3.47872438749051        9.71272623682935        7.34181782161609
H           -5.55178905484349        9.12737652466522        3.22840873129504
H           -6.73099444542547        9.49819747794684        4.49175791087734
H           -5.00436328160766        9.72769122993248        4.80800309752616
H           -6.67204505872199        6.98413472708659        3.11805309561967
H           -6.66596636116709        5.88613455896944        4.50570713440105
H           -7.69409620553907        7.32521839249621        4.52111493639343

          :  Hamiltonian                  GFN2-xTB          :
         :: total energy             -59.224111784237 Eh    ::
         :: gradient norm              0.000271846478 Eh/a0 ::
         :: HOMO-LUMO gap              6.588616825058 eV    ::
         :: SCC energy               -60.029316522714 Eh    ::
         :: -> dispersion             -0.043492993839 Eh    ::
         :: repulsion energy           0.805204738478 Eh    ::

    * Orbital Energies and Occupations

         #    Occupation            Energy/Eh            Energy/eV
      -------------------------------------------------------------
         1        2.0000           -0.8581168             -23.3505
       ...           ...                  ...                  ...
        43        2.0000           -0.5447476             -14.8233
        44        2.0000           -0.5390335             -14.6678
        45        2.0000           -0.5313545             -14.4589
        46        2.0000           -0.5289064             -14.3923
        47        2.0000           -0.5182732             -14.1029
        48        2.0000           -0.5144137             -13.9979
        49        2.0000           -0.5074157             -13.8075
        50        2.0000           -0.4975997             -13.5404
        51        2.0000           -0.4933056             -13.4235
        52        2.0000           -0.4892493             -13.3132
        53        2.0000           -0.4751068             -12.9283
        54        2.0000           -0.4710534             -12.8180
        55        2.0000           -0.4686066             -12.7514 (HOMO)
        56                         -0.2264794              -6.1628 (LUMO)
        57                         -0.1686042              -4.5880
        58                         -0.1468964              -3.9973
        59                         -0.1399998              -3.8096
        60                         -0.1051552              -2.8614
        61                         -0.0639144              -1.7392
        62                         -0.0515394              -1.4025
        63                         -0.0461148              -1.2548
        64                         -0.0326654              -0.8889
        65                         -0.0250920              -0.6828
        66                         -0.0133853              -0.3642
       ...                                ...                  ...
       108                          0.2543395               6.9209
      -------------------------------------------------------------
                  HL-Gap            0.2421272 Eh            6.5886 eV

     #   Z          covCN         q      C6AA      α(0)
     1   6 C        3.751    -0.103    22.524     6.768
     2   6 C        3.799    -0.053    21.519     6.605
     3   6 C        3.801    -0.058    21.613     6.619
     4   6 C        3.800    -0.058    21.617     6.620
     5   6 C        3.800    -0.058    21.614     6.619
     6   6 C        3.800    -0.058    21.627     6.621
     7   6 C        3.800    -0.059    21.641     6.624
     8   6 C        3.800    -0.061    21.678     6.629
     9   6 C        3.800    -0.063    21.713     6.634
    10   6 C        3.800    -0.068    21.810     6.649
    11   6 C        3.799    -0.073    21.891     6.662
    12   6 C        3.759    -0.045    21.426     6.599
    13   7 N        3.621     0.137    18.909     6.458
    14   6 C        3.760    -0.040    21.340     6.586
    15   6 C        3.672     0.072    19.612     6.347
    16   8 O        1.656    -0.440    21.638     6.279
    17   6 C        3.727    -0.104    22.588     6.786
    18   6 C        3.723    -0.095    22.435     6.764
    19   1 H        0.925     0.034     2.533     2.489
    20   1 H        0.925     0.034     2.526     2.485
    21   1 H        0.925     0.036     2.509     2.477
    22   1 H        0.924     0.029     2.594     2.519
    23   1 H        0.924     0.029     2.598     2.521
    24   1 H        0.924     0.026     2.640     2.541
    25   1 H        0.924     0.031     2.566     2.505
    26   1 H        0.924     0.026     2.651     2.546
    27   1 H        0.924     0.036     2.502     2.474
    28   1 H        0.924     0.025     2.661     2.551
    29   1 H        0.924     0.037     2.490     2.468
    30   1 H        0.924     0.024     2.672     2.556
    31   1 H        0.924     0.038     2.474     2.460
    32   1 H        0.924     0.021     2.712     2.575
    33   1 H        0.924     0.041     2.435     2.440
    34   1 H        0.924     0.021     2.719     2.579
    35   1 H        0.924     0.047     2.360     2.402
    36   1 H        0.924     0.022     2.706     2.573
    37   1 H        0.925     0.052     2.291     2.367
    38   1 H        0.924     0.031     2.573     2.508
    39   1 H        0.925     0.059     2.213     2.326
    40   1 H        0.925     0.044     2.401     2.423
    41   1 H        0.925     0.072     2.063     2.246
    42   1 H        0.925     0.097     1.816     2.107
    43   1 H        0.924     0.090     1.875     2.141
    44   1 H        0.924     0.098     1.801     2.098
    45   1 H        0.924     0.087     1.906     2.159
    46   1 H        0.924     0.062     2.177     2.307
    47   1 H        0.924     0.053     2.280     2.361
    48   1 H        0.805     0.314     0.679     1.295
    49   1 H        0.925     0.093     1.852     2.128
    50   1 H        0.925     0.093     1.847     2.125
    51   1 H        0.925     0.129     1.539     1.940
    52   1 H        0.925     0.100     1.786     2.090
    53   1 H        0.925     0.101     1.777     2.085
    54   1 H        0.925     0.093     1.850     2.127

Wiberg/Mayer (AO) data.
largest (>0.10) Wiberg bond orders for each atom

     #   Z sym  total        # sym  WBO       # sym  WBO       # sym  WBO
 ---------------------------------------------------------------------------
     1   6 C    3.997 --     2 C    1.020    21 H    0.987    20 H    0.987
                            19 H    0.986
     2   6 C    3.998 --     1 C    1.020     3 C    1.008    23 H    0.978
                            22 H    0.976
     3   6 C    3.997 --     2 C    1.008     4 C    1.008    25 H    0.977
                            24 H    0.976
     4   6 C    3.997 --     5 C    1.008     3 C    1.008    26 H    0.975
                            27 H    0.975
     5   6 C    3.997 --     4 C    1.008     6 C    1.008    28 H    0.975
                            29 H    0.974
     6   6 C    3.997 --     5 C    1.008     7 C    1.007    30 H    0.976
                            31 H    0.974
     7   6 C    3.997 --     8 C    1.008     6 C    1.007    32 H    0.975
                            33 H    0.974
     8   6 C    3.996 --     7 C    1.008     9 C    1.007    34 H    0.975
                            35 H    0.973
     9   6 C    3.995 --    10 C    1.007     8 C    1.007    36 H    0.973
                            37 H    0.972
    10   6 C    3.992 --     9 C    1.007    11 C    1.004    38 H    0.975
                            39 H    0.971
    11   6 C    3.985 --    10 C    1.004    12 C    1.002    40 H    0.968
                            41 H    0.966
    12   6 C    3.921 --    11 C    1.002    42 H    0.966    43 H    0.960
                            13 N    0.923
    13   7 N    3.812 --    18 C    0.961    17 C    0.954    14 C    0.939
                            12 C    0.923
    14   6 C    3.943 --    15 C    1.004    45 H    0.965    44 H    0.965
                            13 N    0.939
    15   6 C    3.958 --    16 O    1.004    14 C    1.004    46 H    0.964
                            47 H    0.964
    16   8 O    1.959 --    15 C    1.004    48 H    0.885
    17   6 C    3.918 --    49 H    0.976    50 H    0.975    51 H    0.961
                            13 N    0.954
    18   6 C    3.930 --    54 H    0.976    52 H    0.974    53 H    0.971
                            13 N    0.961
    19   1 H    0.999 --     1 C    0.986
    20   1 H    0.999 --     1 C    0.987
    21   1 H    0.999 --     1 C    0.987
    22   1 H    0.999 --     2 C    0.976
    23   1 H    0.999 --     2 C    0.978
    24   1 H    0.999 --     3 C    0.976
    25   1 H    0.999 --     3 C    0.977
    26   1 H    0.999 --     4 C    0.975
    27   1 H    0.999 --     4 C    0.975
    28   1 H    0.999 --     5 C    0.975
    29   1 H    0.999 --     5 C    0.974
    30   1 H    0.999 --     6 C    0.976
    31   1 H    0.999 --     6 C    0.974
    32   1 H    1.000 --     7 C    0.975
    33   1 H    0.998 --     7 C    0.974
    34   1 H    1.000 --     8 C    0.975
    35   1 H    0.998 --     8 C    0.973
    36   1 H    1.000 --     9 C    0.973
    37   1 H    0.997 --     9 C    0.972
    38   1 H    0.999 --    10 C    0.975
    39   1 H    0.996 --    10 C    0.971
    40   1 H    0.998 --    11 C    0.968
    41   1 H    0.995 --    11 C    0.966
    42   1 H    0.991 --    12 C    0.966
    43   1 H    0.992 --    12 C    0.960
    44   1 H    0.990 --    14 C    0.965
    45   1 H    0.992 --    14 C    0.965
    46   1 H    0.996 --    15 C    0.964
    47   1 H    0.997 --    15 C    0.964
    48   1 H    0.901 --    16 O    0.885
    49   1 H    0.991 --    17 C    0.976
    50   1 H    0.991 --    17 C    0.975
    51   1 H    0.983 --    17 C    0.961
    52   1 H    0.990 --    18 C    0.974
    53   1 H    0.990 --    18 C    0.971
    54   1 H    0.991 --    18 C    0.976
 ---------------------------------------------------------------------------

molecular dipole:
                 x           y           z       tot (Debye)
 q only:       -9.879      13.935       9.461
   full:       -9.899      13.957       9.710      50.008

           -------------------------------------------------
          | TOTAL ENERGY              -59.224111784237 Eh   |
          | GRADIENT NORM               0.000271846478 Eh/α |
          | HOMO-LUMO GAP               6.588616825058 eV   |
           -------------------------------------------------

 * finished run on 2024/12/20 at 02:04:27.319
