   * xtb version 6.7.1 (edcfbbe) compiled by 'conda@3ef47c1a292c' on 2024-11-25

   ID    Z sym.   atoms
    1    6 C      1-12, 14-27
    2    7 N      13
    3    1 H      28-75

          program call               : xtb C0061.xyz --opt --namespace C0061 --charge +1
          :  Hamiltonian                  GFN2-xTB          :
 * total energy  :   -82.6995814 Eh     change       -0.1168786E-08 Eh
 * total energy  :   -82.7093400 Eh     change       -0.9758551E-02 Eh
 * total energy  :   -82.7118371 Eh     change       -0.2497109E-02 Eh
 * total energy  :   -82.7121604 Eh     change       -0.3233253E-03 Eh
 * total energy  :   -82.7124483 Eh     change       -0.2878392E-03 Eh
 * total energy  :   -82.7125965 Eh     change       -0.1482474E-03 Eh
 * total energy  :   -82.7127802 Eh     change       -0.1837090E-03 Eh
 * total energy  :   -82.7129549 Eh     change       -0.1746583E-03 Eh
 * total energy  :   -82.7131179 Eh     change       -0.1630385E-03 Eh
 * total energy  :   -82.7132992 Eh     change       -0.1812488E-03 Eh
 * total energy  :   -82.7181116 Eh     change       -0.2232457E-04 Eh
 * total energy  :   -82.7181588 Eh     change       -0.4719644E-04 Eh
 * total energy  :   -82.7182105 Eh     change       -0.5167461E-04 Eh
 * total energy  :   -82.7182380 Eh     change       -0.2748522E-04 Eh
 * total energy  :   -82.7182676 Eh     change       -0.2961273E-04 Eh
 * total energy  :   -82.7182783 Eh     change       -0.1066878E-04 Eh
 * total energy  :   -82.7182908 Eh     change       -0.1253248E-04 Eh
 * total energy  :   -82.7182961 Eh     change       -0.5325157E-05 Eh
 * total energy  :   -82.7183010 Eh     change       -0.4850519E-05 Eh
   *** GEOMETRY OPTIMIZATION CONVERGED AFTER 71 ITERATIONS ***

 final structure:
================
75
 xtb: 6.7.1 (edcfbbe)
C            1.72675378247188        1.63488325040275        0.16979522256260
C            1.50817611243133        2.30235824882435       -1.18275009675462
C            1.78544545680786        1.37473898285217       -2.36689169730134
C            0.90504399360552        0.12478007532212       -2.42803710686060
C           -0.59910707447836        0.39647540704717       -2.48930171181990
C           -1.05718120999579        1.22839592109430       -3.68883159319926
C           -0.73701534316532        0.62207572578944       -5.05684768899284
C           -1.29740037159768       -0.78323780327822       -5.28779695603504
C           -2.81184572646976       -0.91094836067131       -5.10685098111062
C           -3.64514988496140       -0.03677262405069       -6.04576421852387
C           -3.44665809993392       -0.30248018256869       -7.54165344737512
C           -3.60389040742250       -1.73651291289093       -8.05806339742075
N           -4.97500190000024       -2.33892612988341       -8.12586209548722
C           -5.99389157311477       -1.40485692647912       -8.69350024217069
C           -5.71613264992109       -0.83171216963479      -10.08916607613799
C           -5.89990736255245       -1.79788301292140      -11.23558840787503
C           -4.77929941311487       -2.17213931254523      -11.97155426517841
C           -4.85092500615708       -3.07041326493282      -13.02623380792552
C           -6.09829492623342       -3.58994854322978      -13.34736132552211
C           -7.22333049375725       -3.20096054566428      -12.64836158421295
C           -7.15273598810562       -2.30327578539848      -11.58839587933958
C           -8.42437061853750       -1.91909742011663      -10.88945070683783
C           -3.62400721809038       -3.46073901795252      -13.80940881595177
C           -3.10236232336366       -2.26443915552617      -14.60880274142021
C           -2.53187353545103       -4.02476453651540      -12.89744601175154
C           -4.88535234470519       -3.56667062551651       -8.94222626482051
C           -5.43634884133693       -2.74479519171948       -6.78369939070112
H            1.00233905603863        0.84242437026757        0.34040279328500
H            1.62200086612998        2.36411917295691        0.96957939881175
H            2.72538722662693        1.20743177475510        0.22603056983763
H            0.48735982146833        2.68493171629968       -1.23931978088753
H            2.17940742099389        3.16054594491816       -1.26388334658224
H            1.67250275739866        1.94504371770015       -3.29162643404057
H            2.82706456263157        1.04828485631152       -2.31515908103025
H            1.20503159938886       -0.46237018472674       -3.29922308416183
H            1.10148292199941       -0.49086427099379       -1.54850662165793
H           -1.12071880066533       -0.56385966577414       -2.48975710677613
H           -0.90329409195345        0.91971008772961       -1.58138153895971
H           -2.13475410336602        1.38999733927706       -3.60367352646164
H           -0.58694743000749        2.21153514051839       -3.63986699045558
H           -1.11070787539999        1.29923502204904       -5.82914030901550
H            0.34588239274181        0.57262429038278       -5.17873530863596
H           -1.01383181969392       -1.10652557931263       -6.29304777916735
H           -0.82028873184619       -1.47116036399959       -4.58859148226285
H           -3.08582519509299       -1.96291128561151       -5.22055367158554
H           -3.06594729987406       -0.63268990021038       -4.08396558696464
H           -4.69980188095191       -0.11780581896067       -5.77098974819816
H           -3.37193159808841        1.00514792332953       -5.87544137294847
H           -4.08345660598582        0.38147535369207       -8.10268204599967
H           -2.41679289888262       -0.03292796432455       -7.78520704254206
H           -3.20578520932597       -1.76248049943295       -9.07391516293217
H           -2.99189706462322       -2.40201597451895       -7.44742238561732
H           -6.94030775722634       -1.94585633882411       -8.72161551234090
H           -6.09711097278066       -0.57972449231357       -7.98683625185269
H           -4.71502374937560       -0.40432130125170      -10.13952917407586
H           -6.41623503535942       -0.00167875420284      -10.21519466199896
H           -3.82236346486051       -1.73277275687547      -11.72179197759664
H           -6.19275095098019       -4.29053181638667      -14.16289484321778
H           -8.18649748749352       -3.59728993443816      -12.93277738254780
H           -9.25412858004560       -1.97044247910963      -11.58975848849901
H           -8.65134709052161       -2.61098311656722      -10.07634288653057
H           -8.38580283270170       -0.91025529216556      -10.48648740424751
H           -3.91140470267257       -4.24459826186772      -14.51686286107346
H           -2.78382169014685       -1.46245168061703      -13.94672898633932
H           -2.25387574856356       -2.56375830569413      -15.21837091085328
H           -3.87982704417851       -1.87950573577545      -15.26428117508074
H           -2.91824380931879       -4.85069199137864      -12.30284685173647
H           -1.70462312420582       -4.39344633536929      -13.49764681665920
H           -2.14392363565086       -3.26060409075584      -12.22730060833889
H           -4.16153652542611       -4.25120002787097       -8.50331527194093
H           -5.85500176503821       -4.05936153916298       -8.98080105470627
H           -4.58479323637170       -3.33271388034733       -9.96194512100911
H           -4.73470785283443       -3.45194895551972       -6.34567856886514
H           -5.52224256233623       -1.88469186619673       -6.12672177463295
H           -6.40986543391696       -3.22719033857695       -6.85521348318982

          :  Hamiltonian                  GFN2-xTB          :
         :: total energy             -82.718300988319 Eh    ::
         :: gradient norm              0.000332266941 Eh/a0 ::
         :: HOMO-LUMO gap              3.977477609507 eV    ::
         :: SCC energy               -84.003122819050 Eh    ::
         :: -> dispersion             -0.070350061299 Eh    ::
         :: repulsion energy           1.284821830731 Eh    ::

    * Orbital Energies and Occupations

         #    Occupation            Energy/Eh            Energy/eV
      -------------------------------------------------------------
         1        2.0000           -0.8514188             -23.1683
       ...           ...                  ...                  ...
        66        2.0000           -0.5202288             -14.1561
        67        2.0000           -0.5166114             -14.0577
        68        2.0000           -0.5087813             -13.8446
        69        2.0000           -0.5086418             -13.8408
        70        2.0000           -0.5079135             -13.8210
        71        2.0000           -0.4996611             -13.5965
        72        2.0000           -0.4988639             -13.5748
        73        2.0000           -0.4948503             -13.4656
        74        2.0000           -0.4910164             -13.3612
        75        2.0000           -0.4859336             -13.2229
        76        2.0000           -0.4758386             -12.9482
        77        2.0000           -0.4721679             -12.8483
        78        2.0000           -0.4698484             -12.7852 (HOMO)
        79                         -0.3236788              -8.8077 (LUMO)
        80                         -0.3192258              -8.6866
        81                         -0.2205413              -6.0012
        82                         -0.1975349              -5.3752
        83                         -0.1592510              -4.3334
        84                         -0.1370932              -3.7305
        85                         -0.1360158              -3.7012
        86                         -0.0715095              -1.9459
        87                         -0.0584121              -1.5895
        88                         -0.0473898              -1.2895
        89                         -0.0338794              -0.9219
       ...                                ...                  ...
       156                          0.5491824              14.9440
      -------------------------------------------------------------
                  HL-Gap            0.1461696 Eh            3.9775 eV

     #   Z          covCN         q      C6AA      α(0)
     1   6 C        3.751    -0.103    22.522     6.768
     2   6 C        3.799    -0.053    21.520     6.605
     3   6 C        3.800    -0.058    21.615     6.619
     4   6 C        3.800    -0.058    21.612     6.619
     5   6 C        3.800    -0.058    21.611     6.619
     6   6 C        3.800    -0.059    21.631     6.622
     7   6 C        3.800    -0.059    21.644     6.624
     8   6 C        3.800    -0.060    21.664     6.627
     9   6 C        3.800    -0.064    21.725     6.636
    10   6 C        3.799    -0.065    21.755     6.641
    11   6 C        3.799    -0.073    21.892     6.662
    12   6 C        3.756    -0.037    21.288     6.579
    13   7 N        3.620     0.130    19.022     6.478
    14   6 C        3.759    -0.037    21.288     6.578
    15   6 C        3.806    -0.074    21.918     6.665
    16   6 C        2.969    -0.016    28.405     8.742
    17   6 C        2.931    -0.055    29.355     8.885
    18   6 C        2.971     0.011    27.778     8.645
    19   6 C        2.925    -0.038    28.947     8.823
    20   6 C        2.925    -0.039    28.961     8.825
    21   6 C        2.967     0.003    27.958     8.673
    22   6 C        3.758    -0.115    22.744     6.799
    23   6 C        3.855    -0.016    20.832     6.491
    24   6 C        3.756    -0.105    22.566     6.773
    25   6 C        3.755    -0.105    22.560     6.773
    26   6 C        3.728    -0.097    22.452     6.765
    27   6 C        3.729    -0.092    22.354     6.750
    28   1 H        0.925     0.033     2.541     2.493
    29   1 H        0.925     0.034     2.525     2.485
    30   1 H        0.925     0.036     2.506     2.476
    31   1 H        0.924     0.029     2.598     2.521
    32   1 H        0.924     0.030     2.586     2.515
    33   1 H        0.924     0.027     2.631     2.536
    34   1 H        0.924     0.032     2.561     2.503
    35   1 H        0.924     0.025     2.655     2.548
    36   1 H        0.924     0.035     2.512     2.478
    37   1 H        0.924     0.023     2.686     2.563
    38   1 H        0.924     0.037     2.484     2.465
    39   1 H        0.924     0.024     2.678     2.559
    40   1 H        0.924     0.040     2.451     2.448
    41   1 H        0.924     0.024     2.677     2.559
    42   1 H        0.924     0.042     2.428     2.437
    43   1 H        0.924     0.021     2.725     2.581
    44   1 H        0.924     0.044     2.395     2.420
    45   1 H        0.924     0.017     2.773     2.604
    46   1 H        0.925     0.052     2.297     2.370
    47   1 H        0.924     0.023     2.682     2.561
    48   1 H        0.924     0.062     2.173     2.305
    49   1 H        0.925     0.053     2.280     2.361
    50   1 H        0.924     0.075     2.034     2.230
    51   1 H        0.924     0.081     1.968     2.194
    52   1 H        0.924     0.085     1.923     2.169
    53   1 H        0.924     0.087     1.905     2.158
    54   1 H        0.924     0.081     1.971     2.195
    55   1 H        0.925     0.056     2.242     2.342
    56   1 H        0.924     0.073     2.057     2.243
    57   1 H        0.925     0.025     2.652     2.547
    58   1 H        0.926     0.046     2.365     2.405
    59   1 H        0.926     0.047     2.363     2.404
    60   1 H        0.925     0.060     2.194     2.316
    61   1 H        0.924     0.038     2.475     2.460
    62   1 H        0.925     0.043     2.403     2.424
    63   1 H        0.924     0.042     2.418     2.432
    64   1 H        0.925     0.037     2.493     2.469
    65   1 H        0.925     0.048     2.342     2.393
    66   1 H        0.925     0.041     2.434     2.440
    67   1 H        0.925     0.029     2.597     2.520
    68   1 H        0.925     0.050     2.326     2.385
    69   1 H        0.925     0.030     2.583     2.514
    70   1 H        0.925     0.089     1.893     2.152
    71   1 H        0.925     0.090     1.878     2.143
    72   1 H        0.925     0.109     1.708     2.044
    73   1 H        0.925     0.092     1.862     2.134
    74   1 H        0.925     0.103     1.760     2.075
    75   1 H        0.925     0.089     1.890     2.150

Wiberg/Mayer (AO) data.
largest (>0.10) Wiberg bond orders for each atom

     #   Z sym  total        # sym  WBO       # sym  WBO       # sym  WBO
 ---------------------------------------------------------------------------
     1   6 C    3.997 --     2 C    1.020    30 H    0.987    29 H    0.987
                            28 H    0.986
     2   6 C    3.998 --     1 C    1.020     3 C    1.008    32 H    0.978
                            31 H    0.976
     3   6 C    3.997 --     2 C    1.008     4 C    1.008    34 H    0.977
                            33 H    0.976
     4   6 C    3.997 --     5 C    1.008     3 C    1.008    35 H    0.975
                            36 H    0.975
     5   6 C    3.997 --     4 C    1.008     6 C    1.008    37 H    0.975
                            38 H    0.974
     6   6 C    3.997 --     5 C    1.008     7 C    1.008    39 H    0.975
                            40 H    0.974
     7   6 C    3.996 --     6 C    1.008     8 C    1.007    41 H    0.975
                            42 H    0.974
     8   6 C    3.996 --     7 C    1.007     9 C    1.007    43 H    0.976
                            44 H    0.974
     9   6 C    3.995 --    10 C    1.007     8 C    1.007    45 H    0.973
                            46 H    0.971
    10   6 C    3.992 --     9 C    1.007    11 C    1.005    48 H    0.969
                            47 H    0.968
    11   6 C    3.984 --    12 C    1.006    10 C    1.005    49 H    0.969
                            50 H    0.962
    12   6 C    3.929 --    11 C    1.006    51 H    0.966    52 H    0.964
                            13 N    0.922
    13   7 N    3.809 --    27 C    0.961    26 C    0.958    14 C    0.926
                            12 C    0.922
    14   6 C    3.930 --    15 C    0.996    54 H    0.966    53 H    0.961
                            13 N    0.926
    15   6 C    3.983 --    16 C    1.005    14 C    0.996    55 H    0.967
                            56 H    0.953
    16   6 C    3.983 --    17 C    1.407    21 C    1.388    15 C    1.005
                            19 C    0.104
    17   6 C    3.990 --    18 C    1.414    16 C    1.407    57 H    0.962
                            20 C    0.106
    18   6 C    3.987 --    17 C    1.414    19 C    1.401    23 C    1.001
                            21 C    0.103
    19   6 C    3.990 --    20 C    1.456    18 C    1.401    58 H    0.967
                            16 C    0.104
    20   6 C    3.990 --    19 C    1.456    21 C    1.406    59 H    0.968
                            17 C    0.106
    21   6 C    3.988 --    20 C    1.406    16 C    1.388    22 C    1.026
                            18 C    0.103
    22   6 C    3.994 --    21 C    1.026    60 H    0.978    62 H    0.977
                            61 H    0.966
    23   6 C    3.994 --    18 C    1.001    25 C    0.998    24 C    0.994
                            63 H    0.967
    24   6 C    3.994 --    23 C    0.994    66 H    0.987    64 H    0.986
                            65 H    0.984
    25   6 C    3.996 --    23 C    0.998    67 H    0.988    69 H    0.985
                            68 H    0.985
    26   6 C    3.926 --    70 H    0.977    71 H    0.976    13 N    0.958
                            72 H    0.957
    27   6 C    3.932 --    75 H    0.976    73 H    0.974    74 H    0.964
                            13 N    0.961
    28   1 H    0.999 --     1 C    0.986
    29   1 H    0.999 --     1 C    0.987
    30   1 H    0.999 --     1 C    0.987
    31   1 H    0.999 --     2 C    0.976
    32   1 H    0.999 --     2 C    0.978
    33   1 H    0.999 --     3 C    0.976
    34   1 H    0.999 --     3 C    0.977
    35   1 H    0.999 --     4 C    0.975
    36   1 H    0.999 --     4 C    0.975
    37   1 H    0.999 --     5 C    0.975
    38   1 H    0.999 --     5 C    0.974
    39   1 H    0.999 --     6 C    0.975
    40   1 H    0.998 --     6 C    0.974
    41   1 H    0.999 --     7 C    0.975
    42   1 H    0.998 --     7 C    0.974
    43   1 H    1.000 --     8 C    0.976
    44   1 H    0.998 --     8 C    0.974
    45   1 H    1.000 --     9 C    0.973
    46   1 H    0.997 --     9 C    0.971
    47   1 H    0.999 --    10 C    0.968
    48   1 H    0.996 --    10 C    0.969
    49   1 H    0.997 --    11 C    0.969
    50   1 H    0.994 --    11 C    0.962
    51   1 H    0.993 --    12 C    0.966
    52   1 H    0.993 --    12 C    0.964
    53   1 H    0.992 --    14 C    0.961
    54   1 H    0.993 --    14 C    0.966
    55   1 H    0.997 --    15 C    0.967
    56   1 H    0.994 --    15 C    0.953
    57   1 H    0.999 --    17 C    0.962
    58   1 H    0.997 --    19 C    0.967
    59   1 H    0.997 --    20 C    0.968
    60   1 H    0.996 --    22 C    0.978
    61   1 H    0.998 --    22 C    0.966
    62   1 H    0.998 --    22 C    0.977
    63   1 H    0.998 --    23 C    0.967
    64   1 H    0.999 --    24 C    0.986
    65   1 H    0.997 --    24 C    0.984
    66   1 H    0.998 --    24 C    0.987
    67   1 H    0.999 --    25 C    0.988
    68   1 H    0.997 --    25 C    0.985
    69   1 H    0.999 --    25 C    0.985
    70   1 H    0.992 --    26 C    0.977
    71   1 H    0.992 --    26 C    0.976
    72   1 H    0.988 --    26 C    0.957
    73   1 H    0.991 --    27 C    0.974
    74   1 H    0.989 --    27 C    0.964
    75   1 H    0.992 --    27 C    0.976
 ---------------------------------------------------------------------------

molecular dipole:
                 x           y           z       tot (Debye)
 q only:       -9.016      -4.059     -15.709
   full:       -9.113      -4.098     -15.705      47.314

           -------------------------------------------------
          | TOTAL ENERGY              -82.718300988319 Eh   |
          | GRADIENT NORM               0.000332266941 Eh/α |
          | HOMO-LUMO GAP               3.977477609507 eV   |
           -------------------------------------------------

 * finished run on 2024/12/20 at 02:04:24.107
