   * xtb version 6.7.1 (edcfbbe) compiled by 'conda@3ef47c1a292c' on 2024-11-25

   ID    Z sym.   atoms
    1    6 C      1-16, 18-23
    2    7 N      17
    3    1 H      24-71

          program call               : xtb C0066.xyz --opt --namespace C0066 --charge +1
          :  Hamiltonian                  GFN2-xTB          :
 * total energy  :   -74.1355871 Eh     change       -0.4732215E-10 Eh
 * total energy  :   -74.1425183 Eh     change       -0.6931249E-02 Eh
 * total energy  :   -74.1440587 Eh     change       -0.1540365E-02 Eh
 * total energy  :   -74.1441505 Eh     change       -0.9186697E-04 Eh
 * total energy  :   -74.1442679 Eh     change       -0.1173293E-03 Eh
 * total energy  :   -74.1443304 Eh     change       -0.6252025E-04 Eh
 * total energy  :   -74.1444884 Eh     change       -0.1580388E-03 Eh
 * total energy  :   -74.1446098 Eh     change       -0.1213865E-03 Eh
 * total energy  :   -74.1446529 Eh     change       -0.4304072E-04 Eh
 * total energy  :   -74.1447559 Eh     change       -0.1030203E-03 Eh
 * total energy  :   -74.1461566 Eh     change       -0.1283178E-04 Eh
 * total energy  :   -74.1461659 Eh     change       -0.9338180E-05 Eh
 * total energy  :   -74.1461752 Eh     change       -0.9286410E-05 Eh
 * total energy  :   -74.1461842 Eh     change       -0.8974123E-05 Eh
 * total energy  :   -74.1461941 Eh     change       -0.9879528E-05 Eh
 * total energy  :   -74.1462044 Eh     change       -0.1038547E-04 Eh
 * total energy  :   -74.1462126 Eh     change       -0.8155855E-05 Eh
 * total energy  :   -74.1462200 Eh     change       -0.7362954E-05 Eh
 * total energy  :   -74.1462229 Eh     change       -0.2905352E-05 Eh
   *** GEOMETRY OPTIMIZATION CONVERGED AFTER 44 ITERATIONS ***

 final structure:
================
71
 xtb: 6.7.1 (edcfbbe)
C            1.19891212757857       -0.13190165126034       -0.60667004771236
C            1.28481271494702       -1.06936002069460        0.59192793617891
C            1.52042521753937       -0.33865703729270        1.91478242097088
C            0.41944649054577        0.64640463420479        2.31311241400798
C           -0.97510341107974        0.03412702203039        2.45567121629795
C           -1.08859344104241       -1.07918759732417        3.49892899761476
C           -0.72069923291665       -0.66836824748062        4.92640756352814
C           -1.51735666031163        0.51281411547283        5.48408751931272
C           -3.03451775309408        0.31916216866488        5.49389268557601
C           -3.53202365314939       -0.83554354237258        6.36536225146615
C           -3.21363083909547       -0.70526344961758        7.85683249838634
C           -3.71029579942855        0.58575993470879        8.51236131127371
C           -5.20775280703947        0.85197980339602        8.34608583905954
C           -6.12582918841527       -0.20757902479157        8.95850418735001
C           -5.96607166843044       -0.42638777368007       10.46971071341208
C           -6.00714058080951        0.81599392429126       11.36545279212424
N           -7.34497458702238        1.30516812938839       11.82839441337168
C           -8.00147338221567        0.34235413151152       12.76731468554367
C           -7.33344051350404        0.14800666581598       14.13463533246529
C           -8.02209949950107        0.89760381996699       15.28152178132311
C           -9.38571773902843        0.31346037197575       15.63193131820626
C           -7.15003543280932        2.61183461238685       12.48517198971000
C           -8.25145531109473        1.50711969824581       10.68318596356603
H            0.32124286239882        0.50645596213664       -0.54435057207675
H            1.13381730460014       -0.70495547418687       -1.52879437439355
H            2.08242576556353        0.50072128172481       -0.65892985913026
H            0.37273311995508       -1.66566780445978        0.65364746916701
H            2.11479715419715       -1.76316301887734        0.43708926783025
H            1.64570479359436       -1.08081034605824        2.70613554717498
H            2.45901308230409        0.21696197181071        1.84203791477237
H            0.70670391023693        1.11536907254503        3.25690105198037
H            0.36661707151710        1.44171453765386        1.56703088880777
H           -1.67603803591560        0.83481253860827        2.70303032282400
H           -1.28731539196801       -0.37183062879463        1.49163665820504
H           -2.11326584062598       -1.45837932770994        3.48471122367808
H           -0.44116116515512       -1.90857355081299        3.20855199354831
H           -0.85390626371273       -1.53596181593085        5.57710464285297
H            0.33842280876316       -0.40642959075092        4.96105515248676
H           -1.16876893884381        0.71315499698237        6.50005464216598
H           -1.29491100640817        1.40208513596765        4.89156094650389
H           -3.49747677493875        1.25219261339983        5.82412205150233
H           -3.37624826959016        0.14206841333482        4.47305145515312
H           -4.61267418740488       -0.92773822981219        6.23032420390877
H           -3.09020597998743       -1.76677308609821        6.00826428978850
H           -3.63865830433593       -1.56857471062079        8.37518703781886
H           -2.13275350743795       -0.75471205331312        7.99595562739053
H           -3.45180035036511        0.55671909616073        9.57431537984774
H           -3.17141355495638        1.42921901259025        8.07873633651770
H           -5.43505997661251        1.83977147296549        8.75910150108878
H           -5.43687453044638        0.90690782331538        7.28202682084393
H           -7.15602423689654        0.04039791308262        8.70075519636125
H           -5.91115066337903       -1.16383603890869        8.48095215083843
H           -6.69398116337262       -1.16964084981095       10.79737070995963
H           -4.98321585357106       -0.87255273890255       10.62897960526523
H           -5.42271766487477        0.61111535002148       12.26312095551890
H           -5.52485975380627        1.64049205805760       10.83905907628792
H           -9.02242177067273        0.69486718376892       12.92402814156434
H           -8.06040875298737       -0.61417096964042       12.24773812551043
H           -7.36079545736397       -0.91609181810436       14.37396931568358
H           -6.28065969032728        0.42820315058123       14.10292838371235
H           -7.38090767464118        0.82436436699493       16.16065839004997
H           -8.12840302684804        1.95758531665078       15.04651965951854
H           -9.29294590129728       -0.73502471388277       15.90249227193737
H           -9.80874028778200        0.84481560136696       16.47938244457740
H          -10.08960042677431        0.39147164966095       14.80619825450324
H           -6.78625931485895        3.34083216425177       11.76282352102625
H           -8.09569541386655        2.96774065743812       12.88955771317195
H           -6.42755195690749        2.53515825184919       13.29381790310744
H           -7.75644816790431        2.09925686839976        9.91617302178984
H           -8.54684849362896        0.55075691836648       10.25977151675682
H           -9.14864517337202        2.03375469919709       11.00520023959140

          :  Hamiltonian                  GFN2-xTB          :
         :: total energy             -74.146222866867 Eh    ::
         :: gradient norm              0.000226813998 Eh/a0 ::
         :: HOMO-LUMO gap              6.149648063350 eV    ::
         :: SCC energy               -75.228381160511 Eh    ::
         :: -> dispersion             -0.059083448669 Eh    ::
         :: repulsion energy           1.082158293643 Eh    ::

    * Orbital Energies and Occupations

         #    Occupation            Energy/Eh            Energy/eV
      -------------------------------------------------------------
         1        2.0000           -0.8587649             -23.3682
       ...           ...                  ...                  ...
        58        2.0000           -0.5140927             -13.9892
        59        2.0000           -0.5081248             -13.8268
        60        2.0000           -0.5048106             -13.7366
        61        2.0000           -0.4976285             -13.5412
        62        2.0000           -0.4924071             -13.3991
        63        2.0000           -0.4886242             -13.2961
        64        2.0000           -0.4842349             -13.1767
        65        2.0000           -0.4740776             -12.9003
        66        2.0000           -0.4728859             -12.8679
        67        2.0000           -0.4698854             -12.7862
        68        2.0000           -0.4595502             -12.5050
        69        2.0000           -0.4543838             -12.3644
        70        2.0000           -0.4530703             -12.3287 (HOMO)
        71                         -0.2270749              -6.1790 (LUMO)
        72                         -0.1679708              -4.5707
        73                         -0.1452454              -3.9523
        74                         -0.1397878              -3.8038
        75                         -0.0796767              -2.1681
        76                         -0.0707835              -1.9261
        77                         -0.0570297              -1.5519
        78                         -0.0362913              -0.9875
        79                         -0.0319400              -0.8691
        80                         -0.0263499              -0.7170
        81                         -0.0109188              -0.2971
       ...                                ...                  ...
       140                          0.2674061               7.2765
      -------------------------------------------------------------
                  HL-Gap            0.2259954 Eh            6.1496 eV

     #   Z          covCN         q      C6AA      α(0)
     1   6 C        3.751    -0.102    22.503     6.765
     2   6 C        3.799    -0.052    21.510     6.603
     3   6 C        3.800    -0.057    21.600     6.617
     4   6 C        3.800    -0.057    21.594     6.616
     5   6 C        3.800    -0.056    21.589     6.616
     6   6 C        3.800    -0.057    21.597     6.617
     7   6 C        3.800    -0.057    21.596     6.617
     8   6 C        3.800    -0.057    21.600     6.617
     9   6 C        3.800    -0.058    21.617     6.620
    10   6 C        3.800    -0.059    21.634     6.622
    11   6 C        3.800    -0.059    21.642     6.624
    12   6 C        3.800    -0.061    21.674     6.628
    13   6 C        3.800    -0.062    21.689     6.631
    14   6 C        3.799    -0.071    21.862     6.657
    15   6 C        3.798    -0.071    21.870     6.659
    16   6 C        3.757    -0.041    21.352     6.588
    17   7 N        3.620     0.129    19.039     6.481
    18   6 C        3.759    -0.040    21.345     6.586
    19   6 C        3.800    -0.073    21.894     6.662
    20   6 C        3.799    -0.065    21.746     6.640
    21   6 C        3.752    -0.114    22.751     6.802
    22   6 C        3.726    -0.092    22.361     6.752
    23   6 C        3.726    -0.092    22.361     6.752
    24   1 H        0.925     0.034     2.536     2.490
    25   1 H        0.925     0.032     2.557     2.501
    26   1 H        0.925     0.034     2.530     2.487
    27   1 H        0.924     0.030     2.587     2.515
    28   1 H        0.924     0.028     2.621     2.532
    29   1 H        0.924     0.028     2.618     2.530
    30   1 H        0.924     0.029     2.601     2.522
    31   1 H        0.924     0.027     2.633     2.538
    32   1 H        0.924     0.032     2.561     2.503
    33   1 H        0.924     0.025     2.655     2.548
    34   1 H        0.924     0.033     2.548     2.496
    35   1 H        0.924     0.025     2.657     2.549
    36   1 H        0.924     0.034     2.534     2.490
    37   1 H        0.924     0.025     2.656     2.548
    38   1 H        0.924     0.034     2.536     2.490
    39   1 H        0.924     0.024     2.668     2.554
    40   1 H        0.924     0.034     2.527     2.486
    41   1 H        0.924     0.023     2.692     2.566
    42   1 H        0.924     0.038     2.482     2.464
    43   1 H        0.924     0.024     2.680     2.560
    44   1 H        0.924     0.040     2.444     2.445
    45   1 H        0.924     0.024     2.678     2.559
    46   1 H        0.924     0.041     2.433     2.439
    47   1 H        0.924     0.020     2.729     2.583
    48   1 H        0.924     0.044     2.392     2.419
    49   1 H        0.924     0.013     2.841     2.636
    50   1 H        0.925     0.055     2.264     2.353
    51   1 H        0.924     0.032     2.553     2.499
    52   1 H        0.924     0.063     2.169     2.303
    53   1 H        0.924     0.048     2.349     2.397
    54   1 H        0.924     0.076     2.023     2.224
    55   1 H        0.924     0.078     1.997     2.210
    56   1 H        0.924     0.091     1.870     2.138
    57   1 H        0.924     0.089     1.886     2.148
    58   1 H        0.925     0.081     1.965     2.192
    59   1 H        0.924     0.072     2.059     2.244
    60   1 H        0.925     0.049     2.329     2.387
    61   1 H        0.924     0.057     2.239     2.340
    62   1 H        0.924     0.037     2.488     2.467
    63   1 H        0.925     0.050     2.320     2.382
    64   1 H        0.925     0.057     2.237     2.339
    65   1 H        0.925     0.033     2.539     2.492
    66   1 H        0.925     0.093     1.849     2.127
    67   1 H        0.925     0.096     1.817     2.108
    68   1 H        0.925     0.100     1.787     2.091
    69   1 H        0.925     0.100     1.783     2.088
    70   1 H        0.925     0.100     1.785     2.090
    71   1 H        0.925     0.092     1.861     2.133

Wiberg/Mayer (AO) data.
largest (>0.10) Wiberg bond orders for each atom

     #   Z sym  total        # sym  WBO       # sym  WBO       # sym  WBO
 ---------------------------------------------------------------------------
     1   6 C    3.997 --     2 C    1.020    26 H    0.988    25 H    0.987
                            24 H    0.986
     2   6 C    3.998 --     1 C    1.020     3 C    1.008    28 H    0.978
                            27 H    0.976
     3   6 C    3.998 --     2 C    1.008     4 C    1.008    30 H    0.977
                            29 H    0.976
     4   6 C    3.998 --     5 C    1.008     3 C    1.008    32 H    0.975
                            31 H    0.975
     5   6 C    3.998 --     4 C    1.008     6 C    1.008    33 H    0.975
                            34 H    0.974
     6   6 C    3.997 --     5 C    1.008     7 C    1.008    35 H    0.975
                            36 H    0.975
     7   6 C    3.997 --     8 C    1.008     6 C    1.008    37 H    0.976
                            38 H    0.975
     8   6 C    3.997 --     9 C    1.008     7 C    1.008    39 H    0.975
                            40 H    0.975
     9   6 C    3.997 --     8 C    1.008    10 C    1.008    41 H    0.975
                            42 H    0.973
    10   6 C    3.997 --     9 C    1.008    11 C    1.007    43 H    0.975
                            44 H    0.974
    11   6 C    3.996 --    10 C    1.007    12 C    1.007    45 H    0.976
                            46 H    0.974
    12   6 C    3.996 --    13 C    1.007    11 C    1.007    47 H    0.976
                            48 H    0.974
    13   6 C    3.995 --    14 C    1.008    12 C    1.007    49 H    0.971
                            50 H    0.970
    14   6 C    3.991 --    13 C    1.008    15 C    1.004    51 H    0.973
                            52 H    0.970
    15   6 C    3.984 --    16 C    1.005    14 C    1.004    53 H    0.966
                            54 H    0.964
    16   6 C    3.927 --    15 C    1.005    55 H    0.963    56 H    0.959
                            17 N    0.922
    17   7 N    3.808 --    22 C    0.961    23 C    0.960    18 C    0.926
                            16 C    0.922
    18   6 C    3.929 --    19 C    1.004    58 H    0.964    57 H    0.962
                            17 N    0.926
    19   6 C    3.985 --    20 C    1.005    18 C    1.004    59 H    0.969
                            60 H    0.964
    20   6 C    3.993 --    21 C    1.021    19 C    1.005    62 H    0.975
                            61 H    0.975
    21   6 C    3.993 --    20 C    1.021    63 H    0.986    64 H    0.984
                            65 H    0.984
    22   6 C    3.931 --    66 H    0.975    67 H    0.973    68 H    0.972
                            17 N    0.961
    23   6 C    3.930 --    71 H    0.975    69 H    0.973    70 H    0.971
                            17 N    0.960
    24   1 H    0.999 --     1 C    0.986
    25   1 H    0.999 --     1 C    0.987
    26   1 H    0.999 --     1 C    0.988
    27   1 H    0.999 --     2 C    0.976
    28   1 H    0.999 --     2 C    0.978
    29   1 H    0.999 --     3 C    0.976
    30   1 H    0.999 --     3 C    0.977
    31   1 H    0.999 --     4 C    0.975
    32   1 H    0.999 --     4 C    0.975
    33   1 H    0.999 --     5 C    0.975
    34   1 H    0.999 --     5 C    0.974
    35   1 H    0.999 --     6 C    0.975
    36   1 H    0.999 --     6 C    0.975
    37   1 H    0.999 --     7 C    0.976
    38   1 H    0.999 --     7 C    0.975
    39   1 H    0.999 --     8 C    0.975
    40   1 H    0.999 --     8 C    0.975
    41   1 H    0.999 --     9 C    0.975
    42   1 H    0.999 --     9 C    0.973
    43   1 H    0.999 --    10 C    0.975
    44   1 H    0.998 --    10 C    0.974
    45   1 H    0.999 --    11 C    0.976
    46   1 H    0.998 --    11 C    0.974
    47   1 H    1.000 --    12 C    0.976
    48   1 H    0.998 --    12 C    0.974
    49   1 H    1.000 --    13 C    0.971
    50   1 H    0.997 --    13 C    0.970
    51   1 H    0.999 --    14 C    0.973
    52   1 H    0.996 --    14 C    0.970
    53   1 H    0.998 --    15 C    0.966
    54   1 H    0.994 --    15 C    0.964
    55   1 H    0.994 --    16 C    0.963
    56   1 H    0.992 --    16 C    0.959
    57   1 H    0.992 --    18 C    0.962
    58   1 H    0.993 --    18 C    0.964
    59   1 H    0.995 --    19 C    0.969
    60   1 H    0.998 --    19 C    0.964
    61   1 H    0.997 --    20 C    0.975
    62   1 H    0.999 --    20 C    0.975
    63   1 H    0.997 --    21 C    0.986
    64   1 H    0.997 --    21 C    0.984
    65   1 H    0.999 --    21 C    0.984
    66   1 H    0.991 --    22 C    0.975
    67   1 H    0.990 --    22 C    0.973
    68   1 H    0.990 --    22 C    0.972
    69   1 H    0.990 --    23 C    0.973
    70   1 H    0.990 --    23 C    0.971
    71   1 H    0.992 --    23 C    0.975
 ---------------------------------------------------------------------------

molecular dipole:
                 x           y           z       tot (Debye)
 q only:      -13.482       2.098      22.088
   full:      -13.513       2.143      22.118      66.105

           -------------------------------------------------
          | TOTAL ENERGY              -74.146222866867 Eh   |
          | GRADIENT NORM               0.000226813998 Eh/α |
          | HOMO-LUMO GAP               6.149648063350 eV   |
           -------------------------------------------------

 * finished run on 2024/12/20 at 02:04:41.407
