   * xtb version 6.7.1 (edcfbbe) compiled by 'conda@3ef47c1a292c' on 2024-11-25

   ID    Z sym.   atoms
    1    6 C      1-3, 5, 6, 8, 9
    2    7 N      4, 7
    3    1 H      10-22

          program call               : xtb C0075.xyz --opt --namespace C0075 --charge +1
          :  Hamiltonian                  GFN2-xTB          :
 * total energy  :   -27.0918214 Eh     change       -0.2531635E-08 Eh
 * total energy  :   -27.0946702 Eh     change       -0.2848807E-02 Eh
 * total energy  :   -27.0953474 Eh     change       -0.6771851E-03 Eh
 * total energy  :   -27.0954902 Eh     change       -0.1428590E-03 Eh
 * total energy  :   -27.0955888 Eh     change       -0.9852066E-04 Eh
 * total energy  :   -27.0956235 Eh     change       -0.3473838E-04 Eh
 * total energy  :   -27.0956653 Eh     change       -0.4178879E-04 Eh
 * total energy  :   -27.0957147 Eh     change       -0.4939386E-04 Eh
 * total energy  :   -27.0957478 Eh     change       -0.3309720E-04 Eh
 * total energy  :   -27.0957646 Eh     change       -0.1676718E-04 Eh
 * total energy  :   -27.0958411 Eh     change       -0.9228947E-05 Eh
 * total energy  :   -27.0958476 Eh     change       -0.6540295E-05 Eh
 * total energy  :   -27.0958629 Eh     change       -0.1525835E-04 Eh
 * total energy  :   -27.0958820 Eh     change       -0.1913696E-04 Eh
 * total energy  :   -27.0959057 Eh     change       -0.2366058E-04 Eh
 * total energy  :   -27.0959146 Eh     change       -0.8902142E-05 Eh
 * total energy  :   -27.0959143 Eh     change        0.2948930E-06 Eh
 * total energy  :   -27.0959222 Eh     change       -0.7894690E-05 Eh
 * total energy  :   -27.0959268 Eh     change       -0.4641441E-05 Eh
   *** GEOMETRY OPTIMIZATION CONVERGED AFTER 23 ITERATIONS ***

 final structure:
================
22
 xtb: 6.7.1 (edcfbbe)
C            0.48082001560261        0.00556191119294        0.18373858968214
C            0.47721295062837        1.51878371666585        0.01046931464660
C            1.43583341175311        1.98778257443400       -1.09077191806362
N            1.01953417009031        1.50868535105750       -2.38988876168106
C            1.48893317382619        0.40019199032316       -3.02291065583188
C            0.78981990460296        0.26847604665193       -4.18506798823295
N           -0.10064430247175        1.29687049841361       -4.23956488147157
C            0.05588230592372        2.03306412803537       -3.14286041816751
C           -1.01988503305537        1.54940811777772       -5.31664636289004
H            0.13926726901137       -0.50130042087656       -0.71659122948333
H           -0.18524379833538       -0.27219970557492        0.99515200672270
H            1.47708588614396       -0.35189801702958        0.43074464791632
H           -0.53310512018365        1.86603691389989       -0.21385614338165
H            0.79167478672281        1.99085817468536        0.94109198648724
H            1.46983136687726        3.07898105261714       -1.11646016232336
H            2.43955292493017        1.60654328922128       -0.89551729170040
H            2.27312658013639       -0.20728506224607       -2.61923344740513
H            0.86563909979654       -0.47070261694839       -4.95629418866630
H           -0.50381519686236        2.91690751776557       -2.90432994349957
H           -1.79026460394653        2.24710849552119       -4.99324330294759
H           -0.49177092124554        1.97598190853570       -6.17209847329003
H           -1.48851486994514        0.61639413587696       -5.62957137641858

          :  Hamiltonian                  GFN2-xTB          :
         :: total energy             -27.095926800640 Eh    ::
         :: gradient norm              0.000938222165 Eh/a0 ::
         :: HOMO-LUMO gap              4.322166729925 eV    ::
         :: SCC energy               -27.513134039583 Eh    ::
         :: -> dispersion             -0.014677216628 Eh    ::
         :: repulsion energy           0.417207238943 Eh    ::

    * Orbital Energies and Occupations

         #    Occupation            Energy/Eh            Energy/eV
      -------------------------------------------------------------
         1        2.0000           -0.9001200             -24.4935
       ...           ...                  ...                  ...
        13        2.0000           -0.6926800             -18.8488
        14        2.0000           -0.6809401             -18.5293
        15        2.0000           -0.6782007             -18.4548
        16        2.0000           -0.6647062             -18.0876
        17        2.0000           -0.6504052             -17.6984
        18        2.0000           -0.6426804             -17.4882
        19        2.0000           -0.6390059             -17.3882
        20        2.0000           -0.6218428             -16.9212
        21        2.0000           -0.6094825             -16.5849
        22        2.0000           -0.5927829             -16.1304
        23        2.0000           -0.5881353             -16.0040
        24        2.0000           -0.5738789             -15.6160
        25        2.0000           -0.5692980             -15.4914 (HOMO)
        26                         -0.4104613             -11.1692 (LUMO)
        27                         -0.3738413             -10.1727
        28                         -0.1873347              -5.0976
        29                         -0.1323057              -3.6002
        30                         -0.0646528              -1.7593
        31                         -0.0519312              -1.4131
        32                         -0.0487330              -1.3261
        33                         -0.0278256              -0.7572
        34                         -0.0163193              -0.4441
        35                         -0.0049405              -0.1344
        36                          0.0096476               0.2625
       ...                                ...                  ...
        49                          0.4594049              12.5010
      -------------------------------------------------------------
                  HL-Gap            0.1588367 Eh            4.3222 eV

     #   Z          covCN         q      C6AA      α(0)
     1   6 C        3.752    -0.117    22.808     6.811
     2   6 C        3.801    -0.066    21.759     6.641
     3   6 C        3.742    -0.030    21.181     6.566
     4   7 N        2.868     0.073    19.970     6.637
     5   6 C        3.074    -0.004    28.055     8.684
     6   6 C        3.073    -0.010    28.180     8.704
     7   7 N        2.867     0.079    19.875     6.621
     8   6 C        3.101     0.044    26.886     8.497
     9   6 C        3.692    -0.087    22.350     6.765
    10   1 H        0.925     0.036     2.497     2.471
    11   1 H        0.925     0.068     2.112     2.272
    12   1 H        0.925     0.055     2.263     2.352
    13   1 H        0.924     0.053     2.282     2.362
    14   1 H        0.925     0.077     2.010     2.217
    15   1 H        0.924     0.084     1.936     2.176
    16   1 H        0.924     0.094     1.840     2.121
    17   1 H        0.926     0.111     1.684     2.029
    18   1 H        0.926     0.110     1.695     2.036
    19   1 H        0.926     0.113     1.669     2.020
    20   1 H        0.925     0.100     1.781     2.087
    21   1 H        0.924     0.107     1.718     2.050
    22   1 H        0.925     0.108     1.712     2.046

Wiberg/Mayer (AO) data.
largest (>0.10) Wiberg bond orders for each atom

     #   Z sym  total        # sym  WBO       # sym  WBO       # sym  WBO
 ---------------------------------------------------------------------------
     1   6 C    3.991 --     2 C    1.022    10 H    0.986    12 H    0.985
                            11 H    0.982
     2   6 C    3.984 --     1 C    1.022     3 C    0.982    13 H    0.975
                            14 H    0.968
     3   6 C    3.935 --     2 C    0.982     4 N    0.967    16 H    0.964
                            15 H    0.964
     4   7 N    3.721 --     8 C    1.362     5 C    1.234     3 C    0.967
     5   6 C    3.950 --     6 C    1.586     4 N    1.234    17 H    0.960
     6   6 C    3.947 --     5 C    1.586     7 N    1.229    18 H    0.961
     7   7 N    3.723 --     8 C    1.362     6 C    1.229     9 C    0.990
     8   6 C    3.947 --     7 N    1.362     4 N    1.362    19 H    0.954
     9   6 C    3.933 --     7 N    0.990    20 H    0.974    22 H    0.967
                            21 H    0.959
    10   1 H    0.999 --     1 C    0.986
    11   1 H    0.995 --     1 C    0.982
    12   1 H    0.997 --     1 C    0.985
    13   1 H    0.997 --     2 C    0.975
    14   1 H    0.993 --     2 C    0.968
    15   1 H    0.993 --     3 C    0.964
    16   1 H    0.991 --     3 C    0.964
    17   1 H    0.987 --     5 C    0.960
    18   1 H    0.988 --     6 C    0.961
    19   1 H    0.987 --     8 C    0.954
    20   1 H    0.990 --     9 C    0.974
    21   1 H    0.988 --     9 C    0.959
    22   1 H    0.988 --     9 C    0.967
 ---------------------------------------------------------------------------

molecular dipole:
                 x           y           z       tot (Debye)
 q only:        0.699       2.589      -5.884
   full:        0.691       2.682      -5.947      16.676

           -------------------------------------------------
          | TOTAL ENERGY              -27.095926800640 Eh   |
          | GRADIENT NORM               0.000938222165 Eh/α |
          | HOMO-LUMO GAP               4.322166729925 eV   |
           -------------------------------------------------

 * finished run on 2024/12/20 at 02:04:52.685
