   * xtb version 6.7.1 (edcfbbe) compiled by 'conda@3ef47c1a292c' on 2024-11-25

   ID    Z sym.   atoms
    1    6 C      1-3, 5, 6, 8-10
    2    7 N      4, 7
    3    9 F      11-14
    4    1 H      15-25

          program call               : xtb C0071.xyz --opt --namespace C0071 --charge +1
          :  Hamiltonian                  GFN2-xTB          :
 * total energy  :   -47.1081439 Eh     change       -0.1894804E-09 Eh
 * total energy  :   -47.1122630 Eh     change       -0.4119137E-02 Eh
 * total energy  :   -47.1135205 Eh     change       -0.1257457E-02 Eh
 * total energy  :   -47.1137590 Eh     change       -0.2385074E-03 Eh
 * total energy  :   -47.1140067 Eh     change       -0.2477322E-03 Eh
 * total energy  :   -47.1141315 Eh     change       -0.1247576E-03 Eh
 * total energy  :   -47.1142990 Eh     change       -0.1675076E-03 Eh
 * total energy  :   -47.1144702 Eh     change       -0.1712340E-03 Eh
 * total energy  :   -47.1146270 Eh     change       -0.1568295E-03 Eh
 * total energy  :   -47.1147284 Eh     change       -0.1013654E-03 Eh
 * total energy  :   -47.1208959 Eh     change       -0.1011243E-04 Eh
 * total energy  :   -47.1209077 Eh     change       -0.1172932E-04 Eh
 * total energy  :   -47.1209231 Eh     change       -0.1542930E-04 Eh
 * total energy  :   -47.1209390 Eh     change       -0.1591675E-04 Eh
 * total energy  :   -47.1209511 Eh     change       -0.1209063E-04 Eh
 * total energy  :   -47.1209594 Eh     change       -0.8286014E-05 Eh
 * total energy  :   -47.1209690 Eh     change       -0.9558938E-05 Eh
 * total energy  :   -47.1209762 Eh     change       -0.7213842E-05 Eh
 * total energy  :   -47.1209801 Eh     change       -0.3932164E-05 Eh
   *** GEOMETRY OPTIMIZATION CONVERGED AFTER 82 ITERATIONS ***

 final structure:
================
25
 xtb: 6.7.1 (edcfbbe)
C            0.33210037304769       -0.32213426881527       -0.29003261379564
C            0.51383772882475       -1.57342468311535        0.55758869574541
C            1.53773663997074       -1.37805878346968        1.68479085476664
N            1.06307776180932       -0.40801721938771        2.64407446425761
C            0.19502553126670       -0.66767019858846        3.66449547569800
C           -0.07714366670961        0.50684804445043        4.29101657231920
N            0.63019154462296        1.47275231556467        3.62504596792610
C            1.31567715150020        0.88825042748617        2.62892398551657
C            0.70337268608247        2.87439425389547        3.97781111671378
C            1.95651708600694        3.15467735849670        4.86404263923145
F            1.89161307045967        2.36025482634166        5.94137039276791
F            3.03994485467571        2.79040892610220        4.15757086297234
F            0.77437638324069        3.59814297113895        2.85220057180807
F           -0.41097593808802        3.22115770853475        4.62347657371356
H           -0.07678832677110        0.50376173526080        0.28961739649637
H           -0.35995093460132       -0.52843507910435       -1.10100392358398
H            1.27681685012251       -0.01082537120573       -0.72867374524163
H           -0.44337630437555       -1.88054603647972        0.98193079221964
H            0.87526689503919       -2.38674264852627       -0.07107716280992
H            1.70513011271192       -2.32192783046008        2.20692343252598
H            2.48368948188961       -1.02514606395995        1.27011292450781
H           -0.16375327655139       -1.65426145267683        3.88100257869155
H           -0.70201724399817        0.73042976379075        5.13286773734174
H            1.96404253024721        1.40729654784289        1.94718404650653
H            2.03259900957731        4.20876475688460        5.16629036370498

          :  Hamiltonian                  GFN2-xTB          :
         :: total energy             -47.120980101621 Eh    ::
         :: gradient norm              0.000556355812 Eh/a0 ::
         :: HOMO-LUMO gap              3.687896909079 eV    ::
         :: SCC energy               -47.554194533000 Eh    ::
         :: -> dispersion             -0.019572103845 Eh    ::
         :: repulsion energy           0.433214431379 Eh    ::

    * Orbital Energies and Occupations

         #    Occupation            Energy/Eh            Energy/eV
      -------------------------------------------------------------
         1        2.0000           -1.0455551             -28.4510
       ...           ...                  ...                  ...
        28        2.0000           -0.6922214             -18.8363
        29        2.0000           -0.6916373             -18.8204
        30        2.0000           -0.6818369             -18.5537
        31        2.0000           -0.6800648             -18.5055
        32        2.0000           -0.6712400             -18.2654
        33        2.0000           -0.6654260             -18.1072
        34        2.0000           -0.6448703             -17.5478
        35        2.0000           -0.6351259             -17.2827
        36        2.0000           -0.6317022             -17.1895
        37        2.0000           -0.6184697             -16.8294
        38        2.0000           -0.6011292             -16.3576
        39        2.0000           -0.5865356             -15.9604
        40        2.0000           -0.5805523             -15.7976 (HOMO)
        41                         -0.4450246             -12.1097 (LUMO)
        42                         -0.4011102             -10.9148
        43                         -0.2374078              -6.4602
        44                         -0.1942125              -5.2848
        45                         -0.1672038              -4.5498
        46                         -0.1508823              -4.1057
        47                         -0.1105239              -3.0075
        48                         -0.0837528              -2.2790
        49                         -0.0778600              -2.1187
        50                         -0.0663466              -1.8054
        51                         -0.0570531              -1.5525
       ...                                ...                  ...
        67                          0.4369646              11.8904
      -------------------------------------------------------------
                  HL-Gap            0.1355277 Eh            3.6879 eV

     #   Z          covCN         q      C6AA      α(0)
     1   6 C        3.752    -0.121    22.877     6.821
     2   6 C        3.801    -0.068    21.798     6.647
     3   6 C        3.743    -0.035    21.279     6.581
     4   7 N        2.868     0.099    19.537     6.565
     5   6 C        3.077     0.002    27.907     8.661
     6   6 C        3.034     0.013    27.698     8.632
     7   7 N        2.886     0.018    20.929     6.795
     8   6 C        3.066     0.065    26.485     8.439
     9   6 C        3.459     0.385    16.753     6.168
    10   6 C        3.466     0.288    17.977     6.371
    11   9 F        0.788    -0.180    11.027     3.922
    12   9 F        0.788    -0.186    11.087     3.933
    13   9 F        0.790    -0.171    10.940     3.907
    14   9 F        0.790    -0.162    10.849     3.891
    15   1 H        0.925     0.034     2.524     2.485
    16   1 H        0.925     0.076     2.022     2.224
    17   1 H        0.925     0.056     2.245     2.343
    18   1 H        0.924     0.063     2.168     2.303
    19   1 H        0.925     0.086     1.921     2.167
    20   1 H        0.924     0.101     1.775     2.084
    21   1 H        0.924     0.098     1.805     2.101
    22   1 H        0.926     0.130     1.534     1.937
    23   1 H        0.926     0.135     1.501     1.916
    24   1 H        0.926     0.141     1.456     1.887
    25   1 H        0.923     0.134     1.507     1.920

Wiberg/Mayer (AO) data.
largest (>0.10) Wiberg bond orders for each atom

     #   Z sym  total        # sym  WBO       # sym  WBO       # sym  WBO
 ---------------------------------------------------------------------------
     1   6 C    3.990 --     2 C    1.023    17 H    0.985    15 H    0.984
                            16 H    0.979
     2   6 C    3.980 --     1 C    1.023     3 C    0.975    18 H    0.974
                            19 H    0.964
     3   6 C    3.923 --     2 C    0.975    21 H    0.963     4 N    0.963
                            20 H    0.960
     4   7 N    3.739 --     8 C    1.411     5 C    1.217     3 C    0.963
     5   6 C    3.947 --     6 C    1.613     4 N    1.217    22 H    0.956
     6   6 C    3.933 --     5 C    1.613     7 N    1.189    23 H    0.955
                             8 C    0.104
     7   7 N    3.660 --     8 C    1.298     6 C    1.189     9 C    0.953
     8   6 C    3.937 --     4 N    1.411     7 N    1.298    24 H    0.947
                             6 C    0.104
     9   6 C    3.889 --    14 F    0.983    13 F    0.972     7 N    0.953
                            10 C    0.903
    10   6 C    3.864 --    11 F    0.981    12 F    0.974    25 H    0.932
                             9 C    0.903
    11   9 F    1.084 --    10 C    0.981
    12   9 F    1.078 --    10 C    0.974
    13   9 F    1.098 --     9 C    0.972
    14   9 F    1.109 --     9 C    0.983
    15   1 H    0.999 --     1 C    0.984
    16   1 H    0.994 --     1 C    0.979
    17   1 H    0.997 --     1 C    0.985
    18   1 H    0.996 --     2 C    0.974
    19   1 H    0.991 --     2 C    0.964
    20   1 H    0.989 --     3 C    0.960
    21   1 H    0.990 --     3 C    0.963
    22   1 H    0.983 --     5 C    0.956
    23   1 H    0.982 --     6 C    0.955
    24   1 H    0.980 --     8 C    0.947
    25   1 H    0.981 --    10 C    0.932
 ---------------------------------------------------------------------------

molecular dipole:
                 x           y           z       tot (Debye)
 q only:        1.651       0.273       5.296
   full:        1.710       0.494       5.403      14.460

           -------------------------------------------------
          | TOTAL ENERGY              -47.120980101621 Eh   |
          | GRADIENT NORM               0.000556355812 Eh/α |
          | HOMO-LUMO GAP               3.687896909079 eV   |
           -------------------------------------------------

 * finished run on 2024/12/20 at 02:04:49.393
