   * xtb version 6.7.1 (edcfbbe) compiled by 'conda@3ef47c1a292c' on 2024-11-25

   ID    Z sym.   atoms
    1   17 Cl     1
    2    6 C      2-8, 10, 12, 13, 15
    3    8 O      9, 16
    4    7 N      11, 14
    5    1 H      17-26

          program call               : xtb C0076.xyz --opt --namespace C0076 --charge +1
          :  Hamiltonian                  GFN2-xTB          :
 * total energy  :   -46.7107236 Eh     change       -0.1194692E-08 Eh
 * total energy  :   -46.7178176 Eh     change       -0.7094049E-02 Eh
 * total energy  :   -46.7198430 Eh     change       -0.2025351E-02 Eh
 * total energy  :   -46.7201117 Eh     change       -0.2687022E-03 Eh
 * total energy  :   -46.7202279 Eh     change       -0.1162618E-03 Eh
 * total energy  :   -46.7202813 Eh     change       -0.5334454E-04 Eh
 * total energy  :   -46.7203245 Eh     change       -0.4319102E-04 Eh
 * total energy  :   -46.7203708 Eh     change       -0.4635448E-04 Eh
 * total energy  :   -46.7204242 Eh     change       -0.5334793E-04 Eh
 * total energy  :   -46.7204904 Eh     change       -0.6623957E-04 Eh
 * total energy  :   -46.7303084 Eh     change       -0.1659009E-04 Eh
 * total energy  :   -46.7303226 Eh     change       -0.1415952E-04 Eh
 * total energy  :   -46.7303431 Eh     change       -0.2045247E-04 Eh
 * total energy  :   -46.7303569 Eh     change       -0.1382109E-04 Eh
 * total energy  :   -46.7303956 Eh     change       -0.3871636E-04 Eh
 * total energy  :   -46.7304163 Eh     change       -0.2067890E-04 Eh
 * total energy  :   -46.7304231 Eh     change       -0.6783948E-05 Eh
 * total energy  :   -46.7304290 Eh     change       -0.5906086E-05 Eh
 * total energy  :   -46.7304325 Eh     change       -0.3504027E-05 Eh
   *** GEOMETRY OPTIMIZATION CONVERGED AFTER 75 ITERATIONS ***

 final structure:
================
26
 xtb: 6.7.1 (edcfbbe)
Cl          -1.49967886791470       -1.77108944532302        2.21146903375696
C           -0.28131520740459       -0.99666095222238        1.29381294040447
C            0.02801990818225       -1.45818984597183        0.01651571514289
C            1.00968292547724       -0.82735468567791       -0.71202348952191
C            1.70445396024110        0.27363187678020       -0.18777759529300
C            1.38282660666697        0.72448780398355        1.09891497973555
C            0.39993495808469        0.09522389124032        1.83051625276427
C            2.73141347576183        0.87174672363729       -1.02858809116085
O            3.03791623415933        0.48269231664313       -2.13112120862901
C            3.49827479913540        2.10011901355871       -0.44299969524833
N            4.37508492403843        2.60179121728973       -1.46145530107001
C            5.40419837283715        1.89674633021127       -1.99936320786229
C            5.88186520328620        2.60620219414521       -3.06350729257452
N            5.11143634519797        3.71855331770661       -3.15548074648804
C            4.19831861948825        3.70542785724853       -2.18974846904408
O            5.22013622694386        4.72923092479875       -4.04545427520569
H           -0.50075665440403       -2.30413019397502       -0.39231567923055
H            1.26501797783596       -1.17007944666924       -1.70332475534252
H            1.89594471295250        1.56347262921830        1.54132465373742
H            0.15164206138500        0.44162911633912        2.82087382969181
H            2.79767661266179        2.87959224032030       -0.14388524513010
H            4.07826270959861        1.76915894514457        0.42195686722788
H            5.72855131510804        0.95361610306199       -1.60891113545605
H            6.68531539256344        2.38468265521441       -3.73709460045157
H            3.46241012260456        4.47054250932268       -2.03780662450197
H            5.86008726551856        4.50570690396607       -4.74235686024029

          :  Hamiltonian                  GFN2-xTB          :
         :: total energy             -46.730432467534 Eh    ::
         :: gradient norm              0.000647811549 Eh/a0 ::
         :: HOMO-LUMO gap              2.508983942664 eV    ::
         :: SCC energy               -47.343324587330 Eh    ::
         :: -> dispersion             -0.024885039476 Eh    ::
         :: repulsion energy           0.612892119796 Eh    ::

    * Orbital Energies and Occupations

         #    Occupation            Energy/Eh            Energy/eV
      -------------------------------------------------------------
         1        2.0000           -1.1495102             -31.2798
       ...           ...                  ...                  ...
        29        2.0000           -0.6257586             -17.0278
        30        2.0000           -0.6135706             -16.6961
        31        2.0000           -0.6112069             -16.6318
        32        2.0000           -0.6062166             -16.4960
        33        2.0000           -0.6019859             -16.3809
        34        2.0000           -0.5908238             -16.0771
        35        2.0000           -0.5707602             -15.5312
        36        2.0000           -0.5624448             -15.3049
        37        2.0000           -0.5515103             -15.0074
        38        2.0000           -0.5367670             -14.6062
        39        2.0000           -0.5355728             -14.5737
        40        2.0000           -0.5150528             -14.0153
        41        2.0000           -0.5064061             -13.7800 (HOMO)
        42                         -0.4142027             -11.2710 (LUMO)
        43                         -0.4097586             -11.1501
        44                         -0.3756582             -10.2222
        45                         -0.3508259              -9.5465
        46                         -0.3220611              -8.7637
        47                         -0.2521471              -6.8613
        48                         -0.2270170              -6.1774
        49                         -0.2158863              -5.8746
        50                         -0.1466528              -3.9906
        51                         -0.0942215              -2.5639
        52                         -0.0842046              -2.2913
       ...                                ...                  ...
        79                          0.5400125              14.6945
      -------------------------------------------------------------
                  HL-Gap            0.0922035 Eh            2.5090 eV

     #   Z          covCN         q      C6AA      α(0)
     1  17 Cl       0.971    -0.094   102.079    15.457
     2   6 C        2.887     0.118    25.394     8.262
     3   6 C        2.952    -0.030    28.760     8.796
     4   6 C        2.928    -0.008    28.220     8.712
     5   6 C        2.969    -0.022    28.546     8.764
     6   6 C        2.919    -0.026    28.650     8.777
     7   6 C        2.955    -0.032    28.798     8.802
     8   6 C        2.822     0.228    23.225     7.897
     9   8 O        0.857    -0.354    20.777     6.111
    10   6 C        3.742    -0.057    21.673     6.642
    11   7 N        2.876     0.088    19.719     6.595
    12   6 C        3.082     0.006    27.797     8.643
    13   6 C        3.045    -0.032    28.751     8.794
    14   7 N        2.901     0.223    17.586     6.228
    15   6 C        3.069     0.029    27.281     8.564
    16   8 O        1.724    -0.299    18.979     5.882
    17   1 H        0.926     0.087     1.906     2.159
    18   1 H        0.926     0.089     1.892     2.151
    19   1 H        0.926     0.055     2.259     2.350
    20   1 H        0.926     0.083     1.949     2.183
    21   1 H        0.925     0.101     1.773     2.082
    22   1 H        0.924     0.109     1.705     2.042
    23   1 H        0.926     0.125     1.572     1.961
    24   1 H        0.926     0.117     1.639     2.002
    25   1 H        0.926     0.135     1.499     1.915
    26   1 H        0.804     0.361     0.563     1.179

Wiberg/Mayer (AO) data.
largest (>0.10) Wiberg bond orders for each atom

     #   Z sym  total        # sym  WBO       # sym  WBO       # sym  WBO
 ---------------------------------------------------------------------------
     1  17 Cl   1.203 --     2 C    1.042
     2   6 C    3.929 --     3 C    1.371     7 C    1.362     1 Cl   1.042
     3   6 C    3.985 --     4 C    1.484     2 C    1.371    17 H    0.962
     4   6 C    3.981 --     3 C    1.484     5 C    1.335    18 H    0.961
     5   6 C    3.983 --     6 C    1.342     4 C    1.335     8 C    1.090
     6   6 C    3.990 --     7 C    1.490     5 C    1.342    19 H    0.965
     7   6 C    3.986 --     6 C    1.490     2 C    1.362    20 H    0.964
     8   6 C    3.925 --     9 O    1.804     5 C    1.090    10 C    0.913
     9   8 O    2.084 --     8 C    1.804
    10   6 C    3.939 --    11 N    0.991    21 H    0.956    22 H    0.944
                             8 C    0.913
    11   7 N    3.719 --    15 C    1.334    12 C    1.239    10 C    0.991
    12   6 C    3.947 --    13 C    1.561    11 N    1.239    23 H    0.957
    13   6 C    3.934 --    12 C    1.561    14 N    1.218    24 H    0.958
    14   7 N    3.730 --    15 C    1.341    13 C    1.218    16 O    1.032
    15   6 C    3.930 --    14 N    1.341    11 N    1.334    25 H    0.950
    16   8 O    2.045 --    14 N    1.032    26 H    0.854
    17   1 H    0.991 --     3 C    0.962
    18   1 H    0.992 --     4 C    0.961
    19   1 H    0.997 --     6 C    0.965
    20   1 H    0.993 --     7 C    0.964
    21   1 H    0.989 --    10 C    0.956
    22   1 H    0.987 --    10 C    0.944
    23   1 H    0.984 --    12 C    0.957
    24   1 H    0.986 --    13 C    0.958
    25   1 H    0.982 --    15 C    0.950
    26   1 H    0.869 --    16 O    0.854
 ---------------------------------------------------------------------------

molecular dipole:
                 x           y           z       tot (Debye)
 q only:        8.095       4.891      -3.112
   full:        7.959       4.792      -2.881      24.722

           -------------------------------------------------
          | TOTAL ENERGY              -46.730432467534 Eh   |
          | GRADIENT NORM               0.000647811549 Eh/α |
          | HOMO-LUMO GAP               2.508983942664 eV   |
           -------------------------------------------------

 * finished run on 2024/12/20 at 02:04:53.921
