   * xtb version 6.7.1 (edcfbbe) compiled by 'conda@3ef47c1a292c' on 2024-11-25

   ID    Z sym.   atoms
    1    6 C      1, 3-21
    2    7 N      2
    3    1 H      22-63

          program call               : xtb C0070.xyz --opt --namespace C0070 --charge +1
          :  Hamiltonian                  GFN2-xTB          :
 * total energy  :   -66.8089694 Eh     change       -0.9389112E-10 Eh
 * total energy  :   -66.8156243 Eh     change       -0.6654907E-02 Eh
 * total energy  :   -66.8171959 Eh     change       -0.1571646E-02 Eh
 * total energy  :   -66.8173039 Eh     change       -0.1079298E-03 Eh
 * total energy  :   -66.8174251 Eh     change       -0.1212230E-03 Eh
 * total energy  :   -66.8174947 Eh     change       -0.6956268E-04 Eh
 * total energy  :   -66.8175711 Eh     change       -0.7643812E-04 Eh
 * total energy  :   -66.8176279 Eh     change       -0.5677815E-04 Eh
 * total energy  :   -66.8176756 Eh     change       -0.4770141E-04 Eh
 * total energy  :   -66.8177138 Eh     change       -0.3824750E-04 Eh
 * total energy  :   -66.8184815 Eh     change        0.3275539E-04 Eh
 * total energy  :   -66.8185422 Eh     change       -0.6064063E-04 Eh
 * total energy  :   -66.8185611 Eh     change       -0.1897948E-04 Eh
 * total energy  :   -66.8185752 Eh     change       -0.1400210E-04 Eh
 * total energy  :   -66.8186070 Eh     change       -0.3181314E-04 Eh
 * total energy  :   -66.8186168 Eh     change       -0.9855993E-05 Eh
 * total energy  :   -66.8186254 Eh     change       -0.8559859E-05 Eh
 * total energy  :   -66.8186321 Eh     change       -0.6729421E-05 Eh
 * total energy  :   -66.8186361 Eh     change       -0.3990751E-05 Eh
   *** GEOMETRY OPTIMIZATION CONVERGED AFTER 42 ITERATIONS ***

 final structure:
================
63
 xtb: 6.7.1 (edcfbbe)
C            2.09335498386190        0.94894137663366        0.26909326748134
N            1.19457794634618        0.99390695971985        1.43716776659457
C            1.88591480549297        0.30681797469237        2.56948803892722
C            1.14824174740640        0.41384461113041        3.89885581151620
C            0.93077157298163        1.87821523977764        4.26529273883529
C            0.20516322476675        2.58766618803278        3.12713991739335
C            0.96432448342851        2.41754201670616        1.81575184808318
C           -0.08112358352322        0.27912014903710        1.12213977700301
C           -0.83360011025775        0.74174334393649       -0.13282865375290
C           -0.65686721076024       -0.18378404820029       -1.34274137929528
C           -1.31959574751658       -1.55422486856390       -1.18094890455596
C           -2.84893847027675       -1.53032338617434       -1.13881248653837
C           -3.52291221436768       -1.00576835511217       -2.40878733864141
C           -3.14803879403232       -1.74930880289642       -3.69300706273086
C           -3.39569847322348       -3.25879739168102       -3.66148507690398
C           -4.84937852016330       -3.66944888444656       -3.42111765736619
C           -5.83593805042441       -3.20648957686646       -4.49472025682753
C           -5.53350476331466       -3.70638673926552       -5.90898811999812
C           -5.44039518381026       -5.22709033739057       -6.05353220046319
C           -6.69588756077343       -5.99430660408995       -5.63586767870456
C           -7.91564873281734       -5.65917419061090       -6.48565144471984
H            1.65510588742706        1.48173538121082       -0.57091430121900
H            2.27113928362747       -0.08563419719384       -0.01954595194515
H            3.04949629478393        1.41153327107363        0.50985899730833
H            2.86866143810429        0.77170476707078        2.67958301809784
H            2.03216279202603       -0.74032538128575        2.29739603088444
H            1.76080506301005       -0.07476467817245        4.65701222641524
H            0.19611933299875       -0.11635046644033        3.86687119966599
H            0.34968532241341        1.95219350474258        5.18287309352977
H            1.89432031821606        2.35948306169514        4.44345854357271
H           -0.81642562871314        2.21619718832001        3.03984647525332
H            0.13914275514795        3.65613858880684        3.33451697834060
H            0.42765603030102        2.91219634562507        1.00558654536373
H            1.94503288436794        2.88925624154406        1.91229172067371
H            0.16603346779922       -0.77851842762122        1.01302415439313
H           -0.72827504672791        0.37970419533434        1.99074359506574
H           -1.89669530720779        0.78132161240582        0.10485996461915
H           -0.54777138552659        1.75578615208563       -0.41317492019981
H           -1.08983550282383        0.31024266792528       -2.21197481609661
H            0.40349223483140       -0.33299292630992       -1.55452238887720
H           -1.00313200687454       -2.17947903969729       -2.01555543664758
H           -0.96056431824886       -2.03959390312773       -0.26898519269234
H           -3.19131785391653       -2.54911916125644       -0.95433322953356
H           -3.18838032497298       -0.92714144245598       -0.29271564451771
H           -4.60215978813199       -1.06953502481884       -2.26322298086764
H           -3.28594533181053        0.05289207591344       -2.54196452367775
H           -3.71914229025244       -1.31165689975373       -4.51312474944355
H           -2.09216473349489       -1.57851533270428       -3.91790178463162
H           -3.06102736232979       -3.67528603560850       -4.61287397187606
H           -2.77793267644446       -3.71276988884419       -2.88284836610849
H           -4.88559005861107       -4.75801939268740       -3.35129064161411
H           -5.18298753842855       -3.27851014888587       -2.45704081104548
H           -6.83314682660100       -3.54143024301779       -4.20320936705685
H           -5.86283837876006       -2.11450948512996       -4.51670847949536
H           -6.31399728973052       -3.33224741549792       -6.57401178268669
H           -4.59117237385694       -3.27314764360879       -6.25246846506150
H           -5.22855936034918       -5.45313715272468       -7.10177616669935
H           -4.59495001181452       -5.59534588656904       -5.46809793666309
H           -6.48542407266437       -7.06269999882526       -5.72920157348621
H           -6.91961421655988       -5.79928484259171       -4.58549030931835
H           -7.69876345339205       -5.81531730583041       -7.54010999106030
H           -8.75238448582947       -6.29711818429110       -6.21080117270098
H           -8.22003683004121       -4.62511922326172       -6.34593849322371

          :  Hamiltonian                  GFN2-xTB          :
         :: total energy             -66.818636101044 Eh    ::
         :: gradient norm              0.000560029886 Eh/a0 ::
         :: HOMO-LUMO gap              6.300739232006 eV    ::
         :: SCC energy               -67.785656147866 Eh    ::
         :: -> dispersion             -0.052959786996 Eh    ::
         :: repulsion energy           0.967020046822 Eh    ::

    * Orbital Energies and Occupations

         #    Occupation            Energy/Eh            Energy/eV
      -------------------------------------------------------------
         1        2.0000           -0.8564255             -23.3045
       ...           ...                  ...                  ...
        51        2.0000           -0.5266059             -14.3297
        52        2.0000           -0.5208735             -14.1737
        53        2.0000           -0.5148504             -14.0098
        54        2.0000           -0.5101929             -13.8831
        55        2.0000           -0.5022405             -13.6667
        56        2.0000           -0.4978518             -13.5472
        57        2.0000           -0.4926814             -13.4065
        58        2.0000           -0.4834272             -13.1547
        59        2.0000           -0.4806316             -13.0787
        60        2.0000           -0.4772481             -12.9866
        61        2.0000           -0.4652973             -12.6614
        62        2.0000           -0.4606614             -12.5352
        63        2.0000           -0.4588401             -12.4857 (HOMO)
        64                         -0.2272921              -6.1849 (LUMO)
        65                         -0.1646281              -4.4798
        66                         -0.1563206              -4.2537
        67                         -0.1375807              -3.7438
        68                         -0.0708471              -1.9278
        69                         -0.0678799              -1.8471
        70                         -0.0657888              -1.7902
        71                         -0.0550764              -1.4987
        72                         -0.0335669              -0.9134
        73                         -0.0270621              -0.7364
        74                         -0.0213932              -0.5821
       ...                                ...                  ...
       126                          0.2640329               7.1847
      -------------------------------------------------------------
                  HL-Gap            0.2315479 Eh            6.3007 eV

     #   Z          covCN         q      C6AA      α(0)
     1   6 C        3.722    -0.090    22.333     6.749
     2   7 N        3.621     0.119    19.200     6.508
     3   6 C        3.770    -0.033    21.200     6.561
     4   6 C        3.804    -0.072    21.880     6.659
     5   6 C        3.806    -0.072    21.870     6.657
     6   6 C        3.804    -0.072    21.867     6.657
     7   6 C        3.763    -0.032    21.187     6.561
     8   6 C        3.754    -0.039    21.323     6.584
     9   6 C        3.799    -0.072    21.872     6.659
    10   6 C        3.800    -0.069    21.828     6.652
    11   6 C        3.800    -0.063    21.709     6.634
    12   6 C        3.800    -0.061    21.667     6.627
    13   6 C        3.800    -0.059    21.641     6.623
    14   6 C        3.800    -0.058    21.627     6.621
    15   6 C        3.800    -0.058    21.615     6.619
    16   6 C        3.800    -0.057    21.606     6.618
    17   6 C        3.800    -0.057    21.596     6.617
    18   6 C        3.800    -0.057    21.602     6.618
    19   6 C        3.800    -0.057    21.604     6.618
    20   6 C        3.799    -0.052    21.510     6.603
    21   6 C        3.751    -0.102    22.512     6.766
    22   1 H        0.925     0.101     1.772     2.082
    23   1 H        0.925     0.095     1.830     2.115
    24   1 H        0.925     0.089     1.890     2.150
    25   1 H        0.924     0.084     1.941     2.179
    26   1 H        0.924     0.079     1.993     2.208
    27   1 H        0.924     0.078     2.003     2.213
    28   1 H        0.924     0.060     2.198     2.319
    29   1 H        0.925     0.070     2.083     2.257
    30   1 H        0.924     0.057     2.239     2.340
    31   1 H        0.924     0.061     2.192     2.315
    32   1 H        0.924     0.077     2.012     2.218
    33   1 H        0.924     0.082     1.962     2.190
    34   1 H        0.924     0.082     1.957     2.188
    35   1 H        0.924     0.085     1.925     2.170
    36   1 H        0.925     0.085     1.924     2.169
    37   1 H        0.925     0.073     2.058     2.243
    38   1 H        0.924     0.045     2.383     2.414
    39   1 H        0.925     0.060     2.199     2.319
    40   1 H        0.924     0.030     2.581     2.512
    41   1 H        0.925     0.052     2.292     2.367
    42   1 H        0.924     0.020     2.735     2.586
    43   1 H        0.924     0.045     2.378     2.412
    44   1 H        0.924     0.022     2.703     2.571
    45   1 H        0.924     0.041     2.434     2.440
    46   1 H        0.924     0.023     2.683     2.562
    47   1 H        0.924     0.039     2.464     2.455
    48   1 H        0.924     0.023     2.686     2.563
    49   1 H        0.924     0.037     2.495     2.470
    50   1 H        0.924     0.023     2.682     2.561
    51   1 H        0.924     0.035     2.523     2.484
    52   1 H        0.924     0.025     2.657     2.549
    53   1 H        0.924     0.034     2.533     2.489
    54   1 H        0.924     0.026     2.648     2.545
    55   1 H        0.924     0.034     2.533     2.489
    56   1 H        0.924     0.026     2.642     2.542
    57   1 H        0.924     0.030     2.586     2.515
    58   1 H        0.924     0.027     2.634     2.538
    59   1 H        0.924     0.028     2.622     2.532
    60   1 H        0.924     0.030     2.590     2.517
    61   1 H        0.925     0.035     2.521     2.483
    62   1 H        0.925     0.033     2.548     2.496
    63   1 H        0.925     0.034     2.528     2.486

Wiberg/Mayer (AO) data.
largest (>0.10) Wiberg bond orders for each atom

     #   Z sym  total        # sym  WBO       # sym  WBO       # sym  WBO
 ---------------------------------------------------------------------------
     1   6 C    3.932 --    24 H    0.975    23 H    0.974    22 H    0.971
                             2 N    0.962
     2   7 N    3.804 --     1 C    0.962     7 C    0.932     3 C    0.930
                             8 C    0.925
     3   6 C    3.935 --     4 C    1.009    26 H    0.968    25 H    0.966
                             2 N    0.930
     4   6 C    3.987 --     3 C    1.009     5 C    1.008    28 H    0.970
                            27 H    0.966
     5   6 C    3.992 --     6 C    1.009     4 C    1.008    30 H    0.975
                            29 H    0.973
     6   6 C    3.987 --     5 C    1.009     7 C    1.008    31 H    0.969
                            32 H    0.966
     7   6 C    3.936 --     6 C    1.008    34 H    0.967    33 H    0.963
                             2 N    0.932
     8   6 C    3.927 --     9 C    1.003    36 H    0.962    35 H    0.961
                             2 N    0.925
     9   6 C    3.985 --    10 C    1.005     8 C    1.003    37 H    0.966
                            38 H    0.964
    10   6 C    3.992 --    11 C    1.007     9 C    1.005    40 H    0.975
                            39 H    0.970
    11   6 C    3.995 --    12 C    1.007    10 C    1.007    42 H    0.972
                            41 H    0.971
    12   6 C    3.996 --    11 C    1.007    13 C    1.007    44 H    0.974
                            43 H    0.973
    13   6 C    3.997 --    12 C    1.007    14 C    1.007    46 H    0.975
                            45 H    0.974
    14   6 C    3.997 --    15 C    1.008    13 C    1.007    48 H    0.976
                            47 H    0.974
    15   6 C    3.997 --    16 C    1.008    14 C    1.008    50 H    0.975
                            49 H    0.974
    16   6 C    3.997 --    15 C    1.008    17 C    1.008    52 H    0.975
                            51 H    0.974
    17   6 C    3.997 --    16 C    1.008    18 C    1.008    54 H    0.975
                            53 H    0.975
    18   6 C    3.997 --    17 C    1.008    19 C    1.008    56 H    0.975
                            55 H    0.975
    19   6 C    3.998 --    20 C    1.008    18 C    1.008    57 H    0.977
                            58 H    0.976
    20   6 C    3.998 --    21 C    1.020    19 C    1.008    59 H    0.978
                            60 H    0.976
    21   6 C    3.997 --    20 C    1.020    61 H    0.988    62 H    0.987
                            63 H    0.986
    22   1 H    0.989 --     1 C    0.971
    23   1 H    0.991 --     1 C    0.974
    24   1 H    0.992 --     1 C    0.975
    25   1 H    0.993 --     3 C    0.966
    26   1 H    0.994 --     3 C    0.968
    27   1 H    0.994 --     4 C    0.966
    28   1 H    0.996 --     4 C    0.970
    29   1 H    0.995 --     5 C    0.973
    30   1 H    0.997 --     5 C    0.975
    31   1 H    0.996 --     6 C    0.969
    32   1 H    0.994 --     6 C    0.966
    33   1 H    0.993 --     7 C    0.963
    34   1 H    0.993 --     7 C    0.967
    35   1 H    0.993 --     8 C    0.961
    36   1 H    0.993 --     8 C    0.962
    37   1 H    0.994 --     9 C    0.966
    38   1 H    0.998 --     9 C    0.964
    39   1 H    0.996 --    10 C    0.970
    40   1 H    0.999 --    10 C    0.975
    41   1 H    0.997 --    11 C    0.971
    42   1 H    1.000 --    11 C    0.972
    43   1 H    0.998 --    12 C    0.973
    44   1 H    1.000 --    12 C    0.974
    45   1 H    0.998 --    13 C    0.974
    46   1 H    0.999 --    13 C    0.975
    47   1 H    0.998 --    14 C    0.974
    48   1 H    0.999 --    14 C    0.976
    49   1 H    0.999 --    15 C    0.974
    50   1 H    0.999 --    15 C    0.975
    51   1 H    0.999 --    16 C    0.974
    52   1 H    0.999 --    16 C    0.975
    53   1 H    0.999 --    17 C    0.975
    54   1 H    0.999 --    17 C    0.975
    55   1 H    0.999 --    18 C    0.975
    56   1 H    0.999 --    18 C    0.975
    57   1 H    0.999 --    19 C    0.977
    58   1 H    0.999 --    19 C    0.976
    59   1 H    0.999 --    20 C    0.978
    60   1 H    0.999 --    20 C    0.976
    61   1 H    0.999 --    21 C    0.988
    62   1 H    0.999 --    21 C    0.987
    63   1 H    0.999 --    21 C    0.986
 ---------------------------------------------------------------------------

molecular dipole:
                 x           y           z       tot (Debye)
 q only:        1.578       1.707       2.699
   full:        1.709       1.722       2.658       9.148

           -------------------------------------------------
          | TOTAL ENERGY              -66.818636101044 Eh   |
          | GRADIENT NORM               0.000560029886 Eh/α |
          | HOMO-LUMO GAP               6.300739232006 eV   |
           -------------------------------------------------

 * finished run on 2024/12/20 at 02:04:48.185
