   * xtb version 6.7.1 (edcfbbe) compiled by 'conda@3ef47c1a292c' on 2024-11-25

   ID    Z sym.   atoms
    1    8 O      1, 10, 11
    2    6 C      2-8, 12, 14, 15, 17-28
    3    7 N      9, 13, 16
    4    1 H      29-46

          program call               : xtb C0079.xyz --opt --namespace C0079 --charge +1
          :  Hamiltonian                  GFN2-xTB          :
 * total energy  :   -76.7692229 Eh     change       -0.8550245E-09 Eh
 * total energy  :   -76.7813565 Eh     change       -0.1213359E-01 Eh
 * total energy  :   -76.7838953 Eh     change       -0.2538757E-02 Eh
 * total energy  :   -76.7841765 Eh     change       -0.2812494E-03 Eh
 * total energy  :   -76.7848590 Eh     change       -0.6825024E-03 Eh
 * total energy  :   -76.7852298 Eh     change       -0.3707256E-03 Eh
 * total energy  :   -76.7855758 Eh     change       -0.3460577E-03 Eh
 * total energy  :   -76.7859100 Eh     change       -0.3341360E-03 Eh
 * total energy  :   -76.7862188 Eh     change       -0.3088394E-03 Eh
 * total energy  :   -76.7864862 Eh     change       -0.2673567E-03 Eh
 * total energy  :   -76.7947878 Eh     change       -0.6560766E-05 Eh
 * total energy  :   -76.7947944 Eh     change       -0.6569763E-05 Eh
 * total energy  :   -76.7948009 Eh     change       -0.6511955E-05 Eh
 * total energy  :   -76.7948073 Eh     change       -0.6369526E-05 Eh
 * total energy  :   -76.7948134 Eh     change       -0.6151311E-05 Eh
 * total energy  :   -76.7948193 Eh     change       -0.5879441E-05 Eh
 * total energy  :   -76.7948249 Eh     change       -0.5548986E-05 Eh
 * total energy  :   -76.7948300 Eh     change       -0.5197321E-05 Eh
 * total energy  :   -76.7948349 Eh     change       -0.4834209E-05 Eh
   *** GEOMETRY OPTIMIZATION CONVERGED AFTER 147 ITERATIONS ***

 final structure:
================
46
 xtb: 6.7.1 (edcfbbe)
O            2.34546734634160       -0.06890540492141        2.50451082462965
C            2.99887373287699        0.12961341880364        1.50879313012294
C            3.14853798537567        1.45387566976528        0.88274391144914
C            3.97724071234895        1.69656766603930       -0.21739101250266
C            4.08684250156394        2.97438963755639       -0.72830825725751
C            3.36775996337161        4.00831688052877       -0.14242105152663
C            2.53362689353021        3.78813721555517        0.94486627707502
C            2.42827179866595        2.51015550729372        1.45368803275354
N            3.49849557440322        5.35769024877762       -0.68188494199667
O            4.23415513626322        5.49857623838917       -1.62819977671150
O            2.86352857622673        6.22746955319861       -0.13882381314724
C            3.75291125016784       -1.05105662867677        0.85929692040348
N            3.41934183856038       -2.26447663474088        1.55259799318928
C            3.72118485452676       -2.52414035976938        2.83429201449284
C            4.65385099069706       -1.73938036525065        3.66568872552880
N            3.10969080099855       -3.64479156884467        3.22680752315300
C            2.36291879596336       -4.13373880860523        2.16954675571415
C            2.55026403059162       -3.24251824087588        1.10034110669417
C            1.92022287470767       -3.44569977678867       -0.11968445624378
C            1.10665925500619       -4.55616274820366       -0.22709221274857
C            0.91527086650231       -5.43578017707298        0.84062970126196
C            1.53506029388872       -5.24196735651506        2.05833512798283
C            3.16731202528464       -4.23357817031426        4.52023203217117
C            3.59942971322217       -5.54651224957053        4.65192420562305
C            3.64085698550253       -6.12058865902132        5.91064904117733
C            3.25187948462808       -5.39086082413686        7.02258642276637
C            2.81678685993393       -4.08290887717013        6.88121353685226
C            2.77116428552569       -3.49634750639915        5.62858418459547
H            4.54421104421138        0.90372628951897       -0.67781130036788
H            4.72266958369835        3.19026912594939       -1.57375783036484
H            1.98831808864137        4.61572869784219        1.37268671595961
H            1.79074457227875        2.30400265474479        2.29979559986338
H            3.46346091973853       -1.15257019094810       -0.18705971273025
H            4.82907785967053       -0.86247983711085        0.91638489825358
H            4.17345320541297       -0.82724988814047        4.02137218430698
H            4.96686039773618       -2.32210264860872        4.52871851785779
H            5.53274106207737       -1.45202171212590        3.09036334283108
H            2.04842426868191       -2.77317420883428       -0.95223878733427
H            0.60016336179474       -4.74784147900353       -1.15944365473767
H            0.26428563660047       -6.28495491746540        0.70869647983121
H            1.38265931995299       -5.91308981301362        2.88760872404253
H            3.90950873197562       -6.10373521605999        3.78087927655551
H            3.97927700150996       -7.13859897219240        6.02094622539158
H            3.28536236931948       -5.84337780527975        8.00086556128935
H            2.50753374417057       -3.51718226546940        7.74569334967553
H            2.41550340579880       -2.48487549283233        5.50507846401535

          :  Hamiltonian                  GFN2-xTB          :
         :: total energy             -76.794834883166 Eh    ::
         :: gradient norm              0.000137394023 Eh/a0 ::
         :: HOMO-LUMO gap              2.464655364989 eV    ::
         :: SCC energy               -77.980134182926 Eh    ::
         :: -> dispersion             -0.053240108950 Eh    ::
         :: repulsion energy           1.185299299760 Eh    ::

    * Orbital Energies and Occupations

         #    Occupation            Energy/Eh            Energy/eV
      -------------------------------------------------------------
         1        2.0000           -0.8692304             -23.6530
       ...           ...                  ...                  ...
        57        2.0000           -0.5587925             -15.2055
        58        2.0000           -0.5560054             -15.1297
        59        2.0000           -0.5547868             -15.0965
        60        2.0000           -0.5538054             -15.0698
        61        2.0000           -0.5494440             -14.9511
        62        2.0000           -0.5473648             -14.8946
        63        2.0000           -0.5463200             -14.8661
        64        2.0000           -0.5415784             -14.7371
        65        2.0000           -0.5388398             -14.6626
        66        2.0000           -0.5365138             -14.5993
        67        2.0000           -0.5329703             -14.5029
        68        2.0000           -0.5267704             -14.3342
        69        2.0000           -0.5246139             -14.2755 (HOMO)
        70                         -0.4340394             -11.8108 (LUMO)
        71                         -0.4031228             -10.9695
        72                         -0.3894028             -10.5962
        73                         -0.3642746              -9.9124
        74                         -0.3623899              -9.8611
        75                         -0.3545350              -9.6474
        76                         -0.3508372              -9.5468
        77                         -0.3389420              -9.2231
        78                         -0.3182089              -8.6589
        79                         -0.2308039              -6.2805
        80                         -0.2210793              -6.0159
       ...                                ...                  ...
       130                          0.5573575              15.1665
      -------------------------------------------------------------
                  HL-Gap            0.0905744 Eh            2.4647 eV

     #   Z          covCN         q      C6AA      α(0)
     1   8 O        0.857    -0.345    20.604     6.086
     2   6 C        2.822     0.230    23.181     7.889
     3   6 C        2.970    -0.009    28.246     8.718
     4   6 C        2.920    -0.024    28.607     8.771
     5   6 C        2.916    -0.016    28.407     8.740
     6   6 C        2.917     0.020    27.571     8.610
     7   6 C        2.915    -0.014    28.357     8.732
     8   6 C        2.928    -0.007    28.202     8.709
     9   7 N        2.758     0.555    13.424     5.442
    10   8 O        0.929    -0.359    20.839     6.122
    11   8 O        0.929    -0.355    20.768     6.112
    12   6 C        3.742    -0.039    21.356     6.593
    13   7 N        2.833     0.013    21.022     6.810
    14   6 C        3.072     0.134    25.008     8.199
    15   6 C        3.755    -0.131    23.072     6.849
    16   7 N        2.837     0.012    21.048     6.814
    17   6 C        3.099     0.044    26.900     8.500
    18   6 C        3.091     0.039    27.016     8.520
    19   6 C        2.909    -0.035    28.873     8.811
    20   6 C        2.926    -0.019    28.488     8.753
    21   6 C        2.926    -0.020    28.495     8.754
    22   6 C        2.909    -0.031    28.781     8.797
    23   6 C        2.918     0.049    26.894     8.504
    24   6 C        2.920    -0.036    28.885     8.813
    25   6 C        2.921    -0.019    28.480     8.752
    26   6 C        2.919    -0.018    28.452     8.747
    27   6 C        2.921    -0.019    28.479     8.751
    28   6 C        2.920    -0.037    28.929     8.820
    29   1 H        0.926     0.059     2.209     2.324
    30   1 H        0.926     0.101     1.775     2.084
    31   1 H        0.926     0.105     1.743     2.065
    32   1 H        0.926     0.090     1.880     2.144
    33   1 H        0.924     0.101     1.777     2.085
    34   1 H        0.924     0.093     1.849     2.126
    35   1 H        0.924     0.110     1.693     2.035
    36   1 H        0.925     0.092     1.861     2.133
    37   1 H        0.925     0.087     1.913     2.163
    38   1 H        0.926     0.061     2.192     2.315
    39   1 H        0.926     0.077     2.012     2.218
    40   1 H        0.926     0.078     2.005     2.214
    41   1 H        0.926     0.071     2.078     2.254
    42   1 H        0.926     0.054     2.271     2.356
    43   1 H        0.926     0.066     2.124     2.279
    44   1 H        0.926     0.068     2.102     2.267
    45   1 H        0.926     0.067     2.120     2.277
    46   1 H        0.926     0.058     2.223     2.332

Wiberg/Mayer (AO) data.
largest (>0.10) Wiberg bond orders for each atom

     #   Z sym  total        # sym  WBO       # sym  WBO       # sym  WBO
 ---------------------------------------------------------------------------
     1   8 O    2.090 --     2 C    1.831
     2   6 C    3.927 --     1 O    1.831     3 C    1.049    12 C    0.942
     3   6 C    3.986 --     4 C    1.367     8 C    1.365     2 C    1.049
     4   6 C    3.990 --     5 C    1.465     3 C    1.367    29 H    0.965
                             7 C    0.104
     5   6 C    3.982 --     4 C    1.465     6 C    1.386    30 H    0.956
                             8 C    0.103
     6   6 C    3.972 --     7 C    1.393     5 C    1.386     9 N    0.937
     7   6 C    3.980 --     8 C    1.456     6 C    1.393    31 H    0.955
                             4 C    0.104
     8   6 C    3.981 --     7 C    1.456     3 C    1.365    32 H    0.961
                             5 C    0.103
     9   7 N    3.916 --    11 O    1.473    10 O    1.469     6 C    0.937
    10   8 O    1.961 --     9 N    1.469    11 O    0.385
    11   8 O    1.965 --     9 N    1.473    10 O    0.385
    12   6 C    3.957 --    13 N    0.995    33 H    0.949     2 C    0.942
                            34 H    0.941
    13   7 N    3.645 --    14 C    1.309    18 C    1.110    12 C    0.995
    14   6 C    3.955 --    16 N    1.332    13 N    1.309    15 C    1.049
    15   6 C    3.978 --    14 C    1.049    36 H    0.969    37 H    0.958
                            35 H    0.940
    16   7 N    3.665 --    14 C    1.332    17 C    1.107    23 C    0.975
    17   6 C    3.954 --    22 C    1.347    18 C    1.280    16 N    1.107
    18   6 C    3.951 --    19 C    1.348    17 C    1.280    13 N    1.110
    19   6 C    3.985 --    20 C    1.485    18 C    1.348    38 H    0.963
                            22 C    0.118
    20   6 C    3.983 --    19 C    1.485    21 C    1.386    39 H    0.967
    21   6 C    3.983 --    22 C    1.487    20 C    1.386    40 H    0.966
    22   6 C    3.984 --    21 C    1.487    17 C    1.347    41 H    0.963
                            19 C    0.118
    23   6 C    3.937 --    24 C    1.396    28 C    1.393    16 N    0.975
                            26 C    0.104
    24   6 C    3.988 --    25 C    1.443    23 C    1.396    42 H    0.967
                            27 C    0.110
    25   6 C    3.988 --    24 C    1.443    26 C    1.438    43 H    0.967
                            28 C    0.110
    26   6 C    3.985 --    27 C    1.438    25 C    1.438    44 H    0.968
                            23 C    0.104
    27   6 C    3.988 --    28 C    1.443    26 C    1.438    45 H    0.967
                            24 C    0.110
    28   6 C    3.987 --    27 C    1.443    23 C    1.393    46 H    0.967
                            25 C    0.110
    29   1 H    0.996 --     4 C    0.965
    30   1 H    0.989 --     5 C    0.956
    31   1 H    0.988 --     7 C    0.955
    32   1 H    0.991 --     8 C    0.961
    33   1 H    0.989 --    12 C    0.949
    34   1 H    0.990 --    12 C    0.941
    35   1 H    0.983 --    15 C    0.940
    36   1 H    0.991 --    15 C    0.969
    37   1 H    0.990 --    15 C    0.958
    38   1 H    0.996 --    19 C    0.963
    39   1 H    0.994 --    20 C    0.967
    40   1 H    0.994 --    21 C    0.966
    41   1 H    0.994 --    22 C    0.963
    42   1 H    0.997 --    24 C    0.967
    43   1 H    0.995 --    25 C    0.967
    44   1 H    0.995 --    26 C    0.968
    45   1 H    0.995 --    27 C    0.967
    46   1 H    0.997 --    28 C    0.967
 ---------------------------------------------------------------------------

molecular dipole:
                 x           y           z       tot (Debye)
 q only:        6.301      -6.411       4.986
   full:        6.453      -6.381       4.814      26.112

           -------------------------------------------------
          | TOTAL ENERGY              -76.794834883166 Eh   |
          | GRADIENT NORM               0.000137394023 Eh/α |
          | HOMO-LUMO GAP               2.464655364989 eV   |
           -------------------------------------------------

 * finished run on 2024/12/20 at 02:05:05.175
