   * xtb version 6.7.1 (edcfbbe) compiled by 'conda@3ef47c1a292c' on 2024-11-25

   ID    Z sym.   atoms
    1    6 C      1, 3, 5, 7
    2    8 O      2, 4
    3    7 N      6
    4    1 H      8-17

          program call               : xtb C0072.xyz --opt --namespace C0072 --charge +1
          :  Hamiltonian                  GFN2-xTB          :
 * total energy  :   -24.2773949 Eh     change       -0.2762981E-09 Eh
 * total energy  :   -24.2811168 Eh     change       -0.3721896E-02 Eh
 * total energy  :   -24.2815368 Eh     change       -0.4199895E-03 Eh
 * total energy  :   -24.2816385 Eh     change       -0.1017166E-03 Eh
 * total energy  :   -24.2816614 Eh     change       -0.2286739E-04 Eh
 * total energy  :   -24.2816718 Eh     change       -0.1044511E-04 Eh
 * total energy  :   -24.2816799 Eh     change       -0.8069146E-05 Eh
 * total energy  :   -24.2816978 Eh     change       -0.1794447E-04 Eh
 * total energy  :   -24.2817076 Eh     change       -0.9789127E-05 Eh
 * total energy  :   -24.2817190 Eh     change       -0.1142469E-04 Eh
 * total energy  :   -24.2817242 Eh     change       -0.5119750E-05 Eh
 * total energy  :   -24.2817253 Eh     change       -0.1136576E-05 Eh
 * total energy  :   -24.2817289 Eh     change       -0.3647611E-05 Eh
   *** GEOMETRY OPTIMIZATION CONVERGED AFTER 13 ITERATIONS ***

 final structure:
================
17
 xtb: 6.7.1 (edcfbbe)
C            1.27862287844075        0.04033095679491        0.13568985820850
O            0.99439900250944       -0.06445622711819        1.53996854058391
C            0.82375942187141       -1.29571146371673        2.01932552280880
O            0.89163881118707       -2.31258120148165        1.40728689185486
C            0.46608801861155       -1.24058623715251        3.52254977274807
N            0.85543033712978        0.08871197118540        4.09468164026937
C           -1.03321737954819       -1.44654345264822        3.68351154348084
H            1.26087151890930        1.10123561709878       -0.09620563943915
H            0.52468478691363       -0.49609253183134       -0.43968902101959
H            2.25943202187444       -0.38456761813439       -0.07645392555491
H            1.01133677321538       -2.03645013513036        4.03658352924959
H            0.57557290600661        0.81455763815379        3.41462919217181
H            0.37768268040124        0.24912751709577        4.99146045461126
H            1.87116045726149        0.16130599973325        4.23287178145866
H           -1.31667616486457       -2.38989939279452        3.22345540989605
H           -1.31146899910226       -1.49263412657162        4.73368292847114
H           -1.59471707081710       -0.65324731348235        3.19507152020078

          :  Hamiltonian                  GFN2-xTB          :
         :: total energy             -24.281728935370 Eh    ::
         :: gradient norm              0.000576622981 Eh/a0 ::
         :: HOMO-LUMO gap              5.128267471027 eV    ::
         :: SCC energy               -24.546095564937 Eh    ::
         :: -> dispersion             -0.008708015581 Eh    ::
         :: repulsion energy           0.264366629567 Eh    ::

    * Orbital Energies and Occupations

         #    Occupation            Energy/Eh            Energy/eV
      -------------------------------------------------------------
         1        2.0000           -0.9204917             -25.0479
       ...           ...                  ...                  ...
         9        2.0000           -0.7665704             -20.8594
        10        2.0000           -0.7606232             -20.6976
        11        2.0000           -0.7516413             -20.4532
        12        2.0000           -0.7133546             -19.4114
        13        2.0000           -0.7028782             -19.1263
        14        2.0000           -0.6826492             -18.5758
        15        2.0000           -0.6697909             -18.2259
        16        2.0000           -0.6575140             -17.8919
        17        2.0000           -0.6411712             -17.4472
        18        2.0000           -0.6371918             -17.3389
        19        2.0000           -0.6206079             -16.8876
        20        2.0000           -0.5986959             -16.2913
        21        2.0000           -0.5857285             -15.9385 (HOMO)
        22                         -0.3972682             -10.8102 (LUMO)
        23                         -0.2711504              -7.3784
        24                         -0.1812407              -4.9318
        25                         -0.1654714              -4.5027
        26                         -0.1103907              -3.0039
        27                         -0.0925854              -2.5194
        28                         -0.0651109              -1.7718
        29                         -0.0338152              -0.9202
        30                         -0.0027903              -0.0759
        31                          0.0067160               0.1828
        32                          0.0192160               0.5229
       ...                                ...                  ...
        38                          0.5290445              14.3960
      -------------------------------------------------------------
                  HL-Gap            0.1884604 Eh            5.1283 eV

     #   Z          covCN         q      C6AA      α(0)
     1   6 C        3.651     0.013    20.677     6.531
     2   8 O        1.702    -0.267    18.419     5.795
     3   6 C        2.718     0.349    21.067     7.513
     4   8 O        0.856    -0.328    20.303     6.041
     5   6 C        3.778    -0.005    20.696     6.481
     6   7 N        3.484    -0.140    24.015     7.278
     7   6 C        3.756    -0.142    23.298     6.882
     8   1 H        0.925     0.094     1.837     2.119
     9   1 H        0.925     0.092     1.859     2.132
    10   1 H        0.925     0.088     1.894     2.152
    11   1 H        0.924     0.122     1.594     1.974
    12   1 H        0.859     0.290     0.744     1.351
    13   1 H        0.859     0.279     0.779     1.383
    14   1 H        0.859     0.273     0.800     1.401
    15   1 H        0.925     0.115     1.655     2.012
    16   1 H        0.925     0.085     1.926     2.170
    17   1 H        0.925     0.081     1.970     2.195

Wiberg/Mayer (AO) data.
largest (>0.10) Wiberg bond orders for each atom

     #   Z sym  total        # sym  WBO       # sym  WBO       # sym  WBO
 ---------------------------------------------------------------------------
     1   6 C    3.888 --     8 H    0.978     9 H    0.975    10 H    0.974
                             2 O    0.924
     2   8 O    2.315 --     3 C    1.145     1 C    0.924     4 O    0.191
     3   6 C    3.941 --     4 O    1.815     2 O    1.145     5 C    0.921
     4   8 O    2.124 --     3 C    1.815     2 O    0.191
     5   6 C    3.903 --     7 C    0.999    11 H    0.950     6 N    0.922
                             3 C    0.921
     6   7 N    3.669 --     5 C    0.922    14 H    0.911    13 H    0.904
                            12 H    0.889
     7   6 C    3.967 --     5 C    0.999    17 H    0.980    16 H    0.975
                            15 H    0.966
     8   1 H    0.991 --     1 C    0.978
     9   1 H    0.991 --     1 C    0.975
    10   1 H    0.992 --     1 C    0.974
    11   1 H    0.985 --     5 C    0.950
    12   1 H    0.916 --     6 N    0.889
    13   1 H    0.922 --     6 N    0.904
    14   1 H    0.926 --     6 N    0.911
    15   1 H    0.987 --     7 C    0.966
    16   1 H    0.992 --     7 C    0.975
    17   1 H    0.993 --     7 C    0.980
 ---------------------------------------------------------------------------

molecular dipole:
                 x           y           z       tot (Debye)
 q only:        1.235       0.368       7.044
   full:        1.356       0.623       7.205      18.702

           -------------------------------------------------
          | TOTAL ENERGY              -24.281728935370 Eh   |
          | GRADIENT NORM               0.000576622981 Eh/α |
          | HOMO-LUMO GAP               5.128267471027 eV   |
           -------------------------------------------------

 * finished run on 2024/12/20 at 02:04:49.663
