   * xtb version 6.7.1 (edcfbbe) compiled by 'conda@3ef47c1a292c' on 2024-11-25

   ID    Z sym.   atoms
    1    6 C      1-3, 6-12, 14, 15, 18-24
    2    7 N      4, 16
    3    8 O      5, 17
    4   35 Br     13, 25
    5    1 H      26-44

          program call               : xtb C0073.xyz --opt --namespace C0073 --charge +1
          :  Hamiltonian                  GFN2-xTB          :
 * total energy  :   -72.0290849 Eh     change       -0.1041258E-08 Eh
 * total energy  :   -72.0370941 Eh     change       -0.8009197E-02 Eh
 * total energy  :   -72.0392977 Eh     change       -0.2203643E-02 Eh
 * total energy  :   -72.0396058 Eh     change       -0.3081080E-03 Eh
 * total energy  :   -72.0397916 Eh     change       -0.1858022E-03 Eh
 * total energy  :   -72.0398462 Eh     change       -0.5459293E-04 Eh
 * total energy  :   -72.0398873 Eh     change       -0.4111321E-04 Eh
 * total energy  :   -72.0399298 Eh     change       -0.4243432E-04 Eh
 * total energy  :   -72.0399593 Eh     change       -0.2952876E-04 Eh
 * total energy  :   -72.0400052 Eh     change       -0.4589672E-04 Eh
 * total energy  :   -72.0400594 Eh     change       -0.5423222E-04 Eh
 * total energy  :   -72.0400961 Eh     change       -0.3671114E-04 Eh
 * total energy  :   -72.0401655 Eh     change       -0.6930398E-04 Eh
 * total energy  :   -72.0402612 Eh     change       -0.9571663E-04 Eh
 * total energy  :   -72.0402972 Eh     change       -0.3598441E-04 Eh
 * total energy  :   -72.0403234 Eh     change       -0.2622396E-04 Eh
 * total energy  :   -72.0403333 Eh     change       -0.9881723E-05 Eh
 * total energy  :   -72.0403365 Eh     change       -0.3225915E-05 Eh
   *** GEOMETRY OPTIMIZATION CONVERGED AFTER 18 ITERATIONS ***

 final structure:
================
44
 xtb: 6.7.1 (edcfbbe)
C            1.53488094639329        0.21813580495528       -0.36158922228739
C            0.63537778388147       -0.01133823825221       -1.58313842089201
C            1.01804576858644       -1.24795689151300       -2.29826250245174
N            0.69108813366901       -2.49982512045164       -1.95067908305127
O           -0.09270954059218       -2.73451307897396       -0.86199765273117
C           -0.54026526266065       -4.07873549865370       -0.69087150958287
C           -1.38497191106796       -4.58435443025756       -1.83299850420504
C           -1.24733507792373       -5.89006765549628       -2.28884780813986
C           -2.03096940297517       -6.35543847854872       -3.32841907325360
C           -2.95034262800799       -5.50384731295566       -3.92325125456679
C           -3.09891573192610       -4.19803838163251       -3.47821383968466
C           -2.31877492237245       -3.74565503574562       -2.43149129485275
Br          -4.01472921946896       -6.12966910135501       -5.36953544507032
C            1.25719705672062       -3.38067005804730       -2.81251238318319
C            1.96262772182410       -2.64460700089918       -3.72178238103574
N            1.80475742604661       -1.34166743155301       -3.37845872383093
O            2.30986369814789       -0.22237186852288       -3.96894804561007
C            3.09214090378138       -0.43061556022336       -5.14440295347911
C            4.37767568940211       -1.17651013844277       -4.88755551234064
C            5.13437409315856       -0.88433595610790       -3.75819955010960
C            6.30874085445415       -1.56654928549874       -3.50514361884739
C            6.73438983756605       -2.54258436926413       -4.39485280041975
C            5.99762650703333       -2.83440727294717       -5.53346256279314
C            4.81849655669721       -2.15339498758404       -5.77272116101270
Br           8.34092455664303       -3.49735818191164       -4.04429986995805
H            1.44617153585613       -0.60638947815590        0.34025728514209
H            1.23132566102160        1.13082564067052        0.14070522890826
H            2.57424421431448        0.32004672558271       -0.66121145195935
H           -0.40034716053796       -0.10200755783512       -1.25120002931335
H            0.72258367599393        0.83040740430977       -2.27070570872694
H            0.31017181242446       -4.74284323747864       -0.49645966241532
H           -1.13438795529073       -4.00182944267908        0.22484415303081
H           -0.53638317962918       -6.55525159433725       -1.82114089804403
H           -1.93118224609839       -7.37140923532652       -3.67475901380690
H           -3.82436643737469       -3.54813657815254       -3.94074597705058
H           -2.44202166626608       -2.73512286026013       -2.07073658465988
H            1.13064577679766       -4.44119684940890       -2.75679233035491
H            2.55621259606735       -2.97868090490879       -4.54675709875230
H            2.49233296389412       -0.91949683553574       -5.92100329795109
H            3.29913566480816        0.59644370042452       -5.46009538124139
H            4.80439417714816       -0.11355451571901       -3.07749582598328
H            6.89609725902110       -1.33954005138886       -2.62980617088750
H            6.34288370433729       -3.58727453215540       -6.22381254882185
H            4.24749576649527       -2.37639426776811       -6.66236951372528

          :  Hamiltonian                  GFN2-xTB          :
         :: total energy             -72.040336486241 Eh    ::
         :: gradient norm              0.000491209287 Eh/a0 ::
         :: HOMO-LUMO gap              2.602273030018 eV    ::
         :: SCC energy               -73.021565048551 Eh    ::
         :: -> dispersion             -0.048610496786 Eh    ::
         :: repulsion energy           0.981228562310 Eh    ::

    * Orbital Energies and Occupations

         #    Occupation            Energy/Eh            Energy/eV
      -------------------------------------------------------------
         1        2.0000           -0.9213629             -25.0716
       ...           ...                  ...                  ...
        53        2.0000           -0.5680770             -15.4582
        54        2.0000           -0.5538851             -15.0720
        55        2.0000           -0.5524188             -15.0321
        56        2.0000           -0.5514346             -15.0053
        57        2.0000           -0.5506521             -14.9840
        58        2.0000           -0.5460509             -14.8588
        59        2.0000           -0.5453666             -14.8402
        60        2.0000           -0.5346818             -14.5494
        61        2.0000           -0.5340001             -14.5309
        62        2.0000           -0.4969324             -13.5222
        63        2.0000           -0.4962537             -13.5037
        64        2.0000           -0.4917112             -13.3801
        65        2.0000           -0.4910388             -13.3618 (HOMO)
        66                         -0.3954070             -10.7596 (LUMO)
        67                         -0.3729229             -10.1477
        68                         -0.3585605              -9.7569
        69                         -0.3580718              -9.7436
        70                         -0.3528438              -9.6014
        71                         -0.3521657              -9.5829
        72                         -0.2913807              -7.9289
        73                         -0.2906268              -7.9084
        74                         -0.2746434              -7.4734
        75                         -0.2340360              -6.3684
        76                         -0.2313245              -6.2947
       ...                                ...                  ...
       129                          0.5285401              14.3823
      -------------------------------------------------------------
                  HL-Gap            0.0956318 Eh            2.6023 eV

     #   Z          covCN         q      C6AA      α(0)
     1   6 C        3.754    -0.115    22.763     6.803
     2   6 C        3.803    -0.065    21.749     6.639
     3   6 C        3.074     0.073    26.295     8.408
     4   7 N        2.911     0.183    18.185     6.334
     5   8 O        1.768    -0.196    17.257     5.609
     6   6 C        3.689     0.054    19.852     6.377
     7   6 C        2.968    -0.013    28.338     8.732
     8   6 C        2.924    -0.039    28.970     8.827
     9   6 C        2.989    -0.031    28.758     8.797
    10   6 C        2.915     0.090    26.002     8.362
    11   6 C        2.989    -0.033    28.807     8.804
    12   6 C        2.925    -0.035    28.880     8.813
    13  35 Br       1.064    -0.127   188.537    22.139
    14   6 C        3.039    -0.035    28.835     8.808
    15   6 C        3.039    -0.036    28.847     8.809
    16   7 N        2.910     0.182    18.205     6.337
    17   8 O        1.768    -0.197    17.274     5.612
    18   6 C        3.689     0.054    19.846     6.376
    19   6 C        2.968    -0.013    28.332     8.731
    20   6 C        2.925    -0.034    28.852     8.809
    21   6 C        2.989    -0.032    28.795     8.802
    22   6 C        2.915     0.090    26.000     8.361
    23   6 C        2.989    -0.031    28.766     8.798
    24   6 C        2.924    -0.040    28.987     8.829
    25  35 Br       1.064    -0.127   188.538    22.139
    26   1 H        0.925     0.063     2.165     2.301
    27   1 H        0.925     0.080     1.978     2.200
    28   1 H        0.925     0.058     2.219     2.329
    29   1 H        0.924     0.094     1.841     2.122
    30   1 H        0.924     0.095     1.836     2.119
    31   1 H        0.924     0.064     2.157     2.297
    32   1 H        0.924     0.111     1.691     2.034
    33   1 H        0.926     0.052     2.300     2.371
    34   1 H        0.926     0.076     2.024     2.225
    35   1 H        0.926     0.073     2.058     2.243
    36   1 H        0.926     0.052     2.300     2.372
    37   1 H        0.927     0.115     1.655     2.012
    38   1 H        0.927     0.116     1.650     2.008
    39   1 H        0.924     0.063     2.163     2.300
    40   1 H        0.924     0.111     1.690     2.033
    41   1 H        0.926     0.054     2.273     2.357
    42   1 H        0.926     0.073     2.054     2.241
    43   1 H        0.926     0.075     2.029     2.227
    44   1 H        0.926     0.051     2.309     2.376

Wiberg/Mayer (AO) data.
largest (>0.10) Wiberg bond orders for each atom

     #   Z sym  total        # sym  WBO       # sym  WBO       # sym  WBO
 ---------------------------------------------------------------------------
     1   6 C    3.982 --    28 H    0.987    26 H    0.986     2 C    0.979
                            27 H    0.979
     2   6 C    3.972 --     3 C    1.028     1 C    0.979    30 H    0.961
                            29 H    0.954
     3   6 C    3.924 --    16 N    1.287     4 N    1.286     2 C    1.028
     4   7 N    3.711 --     3 C    1.286    14 C    1.217     5 O    1.006
     5   8 O    2.142 --     4 N    1.006     6 C    0.935
     6   6 C    3.901 --     7 C    0.998    31 H    0.964    32 H    0.939
                             5 O    0.935
     7   6 C    3.984 --     8 C    1.406    12 C    1.406     6 C    0.998
     8   6 C    3.990 --     9 C    1.447     7 C    1.406    33 H    0.966
                            11 C    0.107
     9   6 C    3.988 --     8 C    1.447    10 C    1.401    34 H    0.965
                            12 C    0.107
    10   6 C    3.948 --     9 C    1.401    11 C    1.399    13 Br   1.015
    11   6 C    3.988 --    12 C    1.450    10 C    1.399    35 H    0.966
                             8 C    0.107
    12   6 C    3.991 --    11 C    1.450     7 C    1.406    36 H    0.967
                             9 C    0.107
    13  35 Br   1.165 --    10 C    1.015
    14   6 C    3.936 --    15 C    1.544     4 N    1.217    37 H    0.955
    15   6 C    3.935 --    14 C    1.544    16 N    1.216    38 H    0.954
    16   7 N    3.711 --     3 C    1.287    15 C    1.216    17 O    1.005
    17   8 O    2.142 --    16 N    1.005    18 C    0.935
    18   6 C    3.900 --    19 C    0.997    39 H    0.964    40 H    0.939
                            17 O    0.935
    19   6 C    3.983 --    20 C    1.406    24 C    1.406    18 C    0.997
    20   6 C    3.991 --    21 C    1.450    19 C    1.406    41 H    0.966
                            23 C    0.107
    21   6 C    3.988 --    20 C    1.450    22 C    1.399    42 H    0.966
                            24 C    0.106
    22   6 C    3.948 --    23 C    1.401    21 C    1.399    25 Br   1.015
    23   6 C    3.988 --    24 C    1.447    22 C    1.401    43 H    0.965
                            20 C    0.107
    24   6 C    3.990 --    23 C    1.447    19 C    1.406    44 H    0.966
                            21 C    0.106
    25  35 Br   1.166 --    22 C    1.015
    26   1 H    0.996 --     1 C    0.986
    27   1 H    0.992 --     1 C    0.979
    28   1 H    0.997 --     1 C    0.987
    29   1 H    0.991 --     2 C    0.954
    30   1 H    0.991 --     2 C    0.961
    31   1 H    0.995 --     6 C    0.964
    32   1 H    0.986 --     6 C    0.939
    33   1 H    0.997 --     8 C    0.966
    34   1 H    0.994 --     9 C    0.965
    35   1 H    0.994 --    11 C    0.966
    36   1 H    0.997 --    12 C    0.967
    37   1 H    0.986 --    14 C    0.955
    38   1 H    0.987 --    15 C    0.954
    39   1 H    0.995 --    18 C    0.964
    40   1 H    0.986 --    18 C    0.939
    41   1 H    0.997 --    20 C    0.966
    42   1 H    0.994 --    21 C    0.966
    43   1 H    0.994 --    23 C    0.965
    44   1 H    0.997 --    24 C    0.966
 ---------------------------------------------------------------------------

molecular dipole:
                 x           y           z       tot (Debye)
 q only:        2.419      -3.752      -5.019
   full:        2.373      -3.776      -5.047      17.119

           -------------------------------------------------
          | TOTAL ENERGY              -72.040336486241 Eh   |
          | GRADIENT NORM               0.000491209287 Eh/α |
          | HOMO-LUMO GAP               2.602273030018 eV   |
           -------------------------------------------------

 * finished run on 2024/12/20 at 02:04:51.174
