   * xtb version 6.7.1 (edcfbbe) compiled by 'conda@3ef47c1a292c' on 2024-11-25

   ID    Z sym.   atoms
    1    6 C      1-4, 6-10
    2    7 N      5
    3    1 H      11-32

          program call               : xtb C0074.xyz --opt --namespace C0074 --charge +1
          :  Hamiltonian                  GFN2-xTB          :
 * total energy  :   -33.0088410 Eh     change       -0.2706457E-10 Eh
 * total energy  :   -33.0146316 Eh     change       -0.5790671E-02 Eh
 * total energy  :   -33.0159188 Eh     change       -0.1287127E-02 Eh
 * total energy  :   -33.0159804 Eh     change       -0.6164739E-04 Eh
 * total energy  :   -33.0160247 Eh     change       -0.4433807E-04 Eh
 * total energy  :   -33.0160474 Eh     change       -0.2270663E-04 Eh
 * total energy  :   -33.0160944 Eh     change       -0.4691795E-04 Eh
 * total energy  :   -33.0161086 Eh     change       -0.1427390E-04 Eh
 * total energy  :   -33.0161169 Eh     change       -0.8253845E-05 Eh
 * total energy  :   -33.0161333 Eh     change       -0.1643022E-04 Eh
 * total energy  :   -33.0173295 Eh     change       -0.1893826E-04 Eh
 * total energy  :   -33.0173527 Eh     change       -0.2320930E-04 Eh
 * total energy  :   -33.0173748 Eh     change       -0.2211046E-04 Eh
 * total energy  :   -33.0173926 Eh     change       -0.1777962E-04 Eh
 * total energy  :   -33.0174120 Eh     change       -0.1939901E-04 Eh
 * total energy  :   -33.0174376 Eh     change       -0.2557406E-04 Eh
 * total energy  :   -33.0174448 Eh     change       -0.7243987E-05 Eh
 * total energy  :   -33.0174518 Eh     change       -0.7023358E-05 Eh
 * total energy  :   -33.0174549 Eh     change       -0.3102696E-05 Eh
   *** GEOMETRY OPTIMIZATION CONVERGED AFTER 44 ITERATIONS ***

 final structure:
================
32
 xtb: 6.7.1 (edcfbbe)
C            1.94248322057092        0.09168666987157        0.18522645254286
C            0.73280029174411        1.00481112146379        0.34611848286528
C            0.58695169008642        2.00466139143484       -0.80735563832542
C            0.19487326681632        1.36834688831047       -2.14756170344906
N           -1.23910662790861        1.49489439372239       -2.55903171827332
C           -1.62172034120818        2.91586097723423       -2.83211566645633
C           -0.96968957375018        3.59470738081206       -4.04446474811649
C           -1.83108346424084        3.57744010562133       -5.30447639765330
C           -1.44395769570102        0.66833339986810       -3.76337599586347
C           -2.12151905986207        0.97570450663531       -1.49686903334391
H            1.86405707777122       -0.54183181902337       -0.69549089084561
H            2.03437607986425       -0.55576653847090        1.05223380121836
H            2.85370659145330        0.67801906643626        0.10313474993333
H           -0.16847875289324        0.40026847733912        0.45569258219313
H            0.85339754521121        1.57501050970938        1.26785996043714
H           -0.11775406602632        2.78423398621467       -0.51882551491731
H            1.55162565576461        2.49693114602000       -0.93936169660643
H            0.79498052669152        1.80210362797752       -2.94729074526936
H            0.42275647760422        0.30183538783924       -2.10749482673021
H           -2.70569176424485        2.94067126179092       -2.96315795808645
H           -1.38535655714663        3.48469351859616       -1.93273620383302
H           -0.80106357367878        4.63818842741531       -3.77473912505397
H            0.01072301546816        3.17152065097902       -4.26170892358551
H           -2.80581287305330        4.01523339804576       -5.10531520359060
H           -1.35262235053894        4.17487790680460       -6.07515074860117
H           -1.97557067840168        2.57830136952930       -5.70426707737036
H           -1.27921842004109       -0.38205524576613       -3.52833202425591
H           -2.46373688277699        0.78679550509894       -4.12457893177008
H           -0.75161257242946        0.95827720912307       -4.54961802507319
H           -1.83308624204862       -0.04215212797986       -1.24129715930364
H           -2.05824751712883        1.59451526588154       -0.60533234194735
H           -3.15461242596514        0.96664218146215       -1.84037773087026

          :  Hamiltonian                  GFN2-xTB          :
         :: total energy             -33.017454937977 Eh    ::
         :: gradient norm              0.000258111675 Eh/a0 ::
         :: HOMO-LUMO gap              8.678320368582 eV    ::
         :: SCC energy               -33.494198920440 Eh    ::
         :: -> dispersion             -0.022210981014 Eh    ::
         :: repulsion energy           0.476743982463 Eh    ::

    * Orbital Energies and Occupations

         #    Occupation            Energy/Eh            Energy/eV
      -------------------------------------------------------------
         1        2.0000           -0.8632085             -23.4891
       ...           ...                  ...                  ...
        19        2.0000           -0.6431879             -17.5020
        20        2.0000           -0.6375698             -17.3492
        21        2.0000           -0.6350984             -17.2819
        22        2.0000           -0.6319996             -17.1976
        23        2.0000           -0.6192778             -16.8514
        24        2.0000           -0.6047977             -16.4574
        25        2.0000           -0.5957266             -16.2105
        26        2.0000           -0.5916511             -16.0996
        27        2.0000           -0.5791550             -15.7596
        28        2.0000           -0.5731603             -15.5965
        29        2.0000           -0.5670884             -15.4313
        30        2.0000           -0.5572327             -15.1631
        31        2.0000           -0.5505160             -14.9803 (HOMO)
        32                         -0.2315936              -6.3020 (LUMO)
        33                         -0.1736108              -4.7242
        34                         -0.1493893              -4.0651
        35                         -0.1433384              -3.9004
        36                         -0.0816951              -2.2230
        37                         -0.0709145              -1.9297
        38                         -0.0573635              -1.5609
        39                         -0.0397995              -1.0830
        40                         -0.0321885              -0.8759
        41                         -0.0146701              -0.3992
        42                         -0.0014175              -0.0386
       ...                                ...                  ...
        62                          0.1905316               5.1846
      -------------------------------------------------------------
                  HL-Gap            0.3189224 Eh            8.6783 eV

     #   Z          covCN         q      C6AA      α(0)
     1   6 C        3.752    -0.115    22.757     6.803
     2   6 C        3.799    -0.065    21.751     6.640
     3   6 C        3.800    -0.073    21.904     6.664
     4   6 C        3.759    -0.041    21.361     6.589
     5   7 N        3.620     0.130    19.026     6.478
     6   6 C        3.758    -0.042    21.371     6.591
     7   6 C        3.798    -0.067    21.794     6.647
     8   6 C        3.751    -0.122    22.910     6.826
     9   6 C        3.725    -0.093    22.392     6.757
    10   6 C        3.725    -0.093    22.388     6.756
    11   1 H        0.925     0.033     2.539     2.492
    12   1 H        0.925     0.057     2.229     2.335
    13   1 H        0.925     0.050     2.316     2.380
    14   1 H        0.924     0.037     2.483     2.464
    15   1 H        0.924     0.057     2.231     2.336
    16   1 H        0.925     0.050     2.326     2.385
    17   1 H        0.924     0.073     2.049     2.238
    18   1 H        0.925     0.082     1.962     2.190
    19   1 H        0.924     0.091     1.873     2.140
    20   1 H        0.924     0.088     1.897     2.154
    21   1 H        0.925     0.082     1.954     2.186
    22   1 H        0.924     0.073     2.053     2.241
    23   1 H        0.925     0.054     2.273     2.358
    24   1 H        0.925     0.054     2.271     2.357
    25   1 H        0.925     0.066     2.125     2.280
    26   1 H        0.925     0.046     2.369     2.407
    27   1 H        0.925     0.094     1.843     2.123
    28   1 H        0.925     0.099     1.794     2.095
    29   1 H        0.925     0.102     1.770     2.080
    30   1 H        0.925     0.098     1.802     2.099
    31   1 H        0.925     0.101     1.775     2.084
    32   1 H        0.925     0.094     1.839     2.120

Wiberg/Mayer (AO) data.
largest (>0.10) Wiberg bond orders for each atom

     #   Z sym  total        # sym  WBO       # sym  WBO       # sym  WBO
 ---------------------------------------------------------------------------
     1   6 C    3.993 --     2 C    1.021    13 H    0.986    12 H    0.984
                            11 H    0.984
     2   6 C    3.993 --     1 C    1.021     3 C    1.005    14 H    0.975
                            15 H    0.975
     3   6 C    3.985 --     2 C    1.005     4 C    1.004    17 H    0.969
                            16 H    0.964
     4   6 C    3.928 --     3 C    1.004    18 H    0.964    19 H    0.961
                             5 N    0.925
     5   7 N    3.809 --    10 C    0.960     9 C    0.960     6 C    0.926
                             4 C    0.925
     6   6 C    3.929 --     7 C    1.003    20 H    0.965    21 H    0.963
                             5 N    0.926
     7   6 C    3.986 --     8 C    1.020     6 C    1.003    22 H    0.970
                            23 H    0.965
     8   6 C    3.989 --     7 C    1.020    24 H    0.985    26 H    0.984
                            25 H    0.982
     9   6 C    3.929 --    27 H    0.975    28 H    0.974    29 H    0.972
                             5 N    0.960
    10   6 C    3.930 --    32 H    0.975    30 H    0.973    31 H    0.972
                             5 N    0.960
    11   1 H    0.999 --     1 C    0.984
    12   1 H    0.997 --     1 C    0.984
    13   1 H    0.997 --     1 C    0.986
    14   1 H    0.999 --     2 C    0.975
    15   1 H    0.996 --     2 C    0.975
    16   1 H    0.998 --     3 C    0.964
    17   1 H    0.994 --     3 C    0.969
    18   1 H    0.993 --     4 C    0.964
    19   1 H    0.992 --     4 C    0.961
    20   1 H    0.992 --     6 C    0.965
    21   1 H    0.993 --     6 C    0.963
    22   1 H    0.994 --     7 C    0.970
    23   1 H    0.997 --     7 C    0.965
    24   1 H    0.997 --     8 C    0.985
    25   1 H    0.995 --     8 C    0.982
    26   1 H    0.998 --     8 C    0.984
    27   1 H    0.991 --     9 C    0.975
    28   1 H    0.990 --     9 C    0.974
    29   1 H    0.990 --     9 C    0.972
    30   1 H    0.990 --    10 C    0.973
    31   1 H    0.990 --    10 C    0.972
    32   1 H    0.991 --    10 C    0.975
 ---------------------------------------------------------------------------

molecular dipole:
                 x           y           z       tot (Debye)
 q only:       -2.049       3.024      -4.755
   full:       -2.092       3.005      -4.760      15.263

           -------------------------------------------------
          | TOTAL ENERGY              -33.017454937977 Eh   |
          | GRADIENT NORM               0.000258111675 Eh/α |
          | HOMO-LUMO GAP               8.678320368582 eV   |
           -------------------------------------------------

 * finished run on 2024/12/20 at 02:04:52.186
