   * xtb version 6.7.1 (edcfbbe) compiled by 'conda@3ef47c1a292c' on 2024-11-25

   ID    Z sym.   atoms
    1    6 C      1, 3-7
    2    7 N      2
    3    8 O      8
    4    1 H      9-16

          program call               : xtb C0078.xyz --opt --namespace C0078 --charge +1
          :  Hamiltonian                  GFN2-xTB          :
 * total energy  :   -23.4981425 Eh     change       -0.2241798E-09 Eh
 * total energy  :   -23.5007853 Eh     change       -0.2642856E-02 Eh
 * total energy  :   -23.5013481 Eh     change       -0.5627828E-03 Eh
 * total energy  :   -23.5013766 Eh     change       -0.2843301E-04 Eh
 * total energy  :   -23.5013830 Eh     change       -0.6465757E-05 Eh
 * total energy  :   -23.5013834 Eh     change       -0.3621230E-06 Eh
   *** GEOMETRY OPTIMIZATION CONVERGED AFTER 6 ITERATIONS ***

 final structure:
================
16
 xtb: 6.7.1 (edcfbbe)
C            0.98600205751617        0.10366443008619        0.11280537720509
N            0.50483746085774        0.73309293551880        1.32328423277118
C           -0.14243177207684        0.02329231157610        2.24545381914040
C           -0.59342338441339        0.62474144172728        3.41061655567517
C           -0.37177480309548        1.96813282825504        3.62040938528200
C            0.31423835677649        2.71161075755819        2.64220025535542
C            0.73848203129116        2.04097651505075        1.49588723718590
O            0.52007935378630        3.99881635545725        2.85691745223370
H            0.64406191828635        0.65629943319158       -0.76241855912393
H            0.62425364547963       -0.91946288459517        0.04514900670420
H            2.07725294466950        0.08949661842769        0.10598466910847
H           -0.30122224147471       -1.02654597039587        2.05446982047516
H           -1.11629071398182        0.03280276088537        4.14429105772619
H           -0.70755860822165        2.47252312639670        4.51258321300379
H            1.27132239252206        2.55480934347730        0.70732582945004
H            0.99658136207849        4.45339999738281        2.14764064780722

          :  Hamiltonian                  GFN2-xTB          :
         :: total energy             -23.501383391524 Eh    ::
         :: gradient norm              0.000195010538 Eh/a0 ::
         :: HOMO-LUMO gap              3.431500015780 eV    ::
         :: SCC energy               -23.853482587167 Eh    ::
         :: -> dispersion             -0.010346250826 Eh    ::
         :: repulsion energy           0.352099195643 Eh    ::

    * Orbital Energies and Occupations

         #    Occupation            Energy/Eh            Energy/eV
      -------------------------------------------------------------
         1        2.0000           -0.8979850             -24.4354
       ...           ...                  ...                  ...
         9        2.0000           -0.7551276             -20.5481
        10        2.0000           -0.7388323             -20.1046
        11        2.0000           -0.7205465             -19.6071
        12        2.0000           -0.7116910             -19.3661
        13        2.0000           -0.7078247             -19.2609
        14        2.0000           -0.6876291             -18.7113
        15        2.0000           -0.6820517             -18.5596
        16        2.0000           -0.6567481             -17.8710
        17        2.0000           -0.6551434             -17.8274
        18        2.0000           -0.6454970             -17.5649
        19        2.0000           -0.6242250             -16.9860
        20        2.0000           -0.6229954             -16.9526
        21        2.0000           -0.5893236             -16.0363 (HOMO)
        22                         -0.4632183             -12.6048 (LUMO)
        23                         -0.4230740             -11.5124
        24                         -0.3076007              -8.3702
        25                         -0.1795587              -4.8860
        26                         -0.1079670              -2.9379
        27                         -0.0711526              -1.9362
        28                         -0.0468022              -1.2736
        29                         -0.0226132              -0.6153
        30                         -0.0177280              -0.4824
        31                         -0.0032540              -0.0885
        32                          0.0210933               0.5740
       ...                                ...                  ...
        40                          0.4500588              12.2467
      -------------------------------------------------------------
                  HL-Gap            0.1261053 Eh            3.4315 eV

     #   Z          covCN         q      C6AA      α(0)
     1   6 C        3.713    -0.098    22.503     6.778
     2   7 N        2.746     0.125    19.112     6.493
     3   6 C        2.889     0.017    27.626     8.617
     4   6 C        2.914    -0.012    28.305     8.724
     5   6 C        2.923    -0.015    28.375     8.735
     6   6 C        2.839     0.180    24.145     8.053
     7   6 C        2.893    -0.023    28.569     8.763
     8   8 O        1.661    -0.312    19.211     5.917
     9   1 H        0.925     0.113     1.669     2.020
    10   1 H        0.925     0.110     1.697     2.037
    11   1 H        0.924     0.115     1.652     2.010
    12   1 H        0.926     0.114     1.665     2.018
    13   1 H        0.926     0.116     1.643     2.005
    14   1 H        0.926     0.124     1.578     1.965
    15   1 H        0.925     0.103     1.761     2.075
    16   1 H        0.805     0.341     0.610     1.226

Wiberg/Mayer (AO) data.
largest (>0.10) Wiberg bond orders for each atom

     #   Z sym  total        # sym  WBO       # sym  WBO       # sym  WBO
 ---------------------------------------------------------------------------
     1   6 C    3.928 --     2 N    0.984    10 H    0.973     9 H    0.961
                            11 H    0.955
     2   7 N    3.773 --     3 C    1.349     7 C    1.315     1 C    0.984
     3   6 C    3.957 --     4 C    1.409     2 N    1.349    12 H    0.953
     4   6 C    3.980 --     5 C    1.485     3 C    1.409    13 H    0.957
     5   6 C    3.975 --     4 C    1.485     6 C    1.296    14 H    0.956
     6   6 C    3.954 --     7 C    1.363     5 C    1.296     8 O    1.180
     7   6 C    3.959 --     6 C    1.363     2 N    1.315    15 H    0.954
     8   8 O    2.244 --     6 C    1.180    16 H    0.861
     9   1 H    0.987 --     1 C    0.961
    10   1 H    0.988 --     1 C    0.973
    11   1 H    0.987 --     1 C    0.955
    12   1 H    0.987 --     3 C    0.953
    13   1 H    0.986 --     4 C    0.957
    14   1 H    0.985 --     5 C    0.956
    15   1 H    0.989 --     7 C    0.954
    16   1 H    0.884 --     8 O    0.861
 ---------------------------------------------------------------------------

molecular dipole:
                 x           y           z       tot (Debye)
 q only:        0.857       2.268       3.144
   full:        0.980       2.297       2.927       9.778

           -------------------------------------------------
          | TOTAL ENERGY              -23.501383391524 Eh   |
          | GRADIENT NORM               0.000195010538 Eh/α |
          | HOMO-LUMO GAP               3.431500015780 eV   |
           -------------------------------------------------

 * finished run on 2024/12/20 at 02:05:00.112
