   * xtb version 6.7.1 (edcfbbe) compiled by 'conda@3ef47c1a292c' on 2024-11-25

   ID    Z sym.   atoms
    1    6 C      1, 3-8, 10, 11, 13-18, 22, 24-30, 32
    2    8 O      2, 12, 20, 21, 31
    3    7 N      9, 19, 23
    4    1 H      33-54

          program call               : xtb C0077.xyz --opt --namespace C0077 --charge +1
          :  Hamiltonian                  GFN2-xTB          :
 * total energy  :   -91.2214085 Eh     change       -0.1379235E-08 Eh
 * total energy  :   -91.2342964 Eh     change       -0.1288787E-01 Eh
 * total energy  :   -91.2370293 Eh     change       -0.2732871E-02 Eh
 * total energy  :   -91.2373716 Eh     change       -0.3423370E-03 Eh
 * total energy  :   -91.2380152 Eh     change       -0.6435655E-03 Eh
 * total energy  :   -91.2383818 Eh     change       -0.3665878E-03 Eh
 * total energy  :   -91.2387538 Eh     change       -0.3720691E-03 Eh
 * total energy  :   -91.2390868 Eh     change       -0.3329345E-03 Eh
 * total energy  :   -91.2393987 Eh     change       -0.3119111E-03 Eh
 * total energy  :   -91.2396858 Eh     change       -0.2871377E-03 Eh
 * total energy  :   -91.2476952 Eh     change       -0.1497835E-04 Eh
 * total energy  :   -91.2477131 Eh     change       -0.1783236E-04 Eh
 * total energy  :   -91.2477353 Eh     change       -0.2224606E-04 Eh
 * total energy  :   -91.2477575 Eh     change       -0.2219467E-04 Eh
 * total energy  :   -91.2477744 Eh     change       -0.1686626E-04 Eh
 * total energy  :   -91.2477859 Eh     change       -0.1156422E-04 Eh
 * total energy  :   -91.2477944 Eh     change       -0.8458908E-05 Eh
 * total energy  :   -91.2478013 Eh     change       -0.6917720E-05 Eh
 * total energy  :   -91.2478044 Eh     change       -0.3105879E-05 Eh
   *** GEOMETRY OPTIMIZATION CONVERGED AFTER 122 ITERATIONS ***

 final structure:
================
54
 xtb: 6.7.1 (edcfbbe)
C            1.84957696588809       -0.81654036748041        0.23693256675678
O            0.76732430899756       -1.20686960871685       -0.59162024331568
C            1.02210550416775       -1.51697213202172       -1.88689264216482
C            2.26454021964640       -1.53918924270292       -2.49664001820703
C            2.43649018931489       -1.89223083054284       -3.83487452285842
C            1.38131252452043       -2.25582879334079       -4.65556623220218
C            0.10992146000370       -2.24174679633761       -4.05256496274725
C           -0.06347816058630       -1.86732367080198       -2.70755104869620
N           -1.41808123123903       -1.93299945793534       -2.45232945944055
C           -2.09354307551718       -1.72397891149496       -1.19886905076286
C           -2.94874821739087       -2.93743251074615       -0.78634828271170
O           -3.98693436726891       -2.78581899510317       -0.20676417240709
C           -2.42315531002413       -4.26545304630145       -1.19607019670177
C           -1.05728121041062       -4.55309551438046       -1.20193395173474
C           -0.61727568748735       -5.79020102440761       -1.62707454513364
C           -1.54550964465420       -6.73724386017626       -2.03842873877444
C           -2.90919179990148       -6.48314669436195       -1.99860646631099
C           -3.34466750195156       -5.24402639452377       -1.57279040875721
N           -1.07189248498566       -8.02305626963686       -2.51919653233423
O            0.11933921730203       -8.13855079001660       -2.68970911573601
O           -1.90052031810997       -8.87289243014243       -2.73493960270711
C           -2.01988285852017       -2.32890339367178       -3.57141682925613
N           -1.14600533133091       -2.52295087615269       -4.54777527983818
C           -1.47715405671802       -3.09423124157153       -5.84004620804436
C           -1.67763974151309       -4.58705063628435       -5.69475457443690
C           -2.95469033981470       -5.11829621181174       -5.57462550408013
C           -3.13065157987581       -6.48638553650349       -5.45613404273170
C           -2.03246282639557       -7.33012544935047       -5.44690779320283
C           -0.75450087514866       -6.80180955856804       -5.54015066905037
C           -0.57762648851190       -5.43440407935785       -5.66098430952350
O            1.46959691371312       -2.61189353583982       -5.95552926575555
C            2.74222368978606       -2.60395430674674       -6.57948951843370
H            1.40783328392543       -0.60418142710558        1.20822879637887
H            2.33547041765251        0.08297206532705       -0.14644499524174
H            2.58042670309298       -1.62223137706738        0.33760058078438
H            3.14389722295028       -1.27543345322285       -1.93360504187050
H            3.43912347714807       -1.87610232768839       -4.22763910458480
H           -1.34835295503920       -1.52865056164115       -0.42361185035475
H           -2.75619578020921       -0.85442232823204       -1.25755372331429
H           -0.34246553387414       -3.83182912572994       -0.83887700439688
H            0.43229620526029       -6.04124805320906       -1.64092259412550
H           -3.60189882606211       -7.25561475013392       -2.29473521111214
H           -4.39825329604671       -5.01523129091096       -1.52575143909632
H           -3.07996335083395       -2.46712316213446       -3.67068496699458
H           -2.39100267255599       -2.62139756664040       -6.20588998876685
H           -0.65506249352237       -2.88230527314211       -6.52280682836139
H           -3.81711696300280       -4.46780733278858       -5.60483429946727
H           -4.12658383130066       -6.89496835857780       -5.38609286339033
H           -2.17328915574138       -8.39691012041058       -5.36757955524401
H            0.10384585205308       -7.45548624920364       -5.52600347339982
H            0.41624519485135       -5.02360690651624       -5.75381034415345
H            3.18189823101875       -1.60421631209833       -6.56769709066908
H            3.42093968837498       -3.31589213484936       -6.10412926930060
H            2.56077069588382       -2.90780178704367       -7.60840811203480

          :  Hamiltonian                  GFN2-xTB          :
         :: total energy             -91.247804404112 Eh    ::
         :: gradient norm              0.000275918057 Eh/a0 ::
         :: HOMO-LUMO gap              1.977237383029 eV    ::
         :: SCC energy               -92.526267692020 Eh    ::
         :: -> dispersion             -0.070282123268 Eh    ::
         :: repulsion energy           1.278463287908 Eh    ::

    * Orbital Energies and Occupations

         #    Occupation            Energy/Eh            Energy/eV
      -------------------------------------------------------------
         1        2.0000           -0.8815917             -23.9893
       ...           ...                  ...                  ...
        69        2.0000           -0.5661851             -15.4067
        70        2.0000           -0.5642024             -15.3527
        71        2.0000           -0.5589654             -15.2102
        72        2.0000           -0.5562519             -15.1364
        73        2.0000           -0.5539591             -15.0740
        74        2.0000           -0.5473406             -14.8939
        75        2.0000           -0.5387773             -14.6609
        76        2.0000           -0.5343714             -14.5410
        77        2.0000           -0.5332569             -14.5107
        78        2.0000           -0.5310820             -14.4515
        79        2.0000           -0.5170714             -14.0702
        80        2.0000           -0.5165072             -14.0549
        81        2.0000           -0.5048925             -13.7388 (HOMO)
        82                         -0.4322303             -11.7616 (LUMO)
        83                         -0.4099575             -11.1555
        84                         -0.3939762             -10.7206
        85                         -0.3711991             -10.1008
        86                         -0.3685834             -10.0297
        87                         -0.3465612              -9.4304
        88                         -0.3391746              -9.2294
        89                         -0.3351219              -9.1191
        90                         -0.3316927              -9.0258
        91                         -0.2358358              -6.4174
        92                         -0.2324014              -6.3240
       ...                                ...                  ...
       150                          0.5515984              15.0098
      -------------------------------------------------------------
                  HL-Gap            0.0726621 Eh            1.9772 eV

     #   Z          covCN         q      C6AA      α(0)
     1   6 C        3.643     0.021    20.569     6.520
     2   8 O        1.704    -0.263    18.355     5.784
     3   6 C        2.852     0.133    25.094     8.210
     4   6 C        2.924    -0.065    29.614     8.924
     5   6 C        2.924    -0.066    29.655     8.930
     6   6 C        2.853     0.138    24.977     8.191
     7   6 C        3.120     0.017    27.457     8.582
     8   6 C        3.118     0.014    27.526     8.593
     9   7 N        2.829     0.041    20.523     6.728
    10   6 C        3.742    -0.057    21.680     6.643
    11   6 C        2.818     0.229    23.190     7.890
    12   8 O        0.857    -0.295    19.695     5.950
    13   6 C        2.972    -0.009    28.241     8.717
    14   6 C        2.921    -0.030    28.743     8.792
    15   6 C        2.918    -0.021    28.529     8.759
    16   6 C        2.918     0.012    27.750     8.639
    17   6 C        2.916    -0.016    28.412     8.741
    18   6 C        2.926    -0.014    28.364     8.734
    19   7 N        2.759     0.551    13.464     5.450
    20   8 O        0.930    -0.369    21.043     6.152
    21   8 O        0.930    -0.358    20.821     6.120
    22   6 C        3.079     0.057    26.644     8.463
    23   7 N        2.831     0.049    20.385     6.706
    24   6 C        3.748    -0.032    21.202     6.567
    25   6 C        2.973    -0.004    28.126     8.699
    26   6 C        2.922    -0.042    29.031     8.836
    27   6 C        2.919    -0.027    28.686     8.783
    28   6 C        2.920    -0.027    28.673     8.781
    29   6 C        2.919    -0.027    28.679     8.782
    30   6 C        2.923    -0.039    28.963     8.826
    31   8 O        1.704    -0.251    18.157     5.753
    32   6 C        3.643     0.020    20.575     6.521
    33   1 H        0.925     0.085     1.925     2.170
    34   1 H        0.924     0.063     2.165     2.301
    35   1 H        0.924     0.061     2.191     2.315
    36   1 H        0.926     0.082     1.960     2.189
    37   1 H        0.926     0.082     1.957     2.188
    38   1 H        0.924     0.135     1.497     1.913
    39   1 H        0.924     0.111     1.684     2.029
    40   1 H        0.926     0.061     2.188     2.313
    41   1 H        0.926     0.092     1.859     2.132
    42   1 H        0.926     0.101     1.774     2.083
    43   1 H        0.926     0.085     1.927     2.171
    44   1 H        0.926     0.105     1.742     2.064
    45   1 H        0.924     0.081     1.969     2.195
    46   1 H        0.925     0.110     1.697     2.037
    47   1 H        0.926     0.035     2.514     2.479
    48   1 H        0.926     0.055     2.258     2.350
    49   1 H        0.926     0.067     2.118     2.276
    50   1 H        0.926     0.062     2.179     2.309
    51   1 H        0.926     0.045     2.381     2.413
    52   1 H        0.924     0.062     2.177     2.308
    53   1 H        0.924     0.062     2.179     2.308
    54   1 H        0.925     0.086     1.914     2.164

Wiberg/Mayer (AO) data.
largest (>0.10) Wiberg bond orders for each atom

     #   Z sym  total        # sym  WBO       # sym  WBO       # sym  WBO
 ---------------------------------------------------------------------------
     1   6 C    3.921 --    33 H    0.976    35 H    0.976    34 H    0.976
                             2 O    0.961
     2   8 O    2.243 --     3 C    1.079     1 C    0.961
     3   6 C    3.943 --     4 C    1.410     8 C    1.254     2 O    1.079
     4   6 C    3.983 --     3 C    1.410     5 C    1.387    36 H    0.961
     5   6 C    3.983 --     6 C    1.407     4 C    1.387    37 H    0.961
     6   6 C    3.946 --     5 C    1.407     7 C    1.249    31 O    1.093
     7   6 C    3.948 --     8 C    1.290     6 C    1.249    23 N    1.138
     8   6 C    3.948 --     7 C    1.290     3 C    1.254     9 N    1.131
     9   7 N    3.679 --    22 C    1.349     8 C    1.131    10 C    0.983
                            23 N    0.100
    10   6 C    3.938 --     9 N    0.983    39 H    0.946    11 C    0.943
                            38 H    0.928
    11   6 C    3.930 --    12 O    1.886    13 C    1.012    10 C    0.943
    12   8 O    2.127 --    11 C    1.886
    13   6 C    3.989 --    18 C    1.382    14 C    1.379    11 C    1.012
    14   6 C    3.989 --    15 C    1.460    13 C    1.379    40 H    0.965
                            17 C    0.106
    15   6 C    3.984 --    14 C    1.460    16 C    1.387    41 H    0.958
                            18 C    0.105
    16   6 C    3.969 --    17 C    1.392    15 C    1.387    19 N    0.945
    17   6 C    3.981 --    18 C    1.451    16 C    1.392    42 H    0.956
                            14 C    0.106
    18   6 C    3.985 --    17 C    1.451    13 C    1.382    43 H    0.963
                            15 C    0.105
    19   7 N    3.915 --    21 O    1.470    20 O    1.460    16 C    0.945
    20   8 O    1.949 --    19 N    1.460    21 O    0.378
    21   8 O    1.961 --    19 N    1.470    20 O    0.378
    22   6 C    3.950 --    23 N    1.382     9 N    1.349    44 H    0.953
    23   7 N    3.695 --    22 C    1.382     7 C    1.138    24 C    0.953
                             9 N    0.100
    24   6 C    3.929 --    25 C    0.977    45 H    0.962    46 H    0.954
                            23 N    0.953
    25   6 C    3.978 --    26 C    1.416    30 C    1.413    24 C    0.977
                            28 C    0.109
    26   6 C    3.991 --    27 C    1.441    25 C    1.416    47 H    0.968
                            29 C    0.111
    27   6 C    3.990 --    26 C    1.441    28 C    1.440    48 H    0.969
                            30 C    0.111
    28   6 C    3.987 --    27 C    1.440    29 C    1.437    49 H    0.967
                            25 C    0.109
    29   6 C    3.989 --    30 C    1.444    28 C    1.437    50 H    0.968
                            26 C    0.111
    30   6 C    3.991 --    29 C    1.444    25 C    1.413    51 H    0.967
                            27 C    0.111
    31   8 O    2.259 --     6 C    1.093    32 C    0.962
    32   6 C    3.921 --    54 H    0.976    52 H    0.976    53 H    0.976
                            31 O    0.962
    33   1 H    0.992 --     1 C    0.976
    34   1 H    0.995 --     1 C    0.976
    35   1 H    0.996 --     1 C    0.976
    36   1 H    0.993 --     4 C    0.961
    37   1 H    0.993 --     5 C    0.961
    38   1 H    0.981 --    10 C    0.928
    39   1 H    0.986 --    10 C    0.946
    40   1 H    0.996 --    14 C    0.965
    41   1 H    0.991 --    15 C    0.958
    42   1 H    0.989 --    17 C    0.956
    43   1 H    0.992 --    18 C    0.963
    44   1 H    0.988 --    22 C    0.953
    45   1 H    0.992 --    24 C    0.962
    46   1 H    0.987 --    24 C    0.954
    47   1 H    0.999 --    26 C    0.968
    48   1 H    0.996 --    27 C    0.969
    49   1 H    0.995 --    28 C    0.967
    50   1 H    0.996 --    29 C    0.968
    51   1 H    0.998 --    30 C    0.967
    52   1 H    0.995 --    32 C    0.976
    53   1 H    0.995 --    32 C    0.976
    54   1 H    0.992 --    32 C    0.976
 ---------------------------------------------------------------------------

molecular dipole:
                 x           y           z       tot (Debye)
 q only:       -0.389      -3.923      -6.606
   full:       -0.183      -3.709      -6.604      19.258

           -------------------------------------------------
          | TOTAL ENERGY              -91.247804404112 Eh   |
          | GRADIENT NORM               0.000275918057 Eh/α |
          | HOMO-LUMO GAP               1.977237383029 eV   |
           -------------------------------------------------

 * finished run on 2024/12/20 at 02:04:59.987
