   * xtb version 6.7.1 (edcfbbe) compiled by 'conda@3ef47c1a292c' on 2024-11-25

   ID    Z sym.   atoms
    1    6 C      1-3, 5, 6, 8-12
    2    7 N      4, 7
    3    1 H      13-31

          program call               : xtb C0084.xyz --opt --namespace C0084 --charge +1
          :  Hamiltonian                  GFN2-xTB          :
 * total energy  :   -36.6007091 Eh     change       -0.1505072E-09 Eh
 * total energy  :   -36.6045185 Eh     change       -0.3809349E-02 Eh
 * total energy  :   -36.6053974 Eh     change       -0.8789571E-03 Eh
 * total energy  :   -36.6056194 Eh     change       -0.2219613E-03 Eh
 * total energy  :   -36.6058121 Eh     change       -0.1927386E-03 Eh
 * total energy  :   -36.6058821 Eh     change       -0.6999941E-04 Eh
 * total energy  :   -36.6059499 Eh     change       -0.6775427E-04 Eh
 * total energy  :   -36.6060061 Eh     change       -0.5624190E-04 Eh
 * total energy  :   -36.6060460 Eh     change       -0.3992320E-04 Eh
 * total energy  :   -36.6060866 Eh     change       -0.4057463E-04 Eh
 * total energy  :   -36.6069677 Eh     change       -0.3205911E-04 Eh
 * total energy  :   -36.6069792 Eh     change       -0.1148656E-04 Eh
 * total energy  :   -36.6070111 Eh     change       -0.3196121E-04 Eh
 * total energy  :   -36.6070228 Eh     change       -0.1173458E-04 Eh
 * total energy  :   -36.6070349 Eh     change       -0.1210121E-04 Eh
 * total energy  :   -36.6070478 Eh     change       -0.1281958E-04 Eh
 * total energy  :   -36.6070570 Eh     change       -0.9282368E-05 Eh
 * total energy  :   -36.6070624 Eh     change       -0.5358420E-05 Eh
 * total energy  :   -36.6070662 Eh     change       -0.3768308E-05 Eh
   *** GEOMETRY OPTIMIZATION CONVERGED AFTER 33 ITERATIONS ***

 final structure:
================
31
 xtb: 6.7.1 (edcfbbe)
C            1.91390983202224       -0.34900926086641       -0.25298966246156
C            0.78091498725819        0.02775110449797       -1.19828335205092
C            0.68263713031218       -0.90616031991327       -2.40874891921511
N            0.36775634960898       -2.26697013779746       -2.02204232261527
C           -0.74989502460638       -2.60621616423588       -1.31317057525358
C           -0.71498433152192       -3.94764032939795       -1.11815568821165
N            0.42261443220783       -4.41361291650121       -1.70997782467458
C            1.06893271023530       -3.38117323844990       -2.26836071972103
C            2.35106773260472       -3.48333998032627       -3.01165070083134
C            3.56291742061857       -3.37754379991874       -2.07606468927998
C            0.78571602539369       -5.81543422873215       -1.76757113403765
C            0.11719072486749       -6.50416354194697       -2.95334199079147
H            1.77814333415506       -1.35103290903888        0.15030516499660
H            1.94271353196860        0.34526958739690        0.58142970343350
H            2.87387507390355       -0.29767517507734       -0.76163555112595
H           -0.16420028451409        0.03401643628216       -0.65462160204060
H            0.94654802659507        1.03603881844491       -1.57833603170004
H           -0.10514378109061       -0.55265671082174       -3.08072969146338
H            1.62984131889306       -0.90314411268068       -2.94781219916350
H           -1.47958125864841       -1.88551870517637       -1.00888862896492
H           -1.40103528038229       -4.59117776463812       -0.60748316821209
H            2.38364209293117       -4.43822746659144       -3.53739508278089
H            2.40389361894892       -2.69618971003557       -3.76446739227472
H            3.54224161815432       -4.15378014783563       -1.31561555310786
H            4.47490996454836       -3.49019560284628       -2.65422838872090
H            3.58889316249896       -2.41262711265584       -1.57913989904993
H            1.87039610886062       -5.90292440880256       -1.83539116319905
H            0.45960431707806       -6.28057656526733       -0.83510507630497
H            0.42787598625130       -6.05707223705460       -3.89438629505025
H            0.39526886252192       -7.55355103969198       -2.96376546849879
H           -0.96500440167142       -6.43726236032084       -2.87860609762815

          :  Hamiltonian                  GFN2-xTB          :
         :: total energy             -36.607066176109 Eh    ::
         :: gradient norm              0.000276425028 Eh/a0 ::
         :: HOMO-LUMO gap              4.666435064339 eV    ::
         :: SCC energy               -37.166634850657 Eh    ::
         :: -> dispersion             -0.024564976830 Eh    ::
         :: repulsion energy           0.559568674549 Eh    ::

    * Orbital Energies and Occupations

         #    Occupation            Energy/Eh            Energy/eV
      -------------------------------------------------------------
         1        2.0000           -0.8817520             -23.9937
       ...           ...                  ...                  ...
        22        2.0000           -0.6404113             -17.4265
        23        2.0000           -0.6317567             -17.1910
        24        2.0000           -0.6235303             -16.9671
        25        2.0000           -0.6148895             -16.7320
        26        2.0000           -0.6000253             -16.3275
        27        2.0000           -0.5994963             -16.3131
        28        2.0000           -0.5939864             -16.1632
        29        2.0000           -0.5890094             -16.0278
        30        2.0000           -0.5851368             -15.9224
        31        2.0000           -0.5792031             -15.7609
        32        2.0000           -0.5699152             -15.5082
        33        2.0000           -0.5653894             -15.3850
        34        2.0000           -0.5640963             -15.3498 (HOMO)
        35                         -0.3926080             -10.6834 (LUMO)
        36                         -0.3584336              -9.7535
        37                         -0.1841412              -5.0107
        38                         -0.1266675              -3.4468
        39                         -0.0688225              -1.8728
        40                         -0.0624536              -1.6995
        41                         -0.0506762              -1.3790
        42                         -0.0381409              -1.0379
        43                         -0.0321217              -0.8741
        44                         -0.0208957              -0.5686
        45                         -0.0138997              -0.3782
       ...                                ...                  ...
        67                          0.4817624              13.1094
      -------------------------------------------------------------
                  HL-Gap            0.1714883 Eh            4.6664 eV

     #   Z          covCN         q      C6AA      α(0)
     1   6 C        3.752    -0.113    22.717     6.797
     2   6 C        3.801    -0.065    21.752     6.640
     3   6 C        3.741    -0.023    21.055     6.547
     4   7 N        2.870     0.042    20.500     6.725
     5   6 C        3.053    -0.008    28.174     8.705
     6   6 C        3.048    -0.009    28.202     8.710
     7   7 N        2.874     0.037    20.601     6.741
     8   6 C        3.101     0.102    25.631     8.296
     9   6 C        3.803    -0.070    21.841     6.654
    10   6 C        3.753    -0.115    22.762     6.803
    11   6 C        3.740    -0.018    20.974     6.534
    12   6 C        3.753    -0.123    22.913     6.826
    13   1 H        0.925     0.035     2.513     2.479
    14   1 H        0.925     0.064     2.147     2.291
    15   1 H        0.925     0.047     2.353     2.399
    16   1 H        0.924     0.057     2.239     2.340
    17   1 H        0.925     0.072     2.068     2.249
    18   1 H        0.924     0.081     1.964     2.192
    19   1 H        0.925     0.083     1.952     2.185
    20   1 H        0.927     0.101     1.773     2.083
    21   1 H        0.927     0.100     1.784     2.089
    22   1 H        0.924     0.082     1.962     2.190
    23   1 H        0.924     0.078     2.003     2.213
    24   1 H        0.925     0.053     2.277     2.360
    25   1 H        0.925     0.075     2.029     2.228
    26   1 H        0.925     0.061     2.187     2.313
    27   1 H        0.924     0.083     1.951     2.184
    28   1 H        0.924     0.086     1.914     2.163
    29   1 H        0.925     0.058     2.218     2.329
    30   1 H        0.925     0.081     1.968     2.194
    31   1 H        0.925     0.065     2.140     2.288

Wiberg/Mayer (AO) data.
largest (>0.10) Wiberg bond orders for each atom

     #   Z sym  total        # sym  WBO       # sym  WBO       # sym  WBO
 ---------------------------------------------------------------------------
     1   6 C    3.993 --     2 C    1.021    13 H    0.987    15 H    0.984
                            14 H    0.983
     2   6 C    3.986 --     1 C    1.021     3 C    0.990    16 H    0.973
                            17 H    0.969
     3   6 C    3.942 --     2 C    0.990     4 N    0.968    19 H    0.964
                            18 H    0.959
     4   7 N    3.696 --     8 C    1.332     5 C    1.210     3 C    0.968
     5   6 C    3.950 --     6 C    1.611     4 N    1.210    20 H    0.961
     6   6 C    3.951 --     5 C    1.611     7 N    1.212    21 H    0.962
     7   7 N    3.691 --     8 C    1.326     6 C    1.212    11 C    0.967
     8   6 C    3.948 --     4 N    1.332     7 N    1.326     9 C    1.025
     9   6 C    3.982 --     8 C    1.025    10 C    0.984    22 H    0.959
                            23 H    0.958
    10   6 C    3.984 --    24 H    0.986     9 C    0.984    26 H    0.982
                            25 H    0.980
    11   6 C    3.943 --    12 C    1.003     7 N    0.967    28 H    0.965
                            27 H    0.965
    12   6 C    3.983 --    11 C    1.003    29 H    0.984    31 H    0.984
                            30 H    0.977
    13   1 H    0.999 --     1 C    0.987
    14   1 H    0.996 --     1 C    0.983
    15   1 H    0.998 --     1 C    0.984
    16   1 H    0.997 --     2 C    0.973
    17   1 H    0.994 --     2 C    0.969
    18   1 H    0.993 --     3 C    0.959
    19   1 H    0.993 --     3 C    0.964
    20   1 H    0.989 --     5 C    0.961
    21   1 H    0.989 --     6 C    0.962
    22   1 H    0.993 --     9 C    0.959
    23   1 H    0.994 --     9 C    0.958
    24   1 H    0.997 --    10 C    0.986
    25   1 H    0.993 --    10 C    0.980
    26   1 H    0.996 --    10 C    0.982
    27   1 H    0.993 --    11 C    0.965
    28   1 H    0.992 --    11 C    0.965
    29   1 H    0.997 --    12 C    0.984
    30   1 H    0.992 --    12 C    0.977
    31   1 H    0.996 --    12 C    0.984
 ---------------------------------------------------------------------------

molecular dipole:
                 x           y           z       tot (Debye)
 q only:        1.513      -6.241      -3.740
   full:        1.426      -6.253      -3.760      18.896

           -------------------------------------------------
          | TOTAL ENERGY              -36.607066176109 Eh   |
          | GRADIENT NORM               0.000276425028 Eh/α |
          | HOMO-LUMO GAP               4.666435064339 eV   |
           -------------------------------------------------

 * finished run on 2024/12/20 at 02:05:13.168
