   * xtb version 6.7.1 (edcfbbe) compiled by 'conda@3ef47c1a292c' on 2024-11-25

   ID    Z sym.   atoms
    1    6 C      1-4, 6, 7, 9-11
    2    7 N      5, 8
    3    9 F      12-15
    4    1 H      16-28

          program call               : xtb C0086.xyz --opt --namespace C0086 --charge +1
          :  Hamiltonian                  GFN2-xTB          :
 * total energy  :   -50.2728039 Eh     change       -0.1682636E-09 Eh
 * total energy  :   -50.2770827 Eh     change       -0.4278810E-02 Eh
 * total energy  :   -50.2783932 Eh     change       -0.1310517E-02 Eh
 * total energy  :   -50.2786519 Eh     change       -0.2587159E-03 Eh
 * total energy  :   -50.2789357 Eh     change       -0.2837848E-03 Eh
 * total energy  :   -50.2790786 Eh     change       -0.1428693E-03 Eh
 * total energy  :   -50.2792776 Eh     change       -0.1989622E-03 Eh
 * total energy  :   -50.2794728 Eh     change       -0.1952528E-03 Eh
 * total energy  :   -50.2796445 Eh     change       -0.1716671E-03 Eh
 * total energy  :   -50.2797830 Eh     change       -0.1385365E-03 Eh
 * total energy  :   -50.2857871 Eh     change       -0.7877564E-05 Eh
 * total energy  :   -50.2857978 Eh     change       -0.1073008E-04 Eh
 * total energy  :   -50.2858095 Eh     change       -0.1172233E-04 Eh
 * total energy  :   -50.2858211 Eh     change       -0.1157902E-04 Eh
 * total energy  :   -50.2858341 Eh     change       -0.1300991E-04 Eh
 * total energy  :   -50.2858419 Eh     change       -0.7822014E-05 Eh
 * total energy  :   -50.2858420 Eh     change       -0.4852658E-07 Eh
 * total energy  :   -50.2858446 Eh     change       -0.2630747E-05 Eh
 * total energy  :   -50.2858477 Eh     change       -0.3061144E-05 Eh
   *** GEOMETRY OPTIMIZATION CONVERGED AFTER 83 ITERATIONS ***

 final structure:
================
28
 xtb: 6.7.1 (edcfbbe)
C            1.16969202178281        0.13568030001433       -0.35600923815343
C            0.49396291900201       -1.20845495435101       -0.60144532088265
C            0.90658531352179       -2.28586641286493        0.40080469500460
C            0.44502438293125       -2.00592116759077        1.83868404244260
N           -0.99585119614088       -2.02953974048352        1.92296331302913
C           -1.75969856725055       -3.14554176550343        2.10482855290910
C           -3.06497187196089       -2.77649515359973        2.02835458223563
N           -3.07154124860436       -1.42780188876298        1.78670087337722
C           -1.79981528954258       -0.99952095195825        1.72773244160635
C           -4.24166072067720       -0.58250855508209        1.69304011650501
C           -4.54188717072118        0.09721710068133        3.06489069404238
F           -4.68515700135916       -0.86572016866195        3.98571763186805
F           -3.46052970063867        0.82095512278952        3.40158405404011
F           -4.02110298731736        0.35705729130000        0.76270096723390
F           -5.28237541434739       -1.31794414484655        1.29938712636403
H            0.87915354217364        0.57887652695113        0.59428697642082
H            0.90059733262816        0.83372801273120       -1.14341980412491
H            2.25034061310866        0.02258636590254       -0.36282487357436
H           -0.59357075064112       -1.08644053506515       -0.60332055798876
H            0.77326191198365       -1.55877250022007       -1.59560610107702
H            0.51296715484556       -3.25276508406342        0.08178699986780
H            1.99395852083161       -2.35871077362957        0.41844575662812
H            0.83983077647394       -2.77056365332406        2.50945678460431
H            0.80229394372499       -1.02838765003935        2.16370930784000
H           -1.33534349465985       -4.11404434429163        2.28019253326713
H           -3.96760392185347       -3.34720374820316        2.12038729034346
H           -1.50637279404282        0.02099738391177        1.56391159401737
H           -5.43549630325166        0.73644508825826        3.03273956215327

          :  Hamiltonian                  GFN2-xTB          :
         :: total energy             -50.285847654211 Eh    ::
         :: gradient norm              0.000498058847 Eh/a0 ::
         :: HOMO-LUMO gap              3.175895904907 eV    ::
         :: SCC energy               -50.765746194677 Eh    ::
         :: -> dispersion             -0.022457922752 Eh    ::
         :: repulsion energy           0.479898540466 Eh    ::

    * Orbital Energies and Occupations

         #    Occupation            Energy/Eh            Energy/eV
      -------------------------------------------------------------
         1        2.0000           -1.0444530             -28.4210
       ...           ...                  ...                  ...
        31        2.0000           -0.6810998             -18.5337
        32        2.0000           -0.6755063             -18.3815
        33        2.0000           -0.6703365             -18.2408
        34        2.0000           -0.6664371             -18.1347
        35        2.0000           -0.6462824             -17.5862
        36        2.0000           -0.6355055             -17.2930
        37        2.0000           -0.6260994             -17.0370
        38        2.0000           -0.6165429             -16.7770
        39        2.0000           -0.6123409             -16.6626
        40        2.0000           -0.6021079             -16.3842
        41        2.0000           -0.5746926             -15.6382
        42        2.0000           -0.5652653             -15.3817
        43        2.0000           -0.5599402             -15.2367 (HOMO)
        44                         -0.4432282             -12.0609 (LUMO)
        45                         -0.3993351             -10.8665
        46                         -0.2353716              -6.4048
        47                         -0.1933076              -5.2602
        48                         -0.1652601              -4.4970
        49                         -0.1495268              -4.0688
        50                         -0.1098046              -2.9879
        51                         -0.0831223              -2.2619
        52                         -0.0785584              -2.1377
        53                         -0.0672844              -1.8309
        54                         -0.0559201              -1.5217
       ...                                ...                  ...
        73                          0.4388456              11.9416
      -------------------------------------------------------------
                  HL-Gap            0.1167120 Eh            3.1759 eV

     #   Z          covCN         q      C6AA      α(0)
     1   6 C        3.752    -0.117    22.804     6.810
     2   6 C        3.800    -0.063    21.719     6.635
     3   6 C        3.802    -0.074    21.906     6.664
     4   6 C        3.743    -0.035    21.270     6.579
     5   7 N        2.867     0.098    19.553     6.568
     6   6 C        3.077     0.001    27.917     8.663
     7   6 C        3.034     0.012    27.705     8.634
     8   7 N        2.885     0.017    20.953     6.799
     9   6 C        3.066     0.065    26.474     8.437
    10   6 C        3.459     0.385    16.749     6.167
    11   6 C        3.466     0.288    17.976     6.371
    12   9 F        0.788    -0.180    11.027     3.922
    13   9 F        0.788    -0.186    11.092     3.934
    14   9 F        0.790    -0.171    10.944     3.908
    15   9 F        0.790    -0.162    10.853     3.891
    16   1 H        0.925     0.030     2.590     2.517
    17   1 H        0.925     0.059     2.209     2.324
    18   1 H        0.925     0.057     2.229     2.335
    19   1 H        0.924     0.025     2.656     2.549
    20   1 H        0.924     0.068     2.109     2.271
    21   1 H        0.924     0.059     2.215     2.327
    22   1 H        0.925     0.087     1.912     2.162
    23   1 H        0.924     0.099     1.791     2.093
    24   1 H        0.924     0.101     1.778     2.085
    25   1 H        0.926     0.129     1.542     1.942
    26   1 H        0.926     0.134     1.507     1.920
    27   1 H        0.926     0.141     1.455     1.886
    28   1 H        0.923     0.133     1.511     1.922

Wiberg/Mayer (AO) data.
largest (>0.10) Wiberg bond orders for each atom

     #   Z sym  total        # sym  WBO       # sym  WBO       # sym  WBO
 ---------------------------------------------------------------------------
     1   6 C    3.992 --     2 C    1.021    18 H    0.985    17 H    0.984
                            16 H    0.984
     2   6 C    3.993 --     1 C    1.021     3 C    1.010    19 H    0.972
                            20 H    0.970
     3   6 C    3.980 --     2 C    1.010    21 H    0.974     4 C    0.973
                            22 H    0.963
     4   6 C    3.922 --     3 C    0.973     5 N    0.963    23 H    0.961
                            24 H    0.958
     5   7 N    3.738 --     9 C    1.409     6 C    1.217     4 C    0.963
     6   6 C    3.947 --     7 C    1.614     5 N    1.217    25 H    0.956
     7   6 C    3.933 --     6 C    1.614     8 N    1.188    26 H    0.956
                             9 C    0.104
     8   7 N    3.659 --     9 C    1.296     7 C    1.188    10 C    0.954
     9   6 C    3.937 --     5 N    1.409     8 N    1.296    27 H    0.947
                             7 C    0.104
    10   6 C    3.889 --    15 F    0.983    14 F    0.972     8 N    0.954
                            11 C    0.903
    11   6 C    3.864 --    12 F    0.981    13 F    0.974    28 H    0.932
                            10 C    0.903
    12   9 F    1.084 --    11 C    0.981
    13   9 F    1.077 --    11 C    0.974
    14   9 F    1.097 --    10 C    0.972
    15   9 F    1.109 --    10 C    0.983
    16   1 H    0.999 --     1 C    0.984
    17   1 H    0.996 --     1 C    0.984
    18   1 H    0.997 --     1 C    0.985
    19   1 H    0.999 --     2 C    0.972
    20   1 H    0.995 --     2 C    0.970
    21   1 H    0.997 --     3 C    0.974
    22   1 H    0.991 --     3 C    0.963
    23   1 H    0.990 --     4 C    0.961
    24   1 H    0.989 --     4 C    0.958
    25   1 H    0.983 --     6 C    0.956
    26   1 H    0.982 --     7 C    0.956
    27   1 H    0.980 --     9 C    0.947
    28   1 H    0.981 --    11 C    0.932
 ---------------------------------------------------------------------------

molecular dipole:
                 x           y           z       tot (Debye)
 q only:       -2.823      -3.372       3.224
   full:       -3.038      -3.252       3.281      14.053

           -------------------------------------------------
          | TOTAL ENERGY              -50.285847654211 Eh   |
          | GRADIENT NORM               0.000498058847 Eh/α |
          | HOMO-LUMO GAP               3.175895904907 eV   |
           -------------------------------------------------

 * finished run on 2024/12/20 at 02:05:15.353
