   * xtb version 6.7.1 (edcfbbe) compiled by 'conda@3ef47c1a292c' on 2024-11-25

   ID    Z sym.   atoms
    1    8 O      1
    2    6 C      2-9, 11, 13-34
    3    7 N      10, 12
    4    1 H      35-61

          program call               : xtb C0089.xyz --opt --namespace C0089 --charge +1
          :  Hamiltonian                  GFN2-xTB          :
 * total energy  :   -89.6399612 Eh     change       -0.5460791E-08 Eh
 * total energy  :   -89.6546419 Eh     change       -0.1468066E-01 Eh
 * total energy  :   -89.6600419 Eh     change       -0.5399958E-02 Eh
 * total energy  :   -89.6611965 Eh     change       -0.1154605E-02 Eh
 * total energy  :   -89.6614931 Eh     change       -0.2965986E-03 Eh
 * total energy  :   -89.6616409 Eh     change       -0.1478488E-03 Eh
 * total energy  :   -89.6617546 Eh     change       -0.1136807E-03 Eh
 * total energy  :   -89.6618677 Eh     change       -0.1131348E-03 Eh
 * total energy  :   -89.6619889 Eh     change       -0.1211687E-03 Eh
 * total energy  :   -89.6621151 Eh     change       -0.1262223E-03 Eh
 * total energy  :   -89.6717796 Eh     change       -0.1392592E-04 Eh
 * total energy  :   -89.6717943 Eh     change       -0.1476617E-04 Eh
 * total energy  :   -89.6718098 Eh     change       -0.1549715E-04 Eh
 * total energy  :   -89.6718212 Eh     change       -0.1139662E-04 Eh
 * total energy  :   -89.6718283 Eh     change       -0.7085871E-05 Eh
 * total energy  :   -89.6718365 Eh     change       -0.8193218E-05 Eh
 * total energy  :   -89.6718401 Eh     change       -0.3589306E-05 Eh
 * total energy  :   -89.6718447 Eh     change       -0.4580933E-05 Eh
 * total energy  :   -89.6718477 Eh     change       -0.3040308E-05 Eh
   *** GEOMETRY OPTIMIZATION CONVERGED AFTER 68 ITERATIONS ***

 final structure:
================
61
 xtb: 6.7.1 (edcfbbe)
O            3.34904174482597       -0.61617118467808        2.17917732190871
C            3.20120512642132       -0.13567340671653        1.07900866455259
C            3.47754161167302        1.25937461924663        0.74262694886577
C            3.23419600579364        1.81525712835794       -0.51799444379622
C            3.51465240610971        3.14733408066883       -0.74951182930981
C            4.03901627586016        3.94135664627579        0.26093860879735
C            4.28261896535927        3.40104647033573        1.51465525664586
C            4.00369440029615        2.07139698025769        1.75539468040624
C            2.66753209550065       -1.04444290873660       -0.05912127609206
N            2.62023334637625       -2.39958583958567        0.41182418715971
C            1.90061244493356       -2.79835320471036        1.46237528683798
N            2.16998954336556       -4.07023816099280        1.72951795584465
C            3.10652917737383       -4.49308054752517        0.83381831485836
C            3.40647893502209       -3.44954287287531        0.00715064202033
C            4.36316230893711       -3.37771977050959       -1.12135208270049
C            1.53415812616727       -4.82976782192003        2.82056889586881
C            2.15363518873492       -4.44165028046960        4.16324350687096
C            1.94123981910952       -5.29889484405609        5.24174819965993
C            2.45781459369500       -5.00311695084253        6.48877844060931
C            3.19821993561565       -3.84790058311314        6.67877569352470
C            3.41050420243292       -2.99322541609822        5.61340948265619
C            2.89037151962863       -3.28354580583918        4.36131796682734
C            0.04760923852642       -4.48097176783249        2.76834698300858
C           -0.68108484054766       -4.15710729833019        3.90329522644582
C           -2.03038923838111       -3.85552532706763        3.80758551048837
C           -2.66776788841940       -3.87174186370331        2.58050299006095
C           -1.94769468720332       -4.19248219867100        1.44132932182120
C           -0.60173346605550       -4.49357409026903        1.53392199448082
C            1.79195001680042       -6.31878661053371        2.59118184441859
C            0.79887782921096       -7.20204354453400        2.19404498395344
C            1.08961049023296       -8.54468000625542        2.00953254903251
C            2.37096139597064       -9.02004335329924        2.21956309422390
C            3.36594374707742       -8.14660828518619        2.62819071042338
C            3.07827648322269       -6.80814834838352        2.81725946223004
H            2.81960382505510        1.22216581724301       -1.31812076110004
H            3.32383060132356        3.57223776714944       -1.72285343712195
H            4.25567708615258        4.98080614468369        0.06887879175959
H            4.68713705757281        4.01799704028027        2.30164151978002
H            4.18440732856201        1.63194324602277        2.72460476220113
H            1.66347224719223       -0.70343923260232       -0.32789093591117
H            3.31791488024610       -0.98548023456662       -0.93089701322436
H            1.18892379662342       -2.19223431440068        1.98670502525754
H            3.49004572121732       -5.49185917074481        0.82819056862099
H            3.86092701129380       -3.09669763734669       -2.04639497353973
H            5.14944855314944       -2.65084076147067       -0.91894879061418
H            4.82565332674696       -4.34960089528376       -1.26375594547815
H            1.36651552815376       -6.20235433824113        5.10067336710034
H            2.28150512743529       -5.67824124995404        7.31169470273138
H            3.60553136548084       -3.61726058511629        7.65065972020689
H            3.98407166532247       -2.08908122889473        5.74623491420906
H            3.08053293230771       -2.58634311228232        3.56019695818564
H           -0.20338131813241       -4.13661788788149        4.86971106429412
H           -2.58143602970630       -3.60755973356176        4.70129091602172
H           -3.71872708415617       -3.63947004297436        2.50949459907479
H           -2.43516463469073       -4.21528712351148        0.47858558855176
H           -0.05562342097228       -4.75427174242757        0.63682559010980
H           -0.21196841639012       -6.85843806117114        2.04108567957409
H            0.30411616727941       -9.21887804975684        1.70518538328488
H            2.59281472493268      -10.06602633442807        2.07704118044650
H            4.36643150551382       -8.50855060410212        2.80867694046344
H            3.85453359877934       -6.13867130696873        3.16126949239430

          :  Hamiltonian                  GFN2-xTB          :
         :: total energy             -89.671847724627 Eh    ::
         :: gradient norm              0.000389041044 Eh/a0 ::
         :: HOMO-LUMO gap              2.420622602666 eV    ::
         :: SCC energy               -91.268889552482 Eh    ::
         :: -> dispersion             -0.078202925655 Eh    ::
         :: repulsion energy           1.597041827854 Eh    ::

    * Orbital Energies and Occupations

         #    Occupation            Energy/Eh            Energy/eV
      -------------------------------------------------------------
         1        2.0000           -0.8592117             -23.3803
       ...           ...                  ...                  ...
        71        2.0000           -0.5219032             -14.2017
        72        2.0000           -0.5214024             -14.1881
        73        2.0000           -0.5205731             -14.1655
        74        2.0000           -0.5174862             -14.0815
        75        2.0000           -0.5173592             -14.0781
        76        2.0000           -0.5118754             -13.9288
        77        2.0000           -0.5109324             -13.9032
        78        2.0000           -0.5045145             -13.7285
        79        2.0000           -0.5024790             -13.6731
        80        2.0000           -0.5012191             -13.6389
        81        2.0000           -0.4994403             -13.5905
        82        2.0000           -0.4953028             -13.4779
        83        2.0000           -0.4898490             -13.3295 (HOMO)
        84                         -0.4008928             -10.9088 (LUMO)
        85                         -0.3722368             -10.1291
        86                         -0.3339421              -9.0870
        87                         -0.3336769              -9.0798
        88                         -0.3312561              -9.0139
        89                         -0.3240138              -8.8169
        90                         -0.3229031              -8.7866
        91                         -0.3200232              -8.7083
        92                         -0.3175788              -8.6418
        93                         -0.3127788              -8.5111
        94                         -0.3052893              -8.3073
       ...                                ...                  ...
       163                          0.5770344              15.7019
      -------------------------------------------------------------
                  HL-Gap            0.0889562 Eh            2.4206 eV

     #   Z          covCN         q      C6AA      α(0)
     1   8 O        0.857    -0.360    20.902     6.130
     2   6 C        2.822     0.227    23.241     7.899
     3   6 C        2.970    -0.018    28.466     8.752
     4   6 C        2.919    -0.028    28.688     8.783
     5   6 C        2.917    -0.020    28.501     8.755
     6   6 C        2.920    -0.008    28.215     8.711
     7   6 C        2.916    -0.018    28.467     8.749
     8   6 C        2.927    -0.010    28.258     8.718
     9   6 C        3.743    -0.045    21.454     6.608
    10   7 N        2.873     0.043    20.493     6.723
    11   6 C        3.088     0.066    26.419     8.425
    12   7 N        2.864     0.047    20.416     6.711
    13   6 C        3.080    -0.021    28.433     8.742
    14   6 C        3.091     0.047    26.836     8.491
    15   6 C        3.754    -0.125    22.951     6.831
    16   6 C        3.853     0.052    19.663     6.307
    17   6 C        2.976    -0.001    28.044     8.687
    18   6 C        2.925    -0.030    28.760     8.795
    19   6 C        2.920    -0.025    28.617     8.772
    20   6 C        2.919    -0.024    28.603     8.770
    21   6 C        2.921    -0.024    28.595     8.769
    22   6 C        2.921    -0.044    29.095     8.845
    23   6 C        2.975    -0.005    28.147     8.702
    24   6 C        2.922    -0.034    28.835     8.806
    25   6 C        2.920    -0.023    28.590     8.768
    26   6 C        2.919    -0.024    28.600     8.770
    27   6 C        2.919    -0.028    28.696     8.784
    28   6 C        2.924    -0.041    29.021     8.834
    29   6 C        2.976    -0.001    28.047     8.687
    30   6 C        2.921    -0.035    28.860     8.810
    31   6 C        2.920    -0.024    28.611     8.772
    32   6 C        2.919    -0.023    28.574     8.766
    33   6 C        2.919    -0.027    28.664     8.780
    34   6 C        2.924    -0.037    28.925     8.820
    35   1 H        0.926     0.041     2.442     2.444
    36   1 H        0.926     0.060     2.205     2.322
    37   1 H        0.926     0.065     2.136     2.286
    38   1 H        0.926     0.064     2.152     2.294
    39   1 H        0.926     0.073     2.058     2.243
    40   1 H        0.924     0.092     1.859     2.132
    41   1 H        0.925     0.099     1.791     2.093
    42   1 H        0.926     0.105     1.738     2.061
    43   1 H        0.927     0.096     1.821     2.110
    44   1 H        0.925     0.078     2.000     2.211
    45   1 H        0.925     0.081     1.973     2.196
    46   1 H        0.925     0.085     1.931     2.173
    47   1 H        0.926     0.040     2.454     2.450
    48   1 H        0.926     0.050     2.322     2.383
    49   1 H        0.926     0.051     2.310     2.377
    50   1 H        0.926     0.048     2.341     2.393
    51   1 H        0.926     0.042     2.428     2.437
    52   1 H        0.926     0.048     2.345     2.395
    53   1 H        0.926     0.053     2.287     2.365
    54   1 H        0.926     0.053     2.288     2.365
    55   1 H        0.926     0.045     2.378     2.411
    56   1 H        0.925     0.022     2.707     2.573
    57   1 H        0.926     0.044     2.397     2.421
    58   1 H        0.926     0.051     2.312     2.378
    59   1 H        0.926     0.053     2.287     2.365
    60   1 H        0.926     0.048     2.343     2.394
    61   1 H        0.925     0.035     2.521     2.483

Wiberg/Mayer (AO) data.
largest (>0.10) Wiberg bond orders for each atom

     #   Z sym  total        # sym  WBO       # sym  WBO       # sym  WBO
 ---------------------------------------------------------------------------
     1   8 O    2.092 --     2 C    1.806
     2   6 C    3.930 --     1 O    1.806     3 C    1.075     9 C    0.930
     3   6 C    3.983 --     4 C    1.355     8 C    1.353     2 C    1.075
     4   6 C    3.991 --     5 C    1.472     3 C    1.355    35 H    0.967
                             7 C    0.103
     5   6 C    3.990 --     4 C    1.472     6 C    1.418    36 H    0.968
     6   6 C    3.986 --     7 C    1.428     5 C    1.418    37 H    0.968
     7   6 C    3.989 --     8 C    1.463     6 C    1.428    38 H    0.967
                             4 C    0.103
     8   6 C    3.984 --     7 C    1.463     3 C    1.353    39 H    0.964
     9   6 C    3.952 --    10 N    0.994    41 H    0.952    40 H    0.945
                             2 C    0.930
    10   7 N    3.684 --    11 C    1.331    14 C    1.180     9 C    0.994
    11   6 C    3.947 --    12 N    1.371    10 N    1.331    42 H    0.955
    12   7 N    3.700 --    11 C    1.371    13 C    1.215    16 C    0.915
    13   6 C    3.945 --    14 C    1.557    12 N    1.215    43 H    0.957
    14   6 C    3.949 --    13 C    1.557    10 N    1.180    15 C    1.040
    15   6 C    3.985 --    14 C    1.040    46 H    0.976    44 H    0.962
                            45 H    0.961
    16   6 C    3.928 --    23 C    0.959    29 C    0.958    17 C    0.954
                            12 N    0.915
    17   6 C    3.979 --    22 C    1.429    18 C    1.394    16 C    0.954
                            20 C    0.109
    18   6 C    3.990 --    19 C    1.452    17 C    1.394    47 H    0.967
                            21 C    0.113
    19   6 C    3.989 --    18 C    1.452    20 C    1.430    48 H    0.969
                            22 C    0.109
    20   6 C    3.989 --    21 C    1.449    19 C    1.430    49 H    0.969
                            17 C    0.109
    21   6 C    3.990 --    20 C    1.449    22 C    1.429    50 H    0.970
                            18 C    0.113
    22   6 C    3.990 --    21 C    1.429    17 C    1.429    51 H    0.959
                            19 C    0.109
    23   6 C    3.981 --    24 C    1.427    28 C    1.396    16 C    0.959
                            26 C    0.110
    24   6 C    3.990 --    25 C    1.432    23 C    1.427    52 H    0.962
                            27 C    0.108
    25   6 C    3.990 --    26 C    1.448    24 C    1.432    53 H    0.969
                            28 C    0.112
    26   6 C    3.989 --    25 C    1.448    27 C    1.430    54 H    0.970
                            23 C    0.110
    27   6 C    3.990 --    28 C    1.452    26 C    1.430    55 H    0.970
                            24 C    0.108
    28   6 C    3.991 --    27 C    1.452    23 C    1.396    56 H    0.969
                            25 C    0.112
    29   6 C    3.980 --    30 C    1.428    34 C    1.396    16 C    0.958
                            32 C    0.110
    30   6 C    3.990 --    31 C    1.431    29 C    1.428    57 H    0.962
                            33 C    0.108
    31   6 C    3.990 --    32 C    1.449    30 C    1.431    58 H    0.969
                            34 C    0.112
    32   6 C    3.989 --    31 C    1.449    33 C    1.429    59 H    0.970
                            29 C    0.110
    33   6 C    3.990 --    34 C    1.453    32 C    1.429    60 H    0.969
                            30 C    0.108
    34   6 C    3.991 --    33 C    1.453    29 C    1.396    61 H    0.967
                            31 C    0.112
    35   1 H    0.998 --     4 C    0.967
    36   1 H    0.996 --     5 C    0.968
    37   1 H    0.995 --     6 C    0.968
    38   1 H    0.995 --     7 C    0.967
    39   1 H    0.995 --     8 C    0.964
    40   1 H    0.991 --     9 C    0.945
    41   1 H    0.990 --     9 C    0.952
    42   1 H    0.989 --    11 C    0.955
    43   1 H    0.991 --    13 C    0.957
    44   1 H    0.994 --    15 C    0.962
    45   1 H    0.993 --    15 C    0.961
    46   1 H    0.992 --    15 C    0.976
    47   1 H    0.998 --    18 C    0.967
    48   1 H    0.996 --    19 C    0.969
    49   1 H    0.996 --    20 C    0.969
    50   1 H    0.997 --    21 C    0.970
    51   1 H    0.998 --    22 C    0.959
    52   1 H    0.998 --    24 C    0.962
    53   1 H    0.997 --    25 C    0.969
    54   1 H    0.997 --    26 C    0.970
    55   1 H    0.997 --    27 C    0.970
    56   1 H    0.999 --    28 C    0.969
    57   1 H    0.998 --    30 C    0.962
    58   1 H    0.997 --    31 C    0.969
    59   1 H    0.997 --    32 C    0.970
    60   1 H    0.997 --    33 C    0.969
    61   1 H    0.999 --    34 C    0.967
 ---------------------------------------------------------------------------

molecular dipole:
                 x           y           z       tot (Debye)
 q only:        4.652      -4.741       1.732
   full:        4.539      -4.667       1.556      17.013

           -------------------------------------------------
          | TOTAL ENERGY              -89.671847724627 Eh   |
          | GRADIENT NORM               0.000389041044 Eh/α |
          | HOMO-LUMO GAP               2.420622602666 eV   |
           -------------------------------------------------

 * finished run on 2024/12/20 at 02:05:34.823
