   * xtb version 6.7.1 (edcfbbe) compiled by 'conda@3ef47c1a292c' on 2024-11-25

   ID    Z sym.   atoms
    1    6 C      1-13, 15-19
    2    7 N      14
    3    1 H      20-51

          program call               : xtb C0082.xyz --opt --namespace C0082 --charge +1
          :  Hamiltonian                  GFN2-xTB          :
 * total energy  :   -57.3981155 Eh     change       -0.3699047E-07 Eh
 * total energy  :   -57.4009481 Eh     change       -0.2832558E-02 Eh
 * total energy  :   -57.4014052 Eh     change       -0.4570620E-03 Eh
 * total energy  :   -57.4014966 Eh     change       -0.9142149E-04 Eh
 * total energy  :   -57.4016193 Eh     change       -0.1226971E-03 Eh
 * total energy  :   -57.4017085 Eh     change       -0.8918365E-04 Eh
 * total energy  :   -57.4018182 Eh     change       -0.1097561E-03 Eh
 * total energy  :   -57.4018995 Eh     change       -0.8124484E-04 Eh
 * total energy  :   -57.4019285 Eh     change       -0.2908948E-04 Eh
 * total energy  :   -57.4019494 Eh     change       -0.2081297E-04 Eh
 * total energy  :   -57.4019681 Eh     change       -0.1870759E-04 Eh
 * total energy  :   -57.4019934 Eh     change       -0.2536348E-04 Eh
 * total energy  :   -57.4020101 Eh     change       -0.1663683E-04 Eh
 * total energy  :   -57.4020196 Eh     change       -0.9521502E-05 Eh
 * total energy  :   -57.4020266 Eh     change       -0.7033915E-05 Eh
 * total energy  :   -57.4020319 Eh     change       -0.5258520E-05 Eh
 * total energy  :   -57.4020366 Eh     change       -0.4744293E-05 Eh
   *** GEOMETRY OPTIMIZATION CONVERGED AFTER 17 ITERATIONS ***

 final structure:
================
51
 xtb: 6.7.1 (edcfbbe)
C            1.00069563002339        0.49250748159394       -0.17727926645773
C            0.89194058844472       -0.45119222014177       -1.36864885322542
C            1.27047152405415       -1.89440567587336       -1.03283218513751
C            0.38414480232473       -2.56827180138226        0.01717190770151
C           -1.10272181173946       -2.63423648918144       -0.33622454200250
C           -1.42663254766234       -3.37677333287810       -1.63397074204454
C           -0.97882959321572       -4.83935767377162       -1.67025015055485
C           -1.57360743127595       -5.72500127120752       -0.57316928362220
C           -3.10246488861537       -5.78113279372217       -0.54658558071508
C           -3.75490721231406       -6.24973774696671       -1.84970693602889
C           -3.31992930614860       -7.63900321373810       -2.32386555086602
C           -3.64420272769329       -8.77819004689393       -1.35883014421710
C           -5.14814526799714       -9.04117989017555       -1.18304427941430
N           -5.72457211442319       -9.53563934339125       -2.41898032740463
C           -5.66033155109852      -10.84301701856485       -2.69985918054711
C           -6.12251373904110      -11.34075605702028       -3.89922835624950
C           -6.65630470151030      -10.46537284299027       -4.83795674917565
C           -6.71094437165226       -9.11288568020105       -4.53007909893614
C           -6.23613473387115       -8.67795927066973       -3.30894422369202
H            0.27732766481811        0.23830419333130        0.59343228433610
H            0.81349273374200        1.51695695153365       -0.49060482653708
H            1.99715828935776        0.44462867902321        0.25634871517009
H           -0.12243916546351       -0.41579549959766       -1.77041219014917
H            1.56324689854018       -0.10083874380001       -2.15653890761499
H            1.25470477124099       -2.48325652780452       -1.95273120138924
H            2.29794026291104       -1.90518082459721       -0.66071675231857
H            0.76235893277940       -3.57916015070985        0.18566174850494
H            0.48349703317175       -2.03175221371059        0.96243800198729
H           -1.63104460174981       -3.10745473298758        0.49479487364222
H           -1.49386728315778       -1.61898637403034       -0.42222550010462
H           -2.50531931939482       -3.32122658591113       -1.80043521037008
H           -0.95100139630239       -2.85840749598543       -2.46827676898877
H           -1.23078444020807       -5.25172655730044       -2.65070873368768
H            0.10772607863269       -4.88030613529605       -1.58138306579597
H           -1.17020805208633       -6.73424814688557       -0.68758860390123
H           -1.23704943347475       -5.36030195876233        0.39807055018417
H           -3.41113304874539       -6.43057379709293        0.27663045832212
H           -3.48851527200165       -4.78608879769848       -0.32218784256079
H           -4.84020943154063       -6.21324920088726       -1.71680370886264
H           -3.51117309658762       -5.53872045640052       -2.63943991164127
H           -3.76895046012343       -7.84093424049986       -3.30205757790784
H           -2.24065366367002       -7.63002204897462       -2.47351073432493
H           -3.16290877813147       -9.69462144033885       -1.70757562537955
H           -3.23663987492213       -8.54559035505869       -0.37600514236020
H           -5.29945415398495       -9.78647454901961       -0.40025758696998
H           -5.65434539023879       -8.12019136641514       -0.89283439636012
H           -5.23559058362906      -11.48906530219983       -1.94554273751879
H           -6.06535542930938      -12.39922722764591       -4.09533884658408
H           -7.02241144060717      -10.83013535423251       -5.78448707170219
H           -7.11814993518230       -8.39873628785961       -5.22766656136567
H           -6.27406896126588       -7.63578256501338       -3.02919358516093

          :  Hamiltonian                  GFN2-xTB          :
         :: total energy             -57.402036626314 Eh    ::
         :: gradient norm              0.000442968448 Eh/a0 ::
         :: HOMO-LUMO gap              0.275181410682 eV    ::
         :: SCC energy               -58.307131230811 Eh    ::
         :: -> dispersion             -0.042894856322 Eh    ::
         :: repulsion energy           0.905094604497 Eh    ::

    * Orbital Energies and Occupations

         #    Occupation            Energy/Eh            Energy/eV
      -------------------------------------------------------------
         1        2.0000           -0.8777885             -23.8858
       ...           ...                  ...                  ...
        42        2.0000           -0.5397031             -14.6861
        43        2.0000           -0.5340996             -14.5336
        44        2.0000           -0.5269417             -14.3388
        45        2.0000           -0.5236128             -14.2482
        46        2.0000           -0.5138872             -13.9836
        47        2.0000           -0.5095114             -13.8645
        48        2.0000           -0.5034128             -13.6986
        49        2.0000           -0.4937185             -13.4348
        50        2.0000           -0.4903138             -13.3421
        51        2.0000           -0.4865218             -13.2389
        52        2.0000           -0.4730265             -12.8717
        53        1.9990           -0.4687529             -12.7554
        54        1.9908           -0.4666581             -12.6984 (HOMO)
        55        0.0102           -0.4565454             -12.4232 (LUMO)
        56                         -0.4263734             -11.6022
        57                         -0.3058434              -8.3224
        58                         -0.1666429              -4.5346
        59                         -0.0816949              -2.2230
        60                         -0.0637839              -1.7356
        61                         -0.0465281              -1.2661
        62                         -0.0368373              -1.0024
        63                         -0.0268925              -0.7318
        64                         -0.0137385              -0.3738
        65                         -0.0100605              -0.2738
       ...                                ...                  ...
       108                          0.4502175              12.2510
      -------------------------------------------------------------
                  HL-Gap            0.0101127 Eh            0.2752 eV

     #   Z          covCN         q      C6AA      α(0)
     1   6 C        3.751    -0.103    22.523     6.768
     2   6 C        3.799    -0.052    21.514     6.604
     3   6 C        3.800    -0.058    21.611     6.619
     4   6 C        3.800    -0.058    21.613     6.619
     5   6 C        3.800    -0.057    21.609     6.619
     6   6 C        3.800    -0.058    21.612     6.619
     7   6 C        3.800    -0.059    21.629     6.622
     8   6 C        3.800    -0.060    21.664     6.627
     9   6 C        3.800    -0.061    21.682     6.630
    10   6 C        3.800    -0.061    21.682     6.630
    11   6 C        3.800    -0.066    21.770     6.643
    12   6 C        3.801    -0.069    21.818     6.650
    13   6 C        3.759    -0.037    21.275     6.576
    14   7 N        2.750     0.114    19.291     6.523
    15   6 C        2.893     0.032    27.288     8.565
    16   6 C        2.916    -0.010    28.276     8.720
    17   6 C        2.925     0.012    27.739     8.637
    18   6 C        2.916    -0.011    28.296     8.723
    19   6 C        2.892     0.034    27.249     8.559
    20   1 H        0.925     0.035     2.520     2.482
    21   1 H        0.925     0.034     2.528     2.487
    22   1 H        0.925     0.036     2.499     2.472
    23   1 H        0.924     0.030     2.585     2.514
    24   1 H        0.924     0.030     2.586     2.515
    25   1 H        0.924     0.027     2.625     2.534
    26   1 H        0.924     0.032     2.554     2.499
    27   1 H        0.924     0.027     2.625     2.534
    28   1 H        0.924     0.036     2.505     2.475
    29   1 H        0.924     0.026     2.643     2.542
    30   1 H        0.924     0.036     2.504     2.474
    31   1 H        0.924     0.023     2.683     2.561
    32   1 H        0.924     0.037     2.490     2.468
    33   1 H        0.924     0.022     2.697     2.568
    34   1 H        0.924     0.040     2.452     2.449
    35   1 H        0.924     0.024     2.669     2.555
    36   1 H        0.924     0.044     2.399     2.422
    37   1 H        0.924     0.025     2.664     2.552
    38   1 H        0.924     0.047     2.355     2.400
    39   1 H        0.924     0.016     2.790     2.612
    40   1 H        0.924     0.052     2.301     2.372
    41   1 H        0.924     0.022     2.705     2.572
    42   1 H        0.925     0.068     2.108     2.270
    43   1 H        0.924     0.051     2.314     2.379
    44   1 H        0.925     0.085     1.926     2.170
    45   1 H        0.924     0.088     1.898     2.155
    46   1 H        0.924     0.096     1.819     2.109
    47   1 H        0.926     0.108     1.717     2.049
    48   1 H        0.926     0.107     1.723     2.053
    49   1 H        0.926     0.106     1.732     2.058
    50   1 H        0.926     0.107     1.727     2.055
    51   1 H        0.926     0.112     1.681     2.028

Wiberg/Mayer (AO) data.
largest (>0.10) Wiberg bond orders for each atom

     #   Z sym  total        # sym  WBO       # sym  WBO       # sym  WBO
 ---------------------------------------------------------------------------
     1   6 C    3.995 --     2 C    1.020    21 H    0.987    22 H    0.987
                            20 H    0.985
     2   6 C    3.995 --     1 C    1.020     3 C    1.008    24 H    0.977
                            23 H    0.975
     3   6 C    3.995 --     2 C    1.008     4 C    1.007    26 H    0.976
                            25 H    0.975
     4   6 C    3.995 --     5 C    1.008     3 C    1.007    27 H    0.975
                            28 H    0.974
     5   6 C    3.996 --     4 C    1.008     6 C    1.007    29 H    0.975
                            30 H    0.974
     6   6 C    3.996 --     7 C    1.008     5 C    1.007    31 H    0.975
                            32 H    0.974
     7   6 C    3.996 --     6 C    1.008     8 C    1.007    33 H    0.975
                            34 H    0.974
     8   6 C    3.996 --     9 C    1.007     7 C    1.007    35 H    0.975
                            36 H    0.973
     9   6 C    3.995 --     8 C    1.007    10 C    1.006    37 H    0.974
                            38 H    0.973
    10   6 C    3.995 --    11 C    1.007     9 C    1.006    40 H    0.972
                            39 H    0.972
    11   6 C    3.992 --    12 C    1.010    10 C    1.007    41 H    0.971
                            42 H    0.965
    12   6 C    3.980 --    11 C    1.010    43 H    0.974    13 C    0.970
                            44 H    0.959
    13   6 C    3.932 --    12 C    0.970    14 N    0.965    45 H    0.963
                            46 H    0.959
    14   7 N    3.763 --    19 C    1.325    15 C    1.321    13 C    0.965
    15   6 C    3.955 --    16 C    1.469    14 N    1.321    47 H    0.955
    16   6 C    3.980 --    15 C    1.469    17 C    1.415    48 H    0.959
    17   6 C    3.963 --    18 C    1.426    16 C    1.415    49 H    0.962
    18   6 C    3.981 --    19 C    1.456    17 C    1.426    50 H    0.959
    19   6 C    3.954 --    18 C    1.456    14 N    1.325    51 H    0.951
    20   1 H    0.998 --     1 C    0.985
    21   1 H    0.999 --     1 C    0.987
    22   1 H    0.998 --     1 C    0.987
    23   1 H    0.998 --     2 C    0.975
    24   1 H    0.997 --     2 C    0.977
    25   1 H    0.999 --     3 C    0.975
    26   1 H    0.998 --     3 C    0.976
    27   1 H    0.999 --     4 C    0.975
    28   1 H    0.998 --     4 C    0.974
    29   1 H    0.999 --     5 C    0.975
    30   1 H    0.998 --     5 C    0.974
    31   1 H    0.999 --     6 C    0.975
    32   1 H    0.998 --     6 C    0.974
    33   1 H    0.999 --     7 C    0.975
    34   1 H    0.998 --     7 C    0.974
    35   1 H    0.999 --     8 C    0.975
    36   1 H    0.998 --     8 C    0.973
    37   1 H    0.999 --     9 C    0.974
    38   1 H    0.998 --     9 C    0.973
    39   1 H    1.000 --    10 C    0.972
    40   1 H    0.997 --    10 C    0.972
    41   1 H    1.000 --    11 C    0.971
    42   1 H    0.994 --    11 C    0.965
    43   1 H    0.997 --    12 C    0.974
    44   1 H    0.991 --    12 C    0.959
    45   1 H    0.992 --    13 C    0.963
    46   1 H    0.990 --    13 C    0.959
    47   1 H    0.988 --    15 C    0.955
    48   1 H    0.988 --    16 C    0.959
    49   1 H    0.989 --    17 C    0.962
    50   1 H    0.988 --    18 C    0.959
    51   1 H    0.987 --    19 C    0.951
 ---------------------------------------------------------------------------

molecular dipole:
                 x           y           z       tot (Debye)
 q only:      -10.302     -17.568      -5.316
   full:      -10.393     -17.664      -5.318      53.818

           -------------------------------------------------
          | TOTAL ENERGY              -57.402036626314 Eh   |
          | GRADIENT NORM               0.000442968448 Eh/α |
          | HOMO-LUMO GAP               0.275181410682 eV   |
           -------------------------------------------------

 * finished run on 2024/12/20 at 02:05:10.976
