   * xtb version 6.7.1 (edcfbbe) compiled by 'conda@3ef47c1a292c' on 2024-11-25

   ID    Z sym.   atoms
    1    6 C      1, 2, 4, 6, 8-12
    2    8 O      3, 5
    3    7 N      7
    4    1 H      13-32

          program call               : xtb C0080.xyz --opt --namespace C0080 --charge +1
          :  Hamiltonian                  GFN2-xTB          :
 * total energy  :   -40.1226257 Eh     change       -0.6367955E-09 Eh
 * total energy  :   -40.1328079 Eh     change       -0.1018223E-01 Eh
 * total energy  :   -40.1352872 Eh     change       -0.2479286E-02 Eh
 * total energy  :   -40.1356083 Eh     change       -0.3211619E-03 Eh
 * total energy  :   -40.1356958 Eh     change       -0.8743160E-04 Eh
 * total energy  :   -40.1357654 Eh     change       -0.6967110E-04 Eh
 * total energy  :   -40.1358194 Eh     change       -0.5399763E-04 Eh
 * total energy  :   -40.1358874 Eh     change       -0.6791497E-04 Eh
 * total energy  :   -40.1359773 Eh     change       -0.8997084E-04 Eh
 * total energy  :   -40.1360750 Eh     change       -0.9768523E-04 Eh
 * total energy  :   -40.1421153 Eh     change       -0.9354294E-05 Eh
 * total energy  :   -40.1421294 Eh     change       -0.1410976E-04 Eh
 * total energy  :   -40.1421406 Eh     change       -0.1116547E-04 Eh
 * total energy  :   -40.1421496 Eh     change       -0.8980557E-05 Eh
 * total energy  :   -40.1421580 Eh     change       -0.8469555E-05 Eh
 * total energy  :   -40.1421660 Eh     change       -0.7975745E-05 Eh
 * total energy  :   -40.1421730 Eh     change       -0.6928702E-05 Eh
 * total energy  :   -40.1421767 Eh     change       -0.3718258E-05 Eh
 * total energy  :   -40.1421807 Eh     change       -0.3982810E-05 Eh
   *** GEOMETRY OPTIMIZATION CONVERGED AFTER 94 ITERATIONS ***

 final structure:
================
32
 xtb: 6.7.1 (edcfbbe)
C           -0.14166771499430        1.38925296348993        0.67315524337570
C            1.37701366643212        1.38297412086694        0.70432262339667
O            1.92545502926105        2.17012666948030       -0.37621773470857
C            2.01958724745632        1.61008615187754       -1.55701636718865
O            1.69277463271555        0.49306634973715       -1.85475550400177
C            2.66855372173546        2.61074495077509       -2.53553473938559
N            2.45401814829572        2.30454602698559       -3.96803030103029
C            1.00159318797607        2.05545561444576       -4.26021911919991
C            0.03383264696169        3.09593875522225       -3.72003100530694
C            2.92281863637491        3.45208734596664       -4.80854093236193
C            4.36693056581556        3.88287718843131       -4.60452808454819
C            3.19942243972373        1.08056716481701       -4.33015900622360
H           -0.52006466912351        2.40818984664098        0.69654186746917
H           -0.51532650995157        0.85956560446081        1.54362041948870
H           -0.50895296742917        0.88813690877416       -0.21931863736679
H            1.75902352813031        1.86003794767855        1.60700790992372
H            1.76160752563100        0.36276502116810        0.62333219092967
H            2.29128474063961        3.60767799056404       -2.30349430506279
H            3.74056645503933        2.59597126196800       -2.32384308515531
H            0.90035926509042        1.98863347300049       -5.34486164438186
H            0.74680132021565        1.08454595999838       -3.83274290983924
H            0.23739265811736        4.09844954948444       -4.08626651052805
H           -0.96283869818705        2.82517705445261       -4.06014222634315
H            0.01134827439199        3.10962863545951       -2.63392430928284
H            2.78263910336322        3.16083630802309       -5.85145455136143
H            2.27237879632713        4.30249951553070       -4.60120202965166
H            5.07566571820799        3.08996528490634       -4.82341482415348
H            4.56843195282741        4.69324994291279       -5.30103898988130
H            4.55095870151975        4.26481265993289       -3.60476023397390
H            4.26282038922759        1.21576379967102       -4.15060219932219
H            2.84643493124515        0.24644894716859       -3.72601136520838
H            3.04348727695134        0.84902098613369       -5.38175963909466

          :  Hamiltonian                  GFN2-xTB          :
         :: total energy             -40.142180651305 Eh    ::
         :: gradient norm              0.000393961230 Eh/a0 ::
         :: HOMO-LUMO gap              4.907773179748 eV    ::
         :: SCC energy               -40.633210603525 Eh    ::
         :: -> dispersion             -0.023658961846 Eh    ::
         :: repulsion energy           0.491029952219 Eh    ::

    * Orbital Energies and Occupations

         #    Occupation            Energy/Eh            Energy/eV
      -------------------------------------------------------------
         1        2.0000           -0.8919827             -24.2721
       ...           ...                  ...                  ...
        24        2.0000           -0.6397387             -17.4082
        25        2.0000           -0.6380582             -17.3624
        26        2.0000           -0.6331776             -17.2296
        27        2.0000           -0.6277551             -17.0821
        28        2.0000           -0.6151223             -16.7383
        29        2.0000           -0.6143972             -16.7186
        30        2.0000           -0.6109386             -16.6245
        31        2.0000           -0.6067073             -16.5093
        32        2.0000           -0.5969236             -16.2431
        33        2.0000           -0.5803053             -15.7909
        34        2.0000           -0.5738203             -15.6144
        35        2.0000           -0.5666952             -15.4206
        36        2.0000           -0.5582169             -15.1899 (HOMO)
        37                         -0.3778596             -10.2821 (LUMO)
        38                         -0.2376181              -6.4659
        39                         -0.1823700              -4.9625
        40                         -0.1610997              -4.3837
        41                         -0.1485880              -4.0433
        42                         -0.1166168              -3.1733
        43                         -0.0587744              -1.5993
        44                         -0.0551397              -1.5004
        45                         -0.0462011              -1.2572
        46                         -0.0343361              -0.9343
        47                         -0.0116434              -0.3168
       ...                                ...                  ...
        68                          0.5213041              14.1854
      -------------------------------------------------------------
                  HL-Gap            0.1803573 Eh            4.9078 eV

     #   Z          covCN         q      C6AA      α(0)
     1   6 C        3.751    -0.122    22.898     6.824
     2   6 C        3.697     0.069    19.584     6.330
     3   8 O        1.703    -0.240    17.985     5.726
     4   6 C        2.711     0.363    20.848     7.474
     5   8 O        0.856    -0.396    21.601     6.231
     6   6 C        3.760    -0.067    21.829     6.661
     7   7 N        3.620     0.125    19.101     6.491
     8   6 C        3.760    -0.040    21.345     6.586
     9   6 C        3.751    -0.127    23.006     6.840
    10   6 C        3.758    -0.036    21.261     6.574
    11   6 C        3.751    -0.131    23.083     6.852
    12   6 C        3.719    -0.101    22.557     6.784
    13   1 H        0.925     0.063     2.167     2.302
    14   1 H        0.925     0.075     2.030     2.228
    15   1 H        0.925     0.063     2.163     2.300
    16   1 H        0.925     0.083     1.944     2.181
    17   1 H        0.924     0.074     2.045     2.236
    18   1 H        0.924     0.112     1.677     2.025
    19   1 H        0.924     0.113     1.670     2.021
    20   1 H        0.924     0.085     1.930     2.172
    21   1 H        0.924     0.109     1.707     2.043
    22   1 H        0.925     0.063     2.165     2.301
    23   1 H        0.925     0.089     1.889     2.150
    24   1 H        0.925     0.063     2.166     2.302
    25   1 H        0.924     0.088     1.897     2.154
    26   1 H        0.924     0.088     1.902     2.157
    27   1 H        0.925     0.068     2.106     2.269
    28   1 H        0.925     0.088     1.895     2.153
    29   1 H        0.925     0.066     2.135     2.285
    30   1 H        0.925     0.097     1.813     2.106
    31   1 H        0.925     0.122     1.599     1.978
    32   1 H        0.925     0.096     1.822     2.111

Wiberg/Mayer (AO) data.
largest (>0.10) Wiberg bond orders for each atom

     #   Z sym  total        # sym  WBO       # sym  WBO       # sym  WBO
 ---------------------------------------------------------------------------
     1   6 C    3.986 --     2 C    1.014    13 H    0.984    15 H    0.984
                            14 H    0.977
     2   6 C    3.894 --     1 C    1.014    17 H    0.969    16 H    0.969
                             3 O    0.901
     3   8 O    2.359 --     4 C    1.209     2 C    0.901     5 O    0.193
     4   6 C    3.937 --     5 O    1.734     3 O    1.209     6 C    0.936
     5   8 O    2.060 --     4 C    1.734     3 O    0.193
     6   6 C    3.943 --     7 N    0.957    18 H    0.956    19 H    0.944
                             4 C    0.936
     7   7 N    3.806 --     6 C    0.957    12 C    0.954    10 C    0.924
                             8 C    0.919
     8   6 C    3.925 --     9 C    1.025    20 H    0.968    21 H    0.960
                             7 N    0.919
     9   6 C    3.983 --     8 C    1.025    24 H    0.981    22 H    0.978
                            23 H    0.972
    10   6 C    3.932 --    11 C    1.023    25 H    0.967    26 H    0.963
                             7 N    0.924
    11   6 C    3.981 --    10 C    1.023    29 H    0.981    27 H    0.979
                            28 H    0.972
    12   6 C    3.918 --    32 H    0.976    30 H    0.971    31 H    0.964
                             7 N    0.954
    13   1 H    0.996 --     1 C    0.984
    14   1 H    0.994 --     1 C    0.977
    15   1 H    0.996 --     1 C    0.984
    16   1 H    0.993 --     2 C    0.969
    17   1 H    0.995 --     2 C    0.969
    18   1 H    0.987 --     6 C    0.956
    19   1 H    0.987 --     6 C    0.944
    20   1 H    0.993 --     8 C    0.968
    21   1 H    0.988 --     8 C    0.960
    22   1 H    0.996 --     9 C    0.978
    23   1 H    0.992 --     9 C    0.972
    24   1 H    0.996 --     9 C    0.981
    25   1 H    0.992 --    10 C    0.967
    26   1 H    0.992 --    10 C    0.963
    27   1 H    0.995 --    11 C    0.979
    28   1 H    0.992 --    11 C    0.972
    29   1 H    0.996 --    11 C    0.981
    30   1 H    0.990 --    12 C    0.971
    31   1 H    0.985 --    12 C    0.964
    32   1 H    0.991 --    12 C    0.976
 ---------------------------------------------------------------------------

molecular dipole:
                 x           y           z       tot (Debye)
 q only:        4.307       4.952      -6.453
   full:        4.432       5.052      -6.469      23.710

           -------------------------------------------------
          | TOTAL ENERGY              -40.142180651305 Eh   |
          | GRADIENT NORM               0.000393961230 Eh/α |
          | HOMO-LUMO GAP               4.907773179748 eV   |
           -------------------------------------------------

 * finished run on 2024/12/20 at 02:05:06.637
