   * xtb version 6.7.1 (edcfbbe) compiled by 'conda@3ef47c1a292c' on 2024-11-25

   ID    Z sym.   atoms
    1    6 C      1, 2, 4-6, 8, 9, 11-13
    2    7 N      3, 7
    3   14 Si     10
    4    1 H      14-34

          program call               : xtb C0085.xyz --opt --namespace C0085 --charge +1
          :  Hamiltonian                  GFN2-xTB          :
 * total energy  :   -39.3195996 Eh     change       -0.1130317E-08 Eh
 * total energy  :   -39.3263635 Eh     change       -0.6763925E-02 Eh
 * total energy  :   -39.3275190 Eh     change       -0.1155519E-02 Eh
 * total energy  :   -39.3277238 Eh     change       -0.2047230E-03 Eh
 * total energy  :   -39.3278735 Eh     change       -0.1497277E-03 Eh
 * total energy  :   -39.3279304 Eh     change       -0.5691133E-04 Eh
 * total energy  :   -39.3279778 Eh     change       -0.4737821E-04 Eh
 * total energy  :   -39.3280198 Eh     change       -0.4199474E-04 Eh
 * total energy  :   -39.3280773 Eh     change       -0.5752928E-04 Eh
 * total energy  :   -39.3281139 Eh     change       -0.3660315E-04 Eh
 * total energy  :   -39.3283258 Eh     change       -0.4933737E-04 Eh
 * total energy  :   -39.3283744 Eh     change       -0.4851221E-04 Eh
 * total energy  :   -39.3283873 Eh     change       -0.1292444E-04 Eh
 * total energy  :   -39.3284019 Eh     change       -0.1460373E-04 Eh
 * total energy  :   -39.3284076 Eh     change       -0.5765654E-05 Eh
 * total energy  :   -39.3284129 Eh     change       -0.5252677E-05 Eh
 * total energy  :   -39.3284196 Eh     change       -0.6689367E-05 Eh
 * total energy  :   -39.3284275 Eh     change       -0.7868859E-05 Eh
 * total energy  :   -39.3284322 Eh     change       -0.4695048E-05 Eh
   *** GEOMETRY OPTIMIZATION CONVERGED AFTER 22 ITERATIONS ***

 final structure:
================
34
 xtb: 6.7.1 (edcfbbe)
C           -0.75421401036878       -0.78747816801010       -0.03922618715090
C           -0.08209796468764       -0.86826677137682        1.27357781274676
N            0.41681673409862       -1.99969234248453        1.79280084573423
C            0.40292588868473       -3.29461123208298        1.16573882253297
C            0.94706072145177       -1.71918095972389        3.01790328305756
C            0.76644884096151       -0.39271714254757        3.23707475540552
N            0.13100538145567        0.12271469342154        2.14401023555328
C           -0.19246089325298        1.52736674743075        2.00476308637833
C            1.05949761572725        2.40037105500972        2.01138218171875
Si           2.29474109796882        2.17083206777340        0.53918400843661
C            1.34292961434560        2.45924554659247       -1.08558536959610
C            3.67440010398935        3.44600867157933        0.79320353261330
C            3.02272246839182        0.40108526553824        0.57934426755288
H           -1.44946609336587        0.04628369643987       -0.07449531172186
H           -1.30601189767582       -1.70355095145088       -0.23821068116820
H           -0.02375865436945       -0.65604168643204       -0.83893683461790
H           -0.62074373820696       -3.64955379320291        1.03676235884608
H            0.88696995666491       -3.25195562615300        0.18976983867791
H            0.93934033369749       -4.00101984583019        1.79452146763367
H            1.40375378962475       -2.46781907179057        3.63135963121736
H            1.03331704620779        0.20990570615158        4.07971260380845
H           -0.73797276941999        1.67571853745627        1.07428175536075
H           -0.84725998052944        1.79921852553476        2.83949048442756
H            0.71891919634496        3.43444237061991        2.00166199869162
H            1.58584887005745        2.26860088220445        2.95562819368503
H            0.91190148440143        3.45542296921277       -1.11116450391810
H            2.01273142524827        2.38038578170905       -1.93592839973979
H            0.53527835108389        1.75153190763448       -1.24801540916094
H            4.21130808715482        3.27739300168887        1.72213449250042
H            4.39991627985352        3.40094401879806       -0.01293764873624
H            3.28336364339953        4.45846257043188        0.82096326348988
H            3.25845178825721        0.07743051228622        1.58909722987547
H            2.36964487360738       -0.34220105264956        0.13150730542206
H            3.95013240920030        0.38165411621725        0.01638689044501

          :  Hamiltonian                  GFN2-xTB          :
         :: total energy             -39.328432155630 Eh    ::
         :: gradient norm              0.000435320034 Eh/a0 ::
         :: HOMO-LUMO gap              3.130696459590 eV    ::
         :: SCC energy               -39.931021676054 Eh    ::
         :: -> dispersion             -0.029732414336 Eh    ::
         :: repulsion energy           0.602589520423 Eh    ::

    * Orbital Energies and Occupations

         #    Occupation            Energy/Eh            Energy/eV
      -------------------------------------------------------------
         1        2.0000           -0.8809323             -23.9714
       ...           ...                  ...                  ...
        25        2.0000           -0.6066064             -16.5066
        26        2.0000           -0.5861495             -15.9499
        27        2.0000           -0.5819344             -15.8352
        28        2.0000           -0.5785898             -15.7442
        29        2.0000           -0.5741456             -15.6233
        30        2.0000           -0.5692711             -15.4907
        31        2.0000           -0.5642325             -15.3535
        32        2.0000           -0.5626826             -15.3114
        33        2.0000           -0.5554700             -15.1151
        34        2.0000           -0.5544661             -15.0878
        35        2.0000           -0.5096133             -13.8673
        36        2.0000           -0.5069213             -13.7940
        37        2.0000           -0.5032673             -13.6946 (HOMO)
        38                         -0.3882163             -10.5639 (LUMO)
        39                         -0.3555558              -9.6752
        40                         -0.2484331              -6.7602
        41                         -0.2447442              -6.6598
        42                         -0.2366614              -6.4399
        43                         -0.1764294              -4.8009
        44                         -0.1398881              -3.8065
        45                         -0.1285635              -3.4984
        46                         -0.1199792              -3.2648
        47                         -0.0602140              -1.6385
        48                         -0.0534656              -1.4549
       ...                                ...                  ...
        78                          0.4849724              13.1968
      -------------------------------------------------------------
                  HL-Gap            0.1150510 Eh            3.1307 eV

     #   Z          covCN         q      C6AA      α(0)
     1   6 C        3.754    -0.136    23.176     6.865
     2   6 C        3.105     0.104    25.564     8.285
     3   7 N        2.874     0.046    20.436     6.714
     4   6 C        3.692    -0.080    22.215     6.744
     5   6 C        3.046    -0.011    28.256     8.718
     6   6 C        3.060    -0.008    28.154     8.701
     7   7 N        2.869     0.042    20.498     6.724
     8   6 C        3.745    -0.022    21.029     6.541
     9   6 C        3.695    -0.182    24.262     7.047
    10  14 Si       3.495     0.488   101.083    19.466
    11   6 C        3.649    -0.215    25.159     7.206
    12   6 C        3.650    -0.214    25.121     7.199
    13   6 C        3.647    -0.213    25.107     7.200
    14   1 H        0.925     0.093     1.853     2.129
    15   1 H        0.925     0.096     1.820     2.110
    16   1 H        0.924     0.102     1.770     2.081
    17   1 H        0.924     0.094     1.837     2.120
    18   1 H        0.924     0.096     1.822     2.111
    19   1 H        0.925     0.102     1.766     2.078
    20   1 H        0.927     0.101     1.779     2.086
    21   1 H        0.927     0.103     1.762     2.076
    22   1 H        0.925     0.072     2.068     2.249
    23   1 H        0.924     0.076     2.017     2.221
    24   1 H        0.925     0.054     2.267     2.355
    25   1 H        0.925     0.039     2.464     2.455
    26   1 H        0.925     0.050     2.325     2.384
    27   1 H        0.925     0.049     2.328     2.386
    28   1 H        0.925     0.031     2.576     2.510
    29   1 H        0.925     0.049     2.328     2.386
    30   1 H        0.925     0.050     2.320     2.382
    31   1 H        0.925     0.051     2.310     2.377
    32   1 H        0.925     0.029     2.598     2.521
    33   1 H        0.925     0.016     2.798     2.616
    34   1 H        0.925     0.048     2.341     2.393

Wiberg/Mayer (AO) data.
largest (>0.10) Wiberg bond orders for each atom

     #   Z sym  total        # sym  WBO       # sym  WBO       # sym  WBO
 ---------------------------------------------------------------------------
     1   6 C    3.979 --     2 C    1.045    14 H    0.965    15 H    0.962
                            16 H    0.943
     2   6 C    3.953 --     7 N    1.337     3 N    1.316     1 C    1.045
     3   7 N    3.692 --     2 C    1.316     5 C    1.210     4 C    0.992
     4   6 C    3.940 --     3 N    0.992    19 H    0.975    18 H    0.967
                            17 H    0.963
     5   6 C    3.949 --     6 C    1.609     3 N    1.210    20 H    0.962
     6   6 C    3.951 --     5 C    1.609     7 N    1.212    21 H    0.961
     7   7 N    3.698 --     2 C    1.337     6 C    1.212     8 C    0.964
     8   6 C    3.936 --     9 C    1.005    22 H    0.968     7 N    0.964
                            23 H    0.958
     9   6 C    3.946 --     8 C    1.005    25 H    0.983    24 H    0.977
                            10 Si   0.826
    10  14 Si   3.622 --    12 C    0.919    11 C    0.908    13 C    0.888
                             9 C    0.826
    11   6 C    3.981 --    27 H    0.985    26 H    0.983    28 H    0.983
                            10 Si   0.908
    12   6 C    3.984 --    30 H    0.984    31 H    0.982    29 H    0.981
                            10 Si   0.919
    13   6 C    3.977 --    32 H    0.988    33 H    0.988    34 H    0.988
                            10 Si   0.888
    14   1 H    0.991 --     1 C    0.965
    15   1 H    0.991 --     1 C    0.962
    16   1 H    0.990 --     1 C    0.943
    17   1 H    0.991 --     4 C    0.963
    18   1 H    0.991 --     4 C    0.967
    19   1 H    0.989 --     4 C    0.975
    20   1 H    0.989 --     5 C    0.962
    21   1 H    0.989 --     6 C    0.961
    22   1 H    0.994 --     8 C    0.968
    23   1 H    0.994 --     8 C    0.958
    24   1 H    0.996 --     9 C    0.977
    25   1 H    0.998 --     9 C    0.983
    26   1 H    0.998 --    11 C    0.983
    27   1 H    0.998 --    11 C    0.985
    28   1 H    0.999 --    11 C    0.983
    29   1 H    0.998 --    12 C    0.981
    30   1 H    0.997 --    12 C    0.984
    31   1 H    0.997 --    12 C    0.982
    32   1 H    0.999 --    13 C    0.988
    33   1 H    1.000 --    13 C    0.988
    34   1 H    0.998 --    13 C    0.988
 ---------------------------------------------------------------------------

molecular dipole:
                 x           y           z       tot (Debye)
 q only:        0.852      -1.170       2.692
   full:        0.803      -1.185       2.788       7.965

           -------------------------------------------------
          | TOTAL ENERGY              -39.328432155630 Eh   |
          | GRADIENT NORM               0.000435320034 Eh/α |
          | HOMO-LUMO GAP               3.130696459590 eV   |
           -------------------------------------------------

 * finished run on 2024/12/20 at 02:05:14.130
