   * xtb version 6.7.1 (edcfbbe) compiled by 'conda@3ef47c1a292c' on 2024-11-25

   ID    Z sym.   atoms
    1    6 C      1-16, 18-29
    2   15 P      17
    3    1 H      30-89

          program call               : xtb C0088.xyz --opt --namespace C0088 --charge +1
          :  Hamiltonian                  GFN2-xTB          :
 * total energy  :   -92.7233055 Eh     change       -0.2241336E-09 Eh
 * total energy  :   -92.7295145 Eh     change       -0.6208952E-02 Eh
 * total energy  :   -92.7311436 Eh     change       -0.1629081E-02 Eh
 * total energy  :   -92.7313953 Eh     change       -0.2517597E-03 Eh
 * total energy  :   -92.7315720 Eh     change       -0.1767185E-03 Eh
 * total energy  :   -92.7317136 Eh     change       -0.1415590E-03 Eh
 * total energy  :   -92.7319176 Eh     change       -0.2039819E-03 Eh
 * total energy  :   -92.7321718 Eh     change       -0.2542352E-03 Eh
 * total energy  :   -92.7324424 Eh     change       -0.2706039E-03 Eh
 * total energy  :   -92.7327103 Eh     change       -0.2678708E-03 Eh
 * total energy  :   -92.7347451 Eh     change       -0.9389829E-05 Eh
 * total energy  :   -92.7347616 Eh     change       -0.1656888E-04 Eh
 * total energy  :   -92.7347737 Eh     change       -0.1207684E-04 Eh
 * total energy  :   -92.7347839 Eh     change       -0.1019962E-04 Eh
 * total energy  :   -92.7347966 Eh     change       -0.1268784E-04 Eh
 * total energy  :   -92.7348091 Eh     change       -0.1250446E-04 Eh
 * total energy  :   -92.7348168 Eh     change       -0.7674825E-05 Eh
 * total energy  :   -92.7348222 Eh     change       -0.5402445E-05 Eh
 * total energy  :   -92.7348271 Eh     change       -0.4882700E-05 Eh
   *** GEOMETRY OPTIMIZATION CONVERGED AFTER 35 ITERATIONS ***

 final structure:
================
89
 xtb: 6.7.1 (edcfbbe)
C            0.78835761054303        0.63192368061972       -0.29444573748359
C            0.75173329139821       -0.54756040213856       -1.25886785632327
C            1.37943000589208       -1.81843603511633       -0.68396847122985
C            0.69452975202704       -2.36950482131405        0.56859042219857
C           -0.78664303313727       -2.71284493346039        0.39965221144995
C           -1.09080845274860       -3.74635344481070       -0.68645407644470
C           -0.42874231560608       -5.11099718937327       -0.48531562411726
C           -0.79315007971979       -5.82347984028421        0.81898321024322
C           -2.29001842851742       -6.05808708605772        1.03197127050295
C           -2.97650291223946       -6.86524210011856       -0.07107626801133
C           -2.43970161821597       -8.28405957806494       -0.26705554611632
C           -2.53917667867461       -9.19599021571026        0.95875073163656
C           -3.94371488811141       -9.32579931971175        1.55436459466042
C           -4.95596429055724       -9.97161820213015        0.59511843606576
C           -5.36606389594055      -11.38754990131915        0.99852733610237
C           -6.22792284382231      -11.45444677054779        2.26805083105537
P           -8.03580769125487      -11.34571802536319        1.99072152232202
C           -8.50926543740177      -12.60252637208877        0.74188794596790
C           -7.83065603764327      -13.97216000975022        0.83550906379963
C           -8.16248647467231      -14.77652945805787        2.09218073215333
C           -9.61708779034722      -15.22782753209214        2.15566343353679
C           -8.98981032784348      -11.67037893359346        3.53239604701940
C           -8.18872461910386      -11.69751179034963        4.83595125190268
C           -7.77757936910013      -10.30813007490759        5.32592923030941
C           -8.92097122035469       -9.56316957211485        6.00550583325296
C           -8.66973848200935       -9.79395207702963        1.23619319164098
C           -8.80473092828952       -8.56655499753106        2.14095181993087
C           -7.51019158409107       -7.77394762585119        2.33300671200156
C           -7.19071212426657       -6.87472461154271        1.14430799190577
H            0.16344260761922        0.44761951479849        0.57570138198449
H            0.42511283068887        1.53163157102141       -0.78606725598997
H            1.80576284077707        0.81473073692611        0.04434310199274
H           -0.28032969540987       -0.74348343446122       -1.55512465755882
H            1.30254805639104       -0.27886666558611       -2.16369016718478
H            1.38563423592428       -2.58639156890391       -1.46039477831602
H            2.42172044942806       -1.60690056313944       -0.43162277941140
H            1.23744931338409       -3.26146561563066        0.88896895655640
H            0.78340803079814       -1.63790655121390        1.37409545415424
H           -1.16454432792408       -3.07445890496405        1.35886816618306
H           -1.33992292602224       -1.80137854264589        0.16449053324205
H           -2.17451359098510       -3.87495667372644       -0.74229918111791
H           -0.76879841348499       -3.35340731483114       -1.65260145554495
H           -0.69519602470433       -5.74812452803670       -1.33196401920841
H            0.65555472460451       -4.98917125789001       -0.51109159054625
H           -0.26989890090452       -6.78215397821334        0.84213869257031
H           -0.42034896810794       -5.23846520625779        1.66185524873024
H           -2.42385754094511       -6.56368683016197        1.99155796449959
H           -2.79348818395682       -5.09219002917560        1.10813426783107
H           -4.04699269735922       -6.91152734758462        0.14480543182092
H           -2.87108192621783       -6.33288353428463       -1.01741940905956
H           -2.97775118121908       -8.73367774483184       -1.10564883983693
H           -1.39059215247626       -8.23257407308363       -0.56020000316409
H           -2.17804121773334      -10.18879908060913        0.67850572872128
H           -1.87460430151219       -8.81817303928211        1.73686171596829
H           -3.86303873661975       -9.92300346398949        2.46617706586265
H           -4.28886134592044       -8.33522961036633        1.85000946597236
H           -5.84443923923441       -9.34786731368904        0.51200154246635
H           -4.51469447911252      -10.02935666906695       -0.39958403289761
H           -5.88989885669254      -11.85492962784030        0.16218263474634
H           -4.45850091937394      -11.96765938140473        1.17678878819899
H           -6.08662077816243      -12.42252698335625        2.75935180314587
H           -5.92712322775814      -10.68099480611172        2.97634775875303
H           -9.59556101355167      -12.71187455538942        0.80829600567268
H           -8.29038670803310      -12.16037809699118       -0.23578112833646
H           -8.14297210241544      -14.55054749055222       -0.03676458318678
H           -6.74836337965249      -13.85220481737712        0.77005218854887
H           -7.53025440439148      -15.66601614735174        2.09311864508487
H           -7.90516922717332      -14.19829237091171        2.98377443877007
H           -9.86171202787305      -15.83021972912207        1.28468160567600
H           -9.78106250447001      -15.83520011439330        3.04150191427299
H          -10.30981954307807      -14.38926688419595        2.19153611881397
H           -9.77283245312679      -10.91048852308670        3.59111160996818
H           -9.48611380996201      -12.63188149868887        3.38740627724784
H           -8.80981817071196      -12.16604534984908        5.60196284980982
H           -7.30406473366242      -12.32559976051136        4.71577420559829
H           -6.96316323474859      -10.41615013932962        6.04354259194474
H           -7.40320539897722       -9.71835357192460        4.48526586641986
H           -9.24712467585500      -10.10020264142917        6.89227374560999
H           -8.59451877604409       -8.57316539155157        6.31147166925609
H           -9.77964194049050       -9.44625652870380        5.34774058220913
H           -8.05253536468245       -9.56661289377434        0.36448907749920
H           -9.66224897544702      -10.07855252671251        0.86603716354335
H           -9.54715225934730       -7.90241742216612        1.69362146012085
H           -9.19345250771469       -8.86606233518633        3.11473365917503
H           -7.61893520363586       -7.14521644118374        3.21820725050865
H           -6.67910709789713       -8.45790965670242        2.51639774277621
H           -7.97802254413305       -6.13814357043455        1.00642299377652
H           -6.25918816966619       -6.34193022923710        1.31596850602134
H           -7.09205636717524       -7.43947555585333        0.21963976968139

          :  Hamiltonian                  GFN2-xTB          :
         :: total energy             -92.734827050163 Eh    ::
         :: gradient norm              0.000277115910 Eh/a0 ::
         :: HOMO-LUMO gap              4.187464657732 eV    ::
         :: SCC energy               -94.103723741269 Eh    ::
         :: -> dispersion             -0.082710785248 Eh    ::
         :: repulsion energy           1.368896691106 Eh    ::

    * Orbital Energies and Occupations

         #    Occupation            Energy/Eh            Energy/eV
      -------------------------------------------------------------
         1        2.0000           -0.8399806             -22.8570
       ...           ...                  ...                  ...
        76        2.0000           -0.5094990             -13.8642
        77        2.0000           -0.5038180             -13.7096
        78        2.0000           -0.5006239             -13.6227
        79        2.0000           -0.4947485             -13.4628
        80        2.0000           -0.4894918             -13.3197
        81        2.0000           -0.4858918             -13.2218
        82        2.0000           -0.4822028             -13.1214
        83        2.0000           -0.4722006             -12.8492
        84        2.0000           -0.4710109             -12.8169
        85        2.0000           -0.4687390             -12.7550
        86        2.0000           -0.4587165             -12.4823
        87        2.0000           -0.4534187             -12.3381
        88        2.0000           -0.4521706             -12.3042 (HOMO)
        89                         -0.2982841              -8.1167 (LUMO)
        90                         -0.2816145              -7.6631
        91                         -0.2648367              -7.2066
        92                         -0.1942315              -5.2853
        93                         -0.1144543              -3.1145
        94                         -0.0741485              -2.0177
        95                         -0.0540279              -1.4702
        96                         -0.0474262              -1.2905
        97                         -0.0450130              -1.2249
        98                         -0.0402237              -1.0945
        99                         -0.0372781              -1.0144
       ...                                ...                  ...
       181                          0.8047728              21.8990
      -------------------------------------------------------------
                  HL-Gap            0.1538865 Eh            4.1875 eV

     #   Z          covCN         q      C6AA      α(0)
     1   6 C        3.751    -0.102    22.501     6.765
     2   6 C        3.799    -0.052    21.506     6.603
     3   6 C        3.800    -0.057    21.603     6.618
     4   6 C        3.800    -0.057    21.597     6.617
     5   6 C        3.800    -0.056    21.580     6.614
     6   6 C        3.800    -0.056    21.588     6.615
     7   6 C        3.800    -0.057    21.601     6.617
     8   6 C        3.800    -0.057    21.601     6.617
     9   6 C        3.800    -0.056    21.587     6.615
    10   6 C        3.800    -0.058    21.612     6.619
    11   6 C        3.800    -0.059    21.638     6.623
    12   6 C        3.800    -0.061    21.667     6.627
    13   6 C        3.800    -0.062    21.696     6.632
    14   6 C        3.801    -0.068    21.810     6.649
    15   6 C        3.846    -0.063    21.669     6.622
    16   6 C        3.749    -0.067    21.856     6.668
    17  15 P        3.880     0.181   152.430    22.178
    18   6 C        3.749    -0.079    22.068     6.700
    19   6 C        3.836    -0.066    21.735     6.633
    20   6 C        3.799    -0.060    21.662     6.627
    21   6 C        3.751    -0.111    22.681     6.792
    22   6 C        3.750    -0.078    22.047     6.696
    23   6 C        3.838    -0.064    21.705     6.628
    24   6 C        3.800    -0.061    21.673     6.628
    25   6 C        3.752    -0.110    22.670     6.790
    26   6 C        3.749    -0.074    21.981     6.687
    27   6 C        3.833    -0.065    21.728     6.632
    28   6 C        3.800    -0.058    21.621     6.621
    29   6 C        3.752    -0.108    22.631     6.784
    30   1 H        0.925     0.033     2.539     2.492
    31   1 H        0.925     0.032     2.565     2.504
    32   1 H        0.925     0.034     2.526     2.485
    33   1 H        0.924     0.029     2.595     2.519
    34   1 H        0.924     0.027     2.624     2.533
    35   1 H        0.924     0.028     2.613     2.528
    36   1 H        0.924     0.029     2.595     2.519
    37   1 H        0.924     0.028     2.619     2.531
    38   1 H        0.924     0.032     2.562     2.503
    39   1 H        0.924     0.025     2.658     2.550
    40   1 H        0.924     0.031     2.570     2.507
    41   1 H        0.924     0.024     2.675     2.558
    42   1 H        0.924     0.033     2.545     2.495
    43   1 H        0.924     0.026     2.645     2.543
    44   1 H        0.924     0.034     2.527     2.486
    45   1 H        0.924     0.027     2.632     2.537
    46   1 H        0.924     0.034     2.536     2.491
    47   1 H        0.924     0.023     2.687     2.564
    48   1 H        0.924     0.032     2.561     2.502
    49   1 H        0.924     0.020     2.729     2.583
    50   1 H        0.924     0.038     2.476     2.461
    51   1 H        0.924     0.023     2.688     2.564
    52   1 H        0.924     0.042     2.418     2.432
    53   1 H        0.924     0.030     2.592     2.518
    54   1 H        0.924     0.042     2.427     2.436
    55   1 H        0.924     0.026     2.643     2.542
    56   1 H        0.925     0.041     2.430     2.438
    57   1 H        0.925     0.036     2.503     2.474
    58   1 H        0.925     0.057     2.234     2.337
    59   1 H        0.924     0.047     2.362     2.403
    60   1 H        0.924     0.064     2.157     2.297
    61   1 H        0.929     0.088     1.894     2.152
    62   1 H        0.926     0.096     1.818     2.108
    63   1 H        0.927     0.086     1.915     2.164
    64   1 H        0.927     0.081     1.972     2.196
    65   1 H        0.924     0.066     2.135     2.285
    66   1 H        0.924     0.052     2.298     2.371
    67   1 H        0.924     0.055     2.261     2.351
    68   1 H        0.924     0.033     2.545     2.495
    69   1 H        0.925     0.052     2.299     2.371
    70   1 H        0.925     0.052     2.301     2.372
    71   1 H        0.925     0.029     2.603     2.523
    72   1 H        0.926     0.089     1.888     2.149
    73   1 H        0.927     0.093     1.849     2.126
    74   1 H        0.924     0.068     2.109     2.271
    75   1 H        0.924     0.045     2.380     2.412
    76   1 H        0.924     0.051     2.301     2.372
    77   1 H        0.924     0.037     2.487     2.466
    78   1 H        0.925     0.050     2.316     2.380
    79   1 H        0.925     0.051     2.311     2.377
    80   1 H        0.925     0.032     2.555     2.500
    81   1 H        0.926     0.092     1.862     2.134
    82   1 H        0.929     0.082     1.956     2.187
    83   1 H        0.924     0.065     2.146     2.291
    84   1 H        0.924     0.053     2.286     2.365
    85   1 H        0.924     0.050     2.322     2.383
    86   1 H        0.924     0.037     2.496     2.471
    87   1 H        0.925     0.047     2.352     2.398
    88   1 H        0.925     0.050     2.326     2.385
    89   1 H        0.925     0.033     2.540     2.492

Wiberg/Mayer (AO) data.
largest (>0.10) Wiberg bond orders for each atom

     #   Z sym  total        # sym  WBO       # sym  WBO       # sym  WBO
 ---------------------------------------------------------------------------
     1   6 C    3.997 --     2 C    1.020    32 H    0.988    31 H    0.987
                            30 H    0.986
     2   6 C    3.998 --     1 C    1.020     3 C    1.008    34 H    0.978
                            33 H    0.976
     3   6 C    3.998 --     2 C    1.008     4 C    1.008    36 H    0.977
                            35 H    0.976
     4   6 C    3.998 --     5 C    1.008     3 C    1.008    38 H    0.976
                            37 H    0.975
     5   6 C    3.998 --     4 C    1.008     6 C    1.008    39 H    0.975
                            40 H    0.975
     6   6 C    3.998 --     5 C    1.008     7 C    1.008    41 H    0.975
                            42 H    0.975
     7   6 C    3.997 --     6 C    1.008     8 C    1.008    43 H    0.975
                            44 H    0.975
     8   6 C    3.997 --     7 C    1.008     9 C    1.007    45 H    0.976
                            46 H    0.975
     9   6 C    3.998 --    10 C    1.008     8 C    1.007    47 H    0.976
                            48 H    0.975
    10   6 C    3.997 --    11 C    1.008     9 C    1.008    49 H    0.974
                            50 H    0.974
    11   6 C    3.996 --    10 C    1.008    12 C    1.008    52 H    0.973
                            51 H    0.973
    12   6 C    3.995 --    11 C    1.008    13 C    1.007    53 H    0.977
                            54 H    0.975
    13   6 C    3.996 --    12 C    1.007    14 C    1.003    55 H    0.975
                            56 H    0.974
    14   6 C    3.992 --    15 C    1.008    13 C    1.003    58 H    0.968
                            57 H    0.967
    15   6 C    3.987 --    14 C    1.008    16 C    0.982    60 H    0.970
                            59 H    0.964
    16   6 C    3.984 --    17 P    1.001    15 C    0.982    62 H    0.930
                            61 H    0.926
    17  15 P    4.545 --    18 C    1.010    26 C    1.002    16 C    1.001
                            22 C    0.992
    18   6 C    3.989 --    17 P    1.010    19 C    0.991    64 H    0.935
                            63 H    0.933
    19   6 C    3.986 --    20 C    1.008    18 C    0.991    66 H    0.969
                            65 H    0.969
    20   6 C    3.995 --    21 C    1.021    19 C    1.008    67 H    0.975
                            68 H    0.964
    21   6 C    3.994 --    20 C    1.021    69 H    0.985    70 H    0.985
                            71 H    0.981
    22   6 C    3.985 --    17 P    0.992    23 C    0.992    73 H    0.931
                            72 H    0.931
    23   6 C    3.989 --    24 C    1.007    22 C    0.992    75 H    0.968
                            74 H    0.968
    24   6 C    3.995 --    25 C    1.021    23 C    1.007    76 H    0.976
                            77 H    0.962
    25   6 C    3.994 --    24 C    1.021    78 H    0.986    79 H    0.985
                            80 H    0.982
    26   6 C    3.986 --    17 P    1.002    27 C    0.992    81 H    0.931
                            82 H    0.930
    27   6 C    3.986 --    28 C    1.006    26 C    0.992    83 H    0.968
                            84 H    0.961
    28   6 C    3.995 --    29 C    1.021    27 C    1.006    85 H    0.976
                            86 H    0.965
    29   6 C    3.994 --    28 C    1.021    87 H    0.986    88 H    0.984
                            89 H    0.982
    30   1 H    0.999 --     1 C    0.986
    31   1 H    0.999 --     1 C    0.987
    32   1 H    0.999 --     1 C    0.988
    33   1 H    0.999 --     2 C    0.976
    34   1 H    0.999 --     2 C    0.978
    35   1 H    0.999 --     3 C    0.976
    36   1 H    0.999 --     3 C    0.977
    37   1 H    0.999 --     4 C    0.975
    38   1 H    0.999 --     4 C    0.976
    39   1 H    0.999 --     5 C    0.975
    40   1 H    0.999 --     5 C    0.975
    41   1 H    0.999 --     6 C    0.975
    42   1 H    0.999 --     6 C    0.975
    43   1 H    0.999 --     7 C    0.975
    44   1 H    0.999 --     7 C    0.975
    45   1 H    0.999 --     8 C    0.976
    46   1 H    0.999 --     8 C    0.975
    47   1 H    0.999 --     9 C    0.976
    48   1 H    0.999 --     9 C    0.975
    49   1 H    1.000 --    10 C    0.974
    50   1 H    0.999 --    10 C    0.974
    51   1 H    0.999 --    11 C    0.973
    52   1 H    0.998 --    11 C    0.973
    53   1 H    0.999 --    12 C    0.977
    54   1 H    0.998 --    12 C    0.975
    55   1 H    0.999 --    13 C    0.975
    56   1 H    0.998 --    13 C    0.974
    57   1 H    0.999 --    14 C    0.967
    58   1 H    0.996 --    14 C    0.968
    59   1 H    0.998 --    15 C    0.964
    60   1 H    0.995 --    15 C    0.970
    61   1 H    0.992 --    16 C    0.926
    62   1 H    0.991 --    16 C    0.930
    63   1 H    0.992 --    18 C    0.933
    64   1 H    0.993 --    18 C    0.935
    65   1 H    0.995 --    19 C    0.969
    66   1 H    0.997 --    19 C    0.969
    67   1 H    0.997 --    20 C    0.975
    68   1 H    0.999 --    20 C    0.964
    69   1 H    0.997 --    21 C    0.985
    70   1 H    0.997 --    21 C    0.985
    71   1 H    0.999 --    21 C    0.981
    72   1 H    0.992 --    22 C    0.931
    73   1 H    0.991 --    22 C    0.931
    74   1 H    0.995 --    23 C    0.968
    75   1 H    0.998 --    23 C    0.968
    76   1 H    0.997 --    24 C    0.976
    77   1 H    0.999 --    24 C    0.962
    78   1 H    0.997 --    25 C    0.986
    79   1 H    0.997 --    25 C    0.985
    80   1 H    0.999 --    25 C    0.982
    81   1 H    0.991 --    26 C    0.931
    82   1 H    0.993 --    26 C    0.930
    83   1 H    0.995 --    27 C    0.968
    84   1 H    0.997 --    27 C    0.961
    85   1 H    0.997 --    28 C    0.976
    86   1 H    0.999 --    28 C    0.965
    87   1 H    0.997 --    29 C    0.986
    88   1 H    0.997 --    29 C    0.984
    89   1 H    0.999 --    29 C    0.982
 ---------------------------------------------------------------------------

molecular dipole:
                 x           y           z       tot (Debye)
 q only:      -14.568     -20.995       3.953
   full:      -14.716     -21.116       3.865      66.154

           -------------------------------------------------
          | TOTAL ENERGY              -92.734827050163 Eh   |
          | GRADIENT NORM               0.000277115910 Eh/α |
          | HOMO-LUMO GAP               4.187464657732 eV   |
           -------------------------------------------------

 * finished run on 2024/12/20 at 02:05:29.555
