   * xtb version 6.7.1 (edcfbbe) compiled by 'conda@3ef47c1a292c' on 2024-11-25

   ID    Z sym.   atoms
    1    6 C      1, 5-17
    2    7 N      2-4
    3    1 H      18-31

          program call               : xtb C0083.xyz --opt --namespace C0083 --charge +1
          :  Hamiltonian                  GFN2-xTB          :
 * total energy  :   -45.4654681 Eh     change       -0.5426983E-09 Eh
 * total energy  :   -45.4759511 Eh     change       -0.1048303E-01 Eh
 * total energy  :   -45.4771388 Eh     change       -0.1187675E-02 Eh
 * total energy  :   -45.4772061 Eh     change       -0.6738077E-04 Eh
 * total energy  :   -45.4772552 Eh     change       -0.4909909E-04 Eh
 * total energy  :   -45.4772975 Eh     change       -0.4228997E-04 Eh
 * total energy  :   -45.4773516 Eh     change       -0.5403838E-04 Eh
 * total energy  :   -45.4774579 Eh     change       -0.1063564E-03 Eh
 * total energy  :   -45.4775444 Eh     change       -0.8651219E-04 Eh
 * total energy  :   -45.4776924 Eh     change       -0.1479635E-03 Eh
 * total energy  :   -45.4794176 Eh     change       -0.5731190E-05 Eh
 * total energy  :   -45.4794227 Eh     change       -0.5108502E-05 Eh
 * total energy  :   -45.4794318 Eh     change       -0.9080523E-05 Eh
 * total energy  :   -45.4794418 Eh     change       -0.9997432E-05 Eh
 * total energy  :   -45.4794530 Eh     change       -0.1117481E-04 Eh
 * total energy  :   -45.4794676 Eh     change       -0.1461140E-04 Eh
 * total energy  :   -45.4794835 Eh     change       -0.1587173E-04 Eh
 * total energy  :   -45.4794919 Eh     change       -0.8468364E-05 Eh
 * total energy  :   -45.4794952 Eh     change       -0.3289891E-05 Eh
   *** GEOMETRY OPTIMIZATION CONVERGED AFTER 53 ITERATIONS ***

 final structure:
================
31
 xtb: 6.7.1 (edcfbbe)
C            0.36857121581805       -0.14141891713921       -0.29717701978957
N            0.30231449178006        1.15453142151676        0.30920144507861
N            0.75912401752158        2.20744378827978       -0.29985981010168
N            0.57162653059993        3.24362674885688        0.45548377893413
C           -0.02643815039857        2.88614803454396        1.62989416727794
C           -0.21317033811715        1.48857138363452        1.52882162737973
C           -0.81588970092845        0.75655837037904        2.55050027813173
C           -1.21473689929397        1.47005640370539        3.65678833601900
C           -1.02575579019228        2.85923275216668        3.75938030957564
C           -0.43293101172767        3.59431709355295        2.75943353919502
C            1.04965767245572        4.54682778673554        0.06673898875451
C            2.29737882098553        4.88778968257231        0.85337032719241
C            3.45156630740452        4.14037929847393        0.65385131436874
C            4.59992139327939        4.43383042604557        1.36706548317416
C            4.59930020879653        5.47233460943167        2.28412384126455
C            3.45025429621611        6.21794922398810        2.48516858208513
C            2.29815552361125        5.92423100270288        1.77524301260177
H           -0.63524141669765       -0.54714388126226       -0.42923306600617
H            0.94574112821583       -0.82134318045229        0.33060764420108
H            0.85099431444368       -0.03983610289685       -1.26707698919891
H           -0.96111006480964       -0.30808021617337        2.47428861322998
H           -1.68807189636862        0.95195895210751        4.47564482700381
H           -1.35925347429433        3.35981159062203        4.65446236059809
H           -0.28480455008553        4.65732173459588        2.84381091946378
H            1.26682757431072        4.49925583351630       -1.00272405511612
H            0.26274426194725        5.28141881517055        0.25067577357585
H            3.45266444078225        3.33731951483835       -0.06993235962800
H            5.49587864078774        3.85595540406021        1.20248309505566
H            5.49593600107498        5.70330736802988        2.83737774257128
H            3.44893433949755        7.03193262505943        3.19303611828961
H            1.40849211338251        6.51874243333874        1.92476117482081

          :  Hamiltonian                  GFN2-xTB          :
         :: total energy             -45.479495213735 Eh    ::
         :: gradient norm              0.000174521829 Eh/a0 ::
         :: HOMO-LUMO gap              1.980455467174 eV    ::
         :: SCC energy               -46.251143884907 Eh    ::
         :: -> dispersion             -0.030906293347 Eh    ::
         :: repulsion energy           0.771648671172 Eh    ::

    * Orbital Energies and Occupations

         #    Occupation            Energy/Eh            Energy/eV
      -------------------------------------------------------------
         1        2.0000           -0.9116387             -24.8070
       ...           ...                  ...                  ...
        30        2.0000           -0.6003571             -16.3365
        31        2.0000           -0.5995555             -16.3147
        32        2.0000           -0.5947105             -16.1829
        33        2.0000           -0.5909674             -16.0810
        34        2.0000           -0.5904403             -16.0667
        35        2.0000           -0.5896320             -16.0447
        36        2.0000           -0.5846535             -15.9092
        37        2.0000           -0.5756813             -15.6651
        38        2.0000           -0.5593291             -15.2201
        39        2.0000           -0.5380519             -14.6411
        40        2.0000           -0.5341397             -14.5347
        41        2.0000           -0.5188615             -14.1189
        42        2.0000           -0.5181415             -14.0993 (HOMO)
        43                         -0.4453611             -12.1189 (LUMO)
        44                         -0.3794224             -10.3246
        45                         -0.3716091             -10.1120
        46                         -0.3427029              -9.3254
        47                         -0.3366918              -9.1618
        48                         -0.2536384              -6.9019
        49                         -0.2147409              -5.8434
        50                         -0.1748259              -4.7573
        51                         -0.1390625              -3.7841
        52                         -0.0636735              -1.7326
        53                         -0.0630491              -1.7157
       ...                                ...                  ...
        82                          0.5503677              14.9763
      -------------------------------------------------------------
                  HL-Gap            0.0727804 Eh            1.9805 eV

     #   Z          covCN         q      C6AA      α(0)
     1   6 C        3.693    -0.086    22.334     6.762
     2   7 N        2.982     0.128    19.062     6.485
     3   7 N        2.142    -0.096    23.655     7.217
     4   7 N        2.987     0.126    19.085     6.488
     5   6 C        3.069     0.038    27.087     8.534
     6   6 C        3.069     0.036    27.133     8.541
     7   6 C        2.906    -0.031    28.779     8.796
     8   6 C        2.927    -0.011    28.287     8.722
     9   6 C        2.927    -0.012    28.304     8.725
    10   6 C        2.906    -0.029    28.726     8.788
    11   6 C        3.749    -0.030    21.167     6.562
    12   6 C        2.974    -0.001    28.039     8.686
    13   6 C        2.923    -0.037    28.922     8.819
    14   6 C        2.919    -0.022    28.553     8.763
    15   6 C        2.920    -0.020    28.507     8.756
    16   6 C        2.920    -0.022    28.546     8.762
    17   6 C        2.922    -0.035    28.866     8.811
    18   1 H        0.924     0.105     1.736     2.060
    19   1 H        0.924     0.105     1.740     2.063
    20   1 H        0.925     0.116     1.646     2.006
    21   1 H        0.926     0.079     1.991     2.207
    22   1 H        0.926     0.087     1.908     2.160
    23   1 H        0.926     0.087     1.912     2.162
    24   1 H        0.926     0.080     1.984     2.202
    25   1 H        0.924     0.102     1.765     2.078
    26   1 H        0.924     0.089     1.890     2.150
    27   1 H        0.926     0.040     2.448     2.447
    28   1 H        0.926     0.056     2.250     2.346
    29   1 H        0.926     0.060     2.202     2.321
    30   1 H        0.926     0.058     2.223     2.332
    31   1 H        0.926     0.041     2.435     2.440

Wiberg/Mayer (AO) data.
largest (>0.10) Wiberg bond orders for each atom

     #   Z sym  total        # sym  WBO       # sym  WBO       # sym  WBO
 ---------------------------------------------------------------------------
     1   6 C    3.932 --     2 N    0.992    20 H    0.971    19 H    0.959
                            18 H    0.959
     2   7 N    3.722 --     3 N    1.323     6 C    1.181     1 C    0.992
                             4 N    0.123
     3   7 N    3.011 --     4 N    1.336     2 N    1.323
     4   7 N    3.728 --     3 N    1.336     5 C    1.181    11 C    0.962
                             2 N    0.123
     5   6 C    3.962 --    10 C    1.305     6 C    1.248     4 N    1.181
     6   6 C    3.961 --     7 C    1.305     5 C    1.248     2 N    1.181
     7   6 C    3.984 --     8 C    1.528     6 C    1.305    21 H    0.963
                            10 C    0.121
     8   6 C    3.984 --     7 C    1.528     9 C    1.341    22 H    0.965
     9   6 C    3.984 --    10 C    1.529     8 C    1.341    23 H    0.965
    10   6 C    3.985 --     9 C    1.529     5 C    1.305    24 H    0.962
                             7 C    0.121
    11   6 C    3.931 --    12 C    0.969     4 N    0.962    25 H    0.957
                            26 H    0.956
    12   6 C    3.975 --    17 C    1.417    13 C    1.410    11 C    0.969
                            15 C    0.108
    13   6 C    3.991 --    14 C    1.447    12 C    1.410    27 H    0.968
                            16 C    0.112
    14   6 C    3.990 --    13 C    1.447    15 C    1.435    28 H    0.969
                            17 C    0.110
    15   6 C    3.987 --    16 C    1.442    14 C    1.435    29 H    0.969
                            12 C    0.108
    16   6 C    3.988 --    15 C    1.442    17 C    1.438    30 H    0.968
                            13 C    0.112
    17   6 C    3.989 --    16 C    1.438    12 C    1.417    31 H    0.967
                            14 C    0.110
    18   1 H    0.988 --     1 C    0.959
    19   1 H    0.988 --     1 C    0.959
    20   1 H    0.986 --     1 C    0.971
    21   1 H    0.993 --     7 C    0.963
    22   1 H    0.992 --     8 C    0.965
    23   1 H    0.992 --     9 C    0.965
    24   1 H    0.993 --    10 C    0.962
    25   1 H    0.989 --    11 C    0.957
    26   1 H    0.991 --    11 C    0.956
    27   1 H    0.998 --    13 C    0.968
    28   1 H    0.996 --    14 C    0.969
    29   1 H    0.995 --    15 C    0.969
    30   1 H    0.996 --    16 C    0.968
    31   1 H    0.998 --    17 C    0.967
 ---------------------------------------------------------------------------

molecular dipole:
                 x           y           z       tot (Debye)
 q only:        0.952       4.472       2.419
   full:        0.784       4.442       2.552      13.173

           -------------------------------------------------
          | TOTAL ENERGY              -45.479495213735 Eh   |
          | GRADIENT NORM               0.000174521829 Eh/α |
          | HOMO-LUMO GAP               1.980455467174 eV   |
           -------------------------------------------------

 * finished run on 2024/12/20 at 02:05:12.309
