   * xtb version 6.7.1 (edcfbbe) compiled by 'conda@3ef47c1a292c' on 2024-11-25

   ID    Z sym.   atoms
    1   35 Br     1
    2    6 C      2-4, 6, 8-15, 17-22
    3    7 N      5, 7
    4    8 O      16
    5    1 H      23-38

          program call               : xtb C0081.xyz --opt --namespace C0081 --charge +1
          :  Hamiltonian                  GFN2-xTB          :
 * total energy  :   -60.2806811 Eh     change       -0.3081908E-09 Eh
 * total energy  :   -60.2876624 Eh     change       -0.6981307E-02 Eh
 * total energy  :   -60.2892649 Eh     change       -0.1602448E-02 Eh
 * total energy  :   -60.2895569 Eh     change       -0.2920043E-03 Eh
 * total energy  :   -60.2897953 Eh     change       -0.2383572E-03 Eh
 * total energy  :   -60.2899900 Eh     change       -0.1947822E-03 Eh
 * total energy  :   -60.2903071 Eh     change       -0.3170225E-03 Eh
 * total energy  :   -60.2906444 Eh     change       -0.3373497E-03 Eh
 * total energy  :   -60.2910447 Eh     change       -0.4002623E-03 Eh
 * total energy  :   -60.2914331 Eh     change       -0.3883908E-03 Eh
 * total energy  :   -60.2959371 Eh     change       -0.4619731E-04 Eh
 * total energy  :   -60.2959645 Eh     change       -0.2744417E-04 Eh
 * total energy  :   -60.2959745 Eh     change       -0.1001392E-04 Eh
 * total energy  :   -60.2959824 Eh     change       -0.7877539E-05 Eh
 * total energy  :   -60.2959889 Eh     change       -0.6488987E-05 Eh
 * total energy  :   -60.2959979 Eh     change       -0.8952382E-05 Eh
 * total energy  :   -60.2960046 Eh     change       -0.6762396E-05 Eh
 * total energy  :   -60.2960101 Eh     change       -0.5426712E-05 Eh
 * total energy  :   -60.2960136 Eh     change       -0.3577690E-05 Eh
   *** GEOMETRY OPTIMIZATION CONVERGED AFTER 62 ITERATIONS ***

 final structure:
================
38
 xtb: 6.7.1 (edcfbbe)
Br           0.47266347425247        0.53866420228987        0.87565401074720
C            2.14802012411336        0.43642306699169       -0.06248225178922
C            2.33171228378578        1.07410383550264       -1.20263788483471
C            3.17019377616323       -0.44088028992855        0.61850736906346
N            3.23811305002062       -0.18353108992799        2.03720076138792
C            3.77015173869706        0.89897179882510        2.59860635484982
N            3.59720775997613        0.88978814308520        3.91747879464042
C            2.93584439286633       -0.27806476107414        4.24962523180867
C            2.68897292589249       -0.95669130099902        3.04108067887343
C            2.00502981424048       -2.16550389714640        3.02032576206091
C            1.58590204077231       -2.66885500491052        4.23421041987202
C            1.83646952500908       -1.99868536531844        5.43414201710921
C            2.51136342732663       -0.79564649365283        5.46645652108622
C            4.27389218735197        1.78672157052678        4.80525412273535
C            5.79948190918819        1.67908079685126        4.51897204953860
O            6.14966623344068        1.09046344129941        3.52082963189665
C            6.70505092322328        2.31200842737975        5.47093645583492
C            6.27263836280388        3.11950213517878        6.52924466361425
C            7.19717739983469        3.69230907852002        7.37976054726426
C            8.55495157219981        3.46795148759563        7.19642824341132
C            8.99425672241459        2.67193184299990        6.14901122559732
C            8.07845565551024        2.10048655806861        5.28994131996172
H            3.26869876290756        1.01501379388264       -1.73015828234126
H            1.55472047578520        1.66142464684061       -1.65914692048825
H            2.89960463440019       -1.49193026541184        0.48232338433468
H            4.15242244641280       -0.27184084164908        0.16858423301786
H            4.24168894670031        1.69040311275017        2.04793633983088
H            1.79545853169506       -2.68800674425528        2.10160779333170
H            1.04749059252768       -3.60256489890811        4.25960467892794
H            1.48863715299143       -2.43278400643886        6.35778578480748
H            2.69244321543035       -0.28636838313898        6.39890295564332
H            3.96312824614019        2.81956305203228        4.62241061705264
H            4.05060686910780        1.51505880729104        5.83585175292414
H            5.22370937501720        3.31915158902797        6.68459230112071
H            6.86054147100479        4.31879933582618        8.19145508693855
H            9.26857536982065        3.91790020838107        7.86908500600112
H           10.04911062957861        2.50025040997939        6.00346042438337
H            8.39998798139595        1.47859200164464        4.46823879977886

          :  Hamiltonian                  GFN2-xTB          :
         :: total energy             -60.296013632592 Eh    ::
         :: gradient norm              0.000564170459 Eh/a0 ::
         :: HOMO-LUMO gap              2.908341630926 eV    ::
         :: SCC energy               -61.247844633213 Eh    ::
         :: -> dispersion             -0.042484891234 Eh    ::
         :: repulsion energy           0.951831000621 Eh    ::

    * Orbital Energies and Occupations

         #    Occupation            Energy/Eh            Energy/eV
      -------------------------------------------------------------
         1        2.0000           -0.9465257             -25.7563
       ...           ...                  ...                  ...
        43        2.0000           -0.5760010             -15.6738
        44        2.0000           -0.5739257             -15.6173
        45        2.0000           -0.5730621             -15.5938
        46        2.0000           -0.5660251             -15.4023
        47        2.0000           -0.5544998             -15.0887
        48        2.0000           -0.5449513             -14.8289
        49        2.0000           -0.5404006             -14.7051
        50        2.0000           -0.5352266             -14.5643
        51        2.0000           -0.5270224             -14.3410
        52        2.0000           -0.5257897             -14.3075
        53        2.0000           -0.5225456             -14.2192
        54        2.0000           -0.5220665             -14.2062
        55        2.0000           -0.5152309             -14.0201 (HOMO)
        56                         -0.4083513             -11.1118 (LUMO)
        57                         -0.4053020             -11.0288
        58                         -0.3592727              -9.7763
        59                         -0.3546957              -9.6518
        60                         -0.3488646              -9.4931
        61                         -0.3389350              -9.2229
        62                         -0.3213253              -8.7437
        63                         -0.3114784              -8.4758
        64                         -0.2308674              -6.2822
        65                         -0.2019967              -5.4966
        66                         -0.1672068              -4.5499
       ...                                ...                  ...
       109                          0.5534264              15.0595
      -------------------------------------------------------------
                  HL-Gap            0.1068796 Eh            2.9083 eV

     #   Z          covCN         q      C6AA      α(0)
     1  35 Br       1.062    -0.147   189.090    22.172
     2   6 C        2.876     0.070    26.425     8.427
     3   6 C        2.918    -0.091    30.281     9.024
     4   6 C        3.804    -0.021    20.942     6.515
     5   7 N        2.833     0.040    20.540     6.731
     6   6 C        3.065     0.080    26.154     8.386
     7   7 N        2.830     0.044    20.476     6.721
     8   6 C        3.114     0.041    26.923     8.500
     9   6 C        3.112     0.046    26.828     8.485
    10   6 C        2.909    -0.028    28.701     8.785
    11   6 C        2.926    -0.017    28.428     8.744
    12   6 C        2.926    -0.017    28.445     8.746
    13   6 C        2.909    -0.032    28.788     8.798
    14   6 C        3.744    -0.044    21.437     6.605
    15   6 C        2.823     0.227    23.234     7.898
    16   8 O        0.857    -0.358    20.858     6.123
    17   6 C        2.970    -0.016    28.417     8.744
    18   6 C        2.919    -0.026    28.659     8.779
    19   6 C        2.917    -0.019    28.477     8.751
    20   6 C        2.920    -0.006    28.181     8.705
    21   6 C        2.916    -0.018    28.448     8.746
    22   6 C        2.927    -0.009    28.240     8.715
    23   1 H        0.926     0.082     1.956     2.187
    24   1 H        0.926     0.097     1.811     2.104
    25   1 H        0.924     0.104     1.746     2.067
    26   1 H        0.924     0.096     1.823     2.112
    27   1 H        0.926     0.113     1.668     2.020
    28   1 H        0.926     0.072     2.063     2.246
    29   1 H        0.926     0.081     1.971     2.195
    30   1 H        0.926     0.079     1.986     2.204
    31   1 H        0.926     0.065     2.137     2.286
    32   1 H        0.924     0.098     1.804     2.100
    33   1 H        0.925     0.100     1.789     2.091
    34   1 H        0.926     0.043     2.405     2.425
    35   1 H        0.926     0.062     2.173     2.305
    36   1 H        0.926     0.068     2.108     2.271
    37   1 H        0.926     0.066     2.128     2.281
    38   1 H        0.926     0.073     2.053     2.241

Wiberg/Mayer (AO) data.
largest (>0.10) Wiberg bond orders for each atom

     #   Z sym  total        # sym  WBO       # sym  WBO       # sym  WBO
 ---------------------------------------------------------------------------
     1  35 Br   1.146 --     2 C    0.991
     2   6 C    3.939 --     3 C    1.920     4 C    0.993     1 Br   0.991
     3   6 C    3.981 --     2 C    1.920    24 H    0.965    23 H    0.959
     4   6 C    3.952 --     2 C    0.993     5 N    0.977    26 H    0.954
                            25 H    0.948
     5   7 N    3.675 --     6 C    1.355     9 C    1.120     4 C    0.977
     6   6 C    3.953 --     7 N    1.358     5 N    1.355    27 H    0.953
     7   7 N    3.677 --     6 C    1.358     8 C    1.114    14 C    0.997
     8   6 C    3.950 --    13 C    1.345     9 C    1.275     7 N    1.114
     9   6 C    3.953 --    10 C    1.342     8 C    1.275     5 N    1.120
    10   6 C    3.984 --    11 C    1.491     9 C    1.342    28 H    0.961
                            13 C    0.118
    11   6 C    3.984 --    10 C    1.491    12 C    1.381    29 H    0.966
    12   6 C    3.983 --    13 C    1.490    11 C    1.381    30 H    0.966
    13   6 C    3.987 --    12 C    1.490     8 C    1.345    31 H    0.963
                            10 C    0.118
    14   6 C    3.950 --     7 N    0.997    33 H    0.955    32 H    0.942
                            15 C    0.923
    15   6 C    3.927 --    16 O    1.800    17 C    1.081    14 C    0.923
    16   8 O    2.108 --    15 C    1.800
    17   6 C    3.981 --    18 C    1.352    22 C    1.348    15 C    1.081
    18   6 C    3.991 --    19 C    1.473    17 C    1.352    34 H    0.966
                            21 C    0.102
    19   6 C    3.990 --    18 C    1.473    20 C    1.417    35 H    0.968
    20   6 C    3.985 --    21 C    1.427    19 C    1.417    36 H    0.968
    21   6 C    3.988 --    22 C    1.464    20 C    1.427    37 H    0.967
                            18 C    0.102
    22   6 C    3.984 --    21 C    1.464    17 C    1.348    38 H    0.964
    23   1 H    0.993 --     3 C    0.959
    24   1 H    0.990 --     3 C    0.965
    25   1 H    0.989 --     4 C    0.948
    26   1 H    0.990 --     4 C    0.954
    27   1 H    0.986 --     6 C    0.953
    28   1 H    0.994 --    10 C    0.961
    29   1 H    0.993 --    11 C    0.966
    30   1 H    0.993 --    12 C    0.966
    31   1 H    0.995 --    13 C    0.963
    32   1 H    0.988 --    14 C    0.942
    33   1 H    0.990 --    14 C    0.955
    34   1 H    0.998 --    18 C    0.966
    35   1 H    0.996 --    19 C    0.968
    36   1 H    0.995 --    20 C    0.968
    37   1 H    0.995 --    21 C    0.967
    38   1 H    0.995 --    22 C    0.964
 ---------------------------------------------------------------------------

molecular dipole:
                 x           y           z       tot (Debye)
 q only:        7.815       1.227       7.127
   full:        7.860       1.463       6.847      26.755

           -------------------------------------------------
          | TOTAL ENERGY              -60.296013632592 Eh   |
          | GRADIENT NORM               0.000564170459 Eh/α |
          | HOMO-LUMO GAP               2.908341630926 eV   |
           -------------------------------------------------

 * finished run on 2024/12/20 at 02:05:09.470
