   * xtb version 6.7.1 (edcfbbe) compiled by 'conda@3ef47c1a292c' on 2024-11-25

   ID    Z sym.   atoms
    1    7 N      1, 9, 17, 28, 33
    2    6 C      2-8, 10, 11, 13, 15, 16, 18, 19, 21, 23-27, 29-32, 34-39
    3    8 O      12, 14, 20, 22
    4   17 Cl     40, 41
    5    1 H      42-73

          program call               : xtb C0087.xyz --opt --namespace C0087 --charge +1
          :  Hamiltonian                  GFN2-xTB          :
 * total energy  :  -120.2223582 Eh     change       -0.9956835E-09 Eh
 * total energy  :  -120.2461242 Eh     change       -0.2376607E-01 Eh
 * total energy  :  -120.2554279 Eh     change       -0.9303657E-02 Eh
 * total energy  :  -120.2579230 Eh     change       -0.2495048E-02 Eh
 * total energy  :  -120.2594380 Eh     change       -0.1515053E-02 Eh
 * total energy  :  -120.2609032 Eh     change       -0.1465159E-02 Eh
 * total energy  :  -120.2620217 Eh     change       -0.1118496E-02 Eh
 * total energy  :  -120.2631023 Eh     change       -0.1080636E-02 Eh
 * total energy  :  -120.2642301 Eh     change       -0.1127817E-02 Eh
 * total energy  :  -120.2651414 Eh     change       -0.9112782E-03 Eh
 * total energy  :  -120.2732377 Eh     change       -0.1378991E-04 Eh
 * total energy  :  -120.2732520 Eh     change       -0.1428386E-04 Eh
 * total energy  :  -120.2732664 Eh     change       -0.1433246E-04 Eh
 * total energy  :  -120.2732802 Eh     change       -0.1385138E-04 Eh
 * total energy  :  -120.2732932 Eh     change       -0.1303330E-04 Eh
 * total energy  :  -120.2733052 Eh     change       -0.1192507E-04 Eh
 * total energy  :  -120.2733158 Eh     change       -0.1066970E-04 Eh
 * total energy  :  -120.2733254 Eh     change       -0.9571205E-05 Eh
 * total energy  :  -120.2733297 Eh     change       -0.4322664E-05 Eh
   *** GEOMETRY OPTIMIZATION CONVERGED AFTER 94 ITERATIONS ***

 final structure:
================
73
 xtb: 6.7.1 (edcfbbe)
N            1.75180984211983        1.87049457407450       -1.56925818437658
C            2.83318800772866        1.56139707999760       -1.35433422784403
C            4.16361690688111        1.16281237331153       -1.07820256668572
C            5.11335563406932        2.12746720527580       -0.71982010234025
C            6.41355990067423        1.77021452238980       -0.42280416657971
C            6.74587573573318        0.42589868609043       -0.49623993120099
C            5.79257826111160       -0.54044180644068       -0.86037484923088
C            4.48940990516109       -0.19140312545652       -1.15347887547696
N            6.41944950346446       -1.77267075973604       -0.82333236492127
C            5.67795822759320       -3.00368303197188       -0.73444915309310
C            5.48001856654125       -3.41286967118257        0.73670235804772
O            4.42603197006760       -2.66970123679771        1.33987836679612
C            4.71656068165554       -1.50442847686256        1.93796811685468
O            5.81500608867309       -1.01016946466213        1.93293329725785
C            3.50345407744470       -0.91830445223177        2.59106220723788
C            7.72570332217243       -1.58455078344430       -0.45804767857104
N            7.92646012919429       -0.24209121610053       -0.26176633672431
C            9.02059721305012        0.33020896421047        0.48286706204426
C            8.94505344966115       -0.04224956135817        1.97932170110987
O            9.90615131364606       -1.03590473515517        2.32688056260063
C            9.50911535183820       -2.28684235493325        2.58597582828207
O            8.38286863589066       -2.68883330338833        2.45319889531279
C           10.67015060128764       -3.11571745127357        3.06035365079956
C            8.77626992410868       -2.49477847190792       -0.38260109914255
C            8.76486790524391       -3.87925644225348       -0.38762079097125
C            9.93606072663405       -4.61548795066284       -0.31714221653278
C           10.11317781380778       -5.99793213825436       -0.25458793717308
N            9.19062486032676       -6.99281250563380       -0.08634443852539
C            7.77435076352834       -6.88232624708745        0.16863127877456
C            6.96698809297114       -6.91842316822270       -1.12733442213040
C            9.83397195289210       -8.21035618404978       -0.14753060068269
C           11.20291043561346       -7.94967424448036       -0.32033869241711
N           11.34853883277276       -6.58275888047659       -0.35532158239655
C           12.61509534751638       -5.91838460049559       -0.55724373477675
C           12.86972707425542       -5.62791658071878       -2.03318244821775
C           12.12220479000498       -8.98010981873871       -0.42478053278020
C           11.64103257198792      -10.27919709298417       -0.35035864316003
C           10.27232587258031      -10.53921270335578       -0.17724269947845
C            9.35204129925013       -9.50601345553989       -0.07467177549276
Cl           9.71697013323750      -12.16294427361957       -0.09822661363684
Cl          12.74556475206525      -11.58818400074842       -0.48113225762918
H            4.81302935315250        3.16245017356653       -0.67151307374723
H            7.13177950356273        2.52211097520814       -0.14031672060863
H            3.73371753958938       -0.91185091815376       -1.42434774261004
H            4.69941355993048       -2.84535177640778       -1.19167356796645
H            6.18547484330553       -3.78998824048785       -1.29369489471314
H            5.16337382459148       -4.45606821083851        0.79716342137157
H            6.40457617406333       -3.25652615918332        1.30557770994122
H            2.59931687866605       -1.33867550057561        2.16286674523704
H            3.53447234445194       -1.15695847260143        3.65314874824674
H            3.51435749522585        0.16343727154891        2.48860048732421
H            9.97976462213130        0.00394670392318        0.07356968311545
H            8.95960719441408        1.41175366037296        0.37057780877656
H            9.19056762404236        0.82669606514847        2.59297180435503
H            7.93939083835946       -0.39937297806245        2.22574950148993
H           11.60533905475035       -2.69847620396684        2.70116048782241
H           10.67886924965855       -3.09671775410630        4.14884981571531
H           10.54755767773182       -4.14533699073202        2.73729872248829
H            9.74872596802650       -2.04139782726079       -0.25156446078659
H            7.82587272036617       -4.39298953076917       -0.44341467465885
H           10.85112508170354       -4.04247439465139       -0.33970422949691
H            7.49209896817053       -7.73001362811615        0.79760040314074
H            7.58844129697553       -5.97098706007705        0.74010749610320
H            7.11025418034434       -7.87128598446300       -1.63009315930601
H            5.90897813135842       -6.79948408498955       -0.91188818498013
H            7.28246783877018       -6.13135941191834       -1.80839112870630
H           12.63505964484516       -4.99552865114936        0.02657066049814
H           13.39222478969011       -6.57661472830535       -0.16514133193930
H           12.10493102557080       -4.96696195105253       -2.43328169850045
H           13.83871666555541       -5.15266340027952       -2.15233511023938
H           12.86395352147312       -6.55151430322123       -2.60609200858882
H           13.17548624482367       -8.80786511824262       -0.56653437910926
H            8.30696967032562       -9.73324478529745        0.04960846736033

          :  Hamiltonian                  GFN2-xTB          :
         :: total energy            -120.273329731012 Eh    ::
         :: gradient norm              0.000218497647 Eh/a0 ::
         :: HOMO-LUMO gap              1.700972024004 eV    ::
         :: SCC energy              -121.912816824307 Eh    ::
         :: -> dispersion             -0.096063961262 Eh    ::
         :: repulsion energy           1.639487093295 Eh    ::

    * Orbital Energies and Occupations

         #    Occupation            Energy/Eh            Energy/eV
      -------------------------------------------------------------
         1        2.0000           -1.1388009             -30.9884
       ...           ...                  ...                  ...
        95        2.0000           -0.5392179             -14.6729
        96        2.0000           -0.5370474             -14.6138
        97        2.0000           -0.5362459             -14.5920
        98        2.0000           -0.5184742             -14.1084
        99        2.0000           -0.5149408             -14.0123
       100        2.0000           -0.5126270             -13.9493
       101        2.0000           -0.5060712             -13.7709
       102        2.0000           -0.5035607             -13.7026
       103        2.0000           -0.5026481             -13.6778
       104        2.0000           -0.4989307             -13.5766
       105        2.0000           -0.4967243             -13.5166
       106        2.0000           -0.4869900             -13.2517
       107        2.0000           -0.4552568             -12.3882 (HOMO)
       108                         -0.3927472             -10.6872 (LUMO)
       109                         -0.3560550              -9.6888
       110                         -0.3431249              -9.3369
       111                         -0.3335300              -9.0758
       112                         -0.3318157              -9.0292
       113                         -0.3260396              -8.8720
       114                         -0.3230163              -8.7897
       115                         -0.2945844              -8.0161
       116                         -0.2843831              -7.7385
       117                         -0.2546741              -6.9300
       118                         -0.2380001              -6.4763
       ...                                ...                  ...
       206                          1.0962427              29.8303
      -------------------------------------------------------------
                  HL-Gap            0.0625096 Eh            1.7010 eV

     #   Z          covCN         q      C6AA      α(0)
     1   7 N        0.911    -0.200    25.338     7.280
     2   6 C        1.914     0.111    28.352     8.599
     3   6 C        2.979     0.023    27.497     8.602
     4   6 C        2.931    -0.022    28.554     8.763
     5   6 C        2.911    -0.040    28.995     8.830
     6   6 C        3.061     0.053    26.755     8.482
     7   6 C        3.070     0.052    26.769     8.483
     8   6 C        2.921    -0.040    28.986     8.829
     9   7 N        2.811    -0.028    21.779     6.931
    10   6 C        3.740    -0.013    20.881     6.520
    11   6 C        3.694     0.062    19.708     6.351
    12   8 O        1.705    -0.261    18.320     5.779
    13   6 C        2.708     0.367    20.775     7.461
    14   8 O        0.856    -0.429    22.262     6.326
    15   6 C        3.754    -0.152    23.498     6.912
    16   6 C        3.018     0.126    25.222     8.238
    17   7 N        2.820    -0.023    21.685     6.916
    18   6 C        3.740    -0.015    20.921     6.526
    19   6 C        3.690     0.057    19.807     6.369
    20   8 O        1.705    -0.259    18.299     5.776
    21   6 C        2.705     0.365    20.801     7.465
    22   8 O        0.856    -0.421    22.097     6.302
    23   6 C        3.754    -0.151    23.484     6.910
    24   6 C        2.905    -0.087    30.176     9.007
    25   6 C        2.893    -0.021    28.520     8.756
    26   6 C        2.905    -0.097    30.433     9.046
    27   6 C        3.018     0.109    25.582     8.297
    28   7 N        2.817    -0.019    21.606     6.904
    29   6 C        3.739    -0.012    20.861     6.517
    30   6 C        3.752    -0.120    22.856     6.818
    31   6 C        3.072     0.037    27.099     8.535
    32   6 C        3.063     0.039    27.063     8.531
    33   7 N        2.825    -0.021    21.660     6.912
    34   6 C        3.739    -0.009    20.813     6.510
    35   6 C        3.752    -0.120    22.864     6.819
    36   6 C        2.953    -0.058    29.447     8.900
    37   6 C        2.922     0.088    26.048     8.369
    38   6 C        2.922     0.087    26.062     8.372
    39   6 C        2.953    -0.059    29.457     8.902
    40  17 Cl       1.000    -0.107   102.487    15.488
    41  17 Cl       1.000    -0.106   102.455    15.486
    42   1 H        0.926     0.068     2.104     2.268
    43   1 H        0.926     0.057     2.232     2.336
    44   1 H        0.926     0.055     2.257     2.349
    45   1 H        0.924     0.085     1.925     2.170
    46   1 H        0.924     0.070     2.082     2.257
    47   1 H        0.924     0.070     2.083     2.257
    48   1 H        0.924     0.093     1.854     2.129
    49   1 H        0.925     0.084     1.943     2.180
    50   1 H        0.925     0.098     1.801     2.099
    51   1 H        0.925     0.084     1.936     2.176
    52   1 H        0.924     0.081     1.967     2.193
    53   1 H        0.925     0.082     1.956     2.187
    54   1 H        0.924     0.077     2.011     2.217
    55   1 H        0.924     0.103     1.762     2.076
    56   1 H        0.925     0.078     2.003     2.213
    57   1 H        0.925     0.095     1.827     2.114
    58   1 H        0.925     0.073     2.048     2.238
    59   1 H        0.926     0.049     2.327     2.385
    60   1 H        0.926     0.049     2.330     2.387
    61   1 H        0.926     0.052     2.289     2.366
    62   1 H        0.924     0.074     2.037     2.232
    63   1 H        0.924     0.069     2.091     2.261
    64   1 H        0.925     0.064     2.151     2.294
    65   1 H        0.925     0.059     2.207     2.323
    66   1 H        0.925     0.049     2.331     2.388
    67   1 H        0.924     0.065     2.142     2.289
    68   1 H        0.924     0.074     2.038     2.232
    69   1 H        0.925     0.054     2.266     2.354
    70   1 H        0.925     0.067     2.115     2.274
    71   1 H        0.925     0.059     2.207     2.323
    72   1 H        0.926     0.085     1.928     2.171
    73   1 H        0.926     0.084     1.941     2.178

Wiberg/Mayer (AO) data.
largest (>0.10) Wiberg bond orders for each atom

     #   Z sym  total        # sym  WBO       # sym  WBO       # sym  WBO
 ---------------------------------------------------------------------------
     1   7 N    2.984 --     2 C    2.818
     2   6 C    3.949 --     1 N    2.818     3 C    1.090
     3   6 C    3.975 --     8 C    1.374     4 C    1.340     2 C    1.090
     4   6 C    3.978 --     5 C    1.473     3 C    1.340    42 H    0.967
     5   6 C    3.974 --     4 C    1.473     6 C    1.355    43 H    0.962
     6   6 C    3.942 --     5 C    1.355     7 C    1.259    17 N    1.133
     7   6 C    3.958 --     8 C    1.386     6 C    1.259     9 N    1.114
     8   6 C    3.973 --     7 C    1.386     3 C    1.374    44 H    0.962
     9   7 N    3.553 --    16 C    1.195     7 C    1.114    10 C    0.990
    10   6 C    3.964 --     9 N    0.990    11 C    0.981    45 H    0.962
                            46 H    0.956
    11   6 C    3.929 --    10 C    0.981    47 H    0.967    48 H    0.957
                            12 O    0.953
    12   8 O    2.307 --    13 C    1.121    11 C    0.953    14 O    0.166
    13   6 C    3.911 --    14 O    1.736    12 O    1.121    15 C    1.000
    14   8 O    2.025 --    13 C    1.736    12 O    0.166
    15   6 C    3.987 --    13 C    1.000    49 H    0.978    51 H    0.969
                            50 H    0.946
    16   6 C    3.921 --    24 C    1.327     9 N    1.195    17 N    1.191
    17   7 N    3.561 --    16 C    1.191     6 C    1.133    18 C    0.989
    18   6 C    3.961 --    17 N    0.989    19 C    0.979    53 H    0.965
                            52 H    0.959
    19   6 C    3.919 --    18 C    0.979    54 H    0.966    55 H    0.955
                            20 O    0.949
    20   8 O    2.313 --    21 C    1.131    19 C    0.949    22 O    0.170
    21   6 C    3.914 --    22 O    1.742    20 O    1.131    23 C    0.991
    22   8 O    2.034 --    21 C    1.742    20 O    0.170
    23   6 C    3.990 --    21 C    0.991    56 H    0.978    58 H    0.975
                            57 H    0.949
    24   6 C    3.941 --    25 C    1.419    16 C    1.327    59 H    0.950
    25   6 C    3.963 --    26 C    1.422    24 C    1.419    60 H    0.946
    26   6 C    3.937 --    25 C    1.422    27 C    1.313    61 H    0.950
    27   6 C    3.918 --    26 C    1.313    28 N    1.202    33 N    1.197
    28   7 N    3.575 --    27 C    1.202    31 C    1.133    29 C    0.982
    29   6 C    3.957 --    30 C    1.006    28 N    0.982    62 H    0.964
                            63 H    0.960
    30   6 C    3.987 --    29 C    1.006    64 H    0.984    66 H    0.983
                            65 H    0.982
    31   6 C    3.960 --    39 C    1.361    32 C    1.256    28 N    1.133
    32   6 C    3.962 --    36 C    1.357    31 C    1.256    33 N    1.141
    33   7 N    3.574 --    27 C    1.197    32 C    1.141    34 C    0.979
    34   6 C    3.956 --    35 C    1.005    33 N    0.979    68 H    0.965
                            67 H    0.962
    35   6 C    3.984 --    34 C    1.005    71 H    0.985    69 H    0.985
                            70 H    0.981
    36   6 C    3.968 --    37 C    1.415    32 C    1.357    72 H    0.958
    37   6 C    3.918 --    36 C    1.415    38 C    1.321    41 Cl   1.021
    38   6 C    3.917 --    39 C    1.413    37 C    1.321    40 Cl   1.020
    39   6 C    3.969 --    38 C    1.413    31 C    1.361    73 H    0.958
    40  17 Cl   1.170 --    38 C    1.020
    41  17 Cl   1.172 --    37 C    1.021
    42   1 H    0.995 --     4 C    0.967
    43   1 H    0.995 --     5 C    0.962
    44   1 H    0.996 --     8 C    0.962
    45   1 H    0.992 --    10 C    0.962
    46   1 H    0.994 --    10 C    0.956
    47   1 H    0.994 --    11 C    0.967
    48   1 H    0.991 --    11 C    0.957
    49   1 H    0.993 --    15 C    0.978
    50   1 H    0.990 --    15 C    0.946
    51   1 H    0.993 --    15 C    0.969
    52   1 H    0.992 --    18 C    0.959
    53   1 H    0.992 --    18 C    0.965
    54   1 H    0.993 --    19 C    0.966
    55   1 H    0.989 --    19 C    0.955
    56   1 H    0.994 --    23 C    0.978
    57   1 H    0.991 --    23 C    0.949
    58   1 H    0.995 --    23 C    0.975
    59   1 H    0.997 --    24 C    0.950
    60   1 H    0.997 --    25 C    0.946
    61   1 H    0.997 --    26 C    0.950
    62   1 H    0.993 --    29 C    0.964
    63   1 H    0.994 --    29 C    0.960
    64   1 H    0.996 --    30 C    0.984
    65   1 H    0.996 --    30 C    0.982
    66   1 H    0.998 --    30 C    0.983
    67   1 H    0.994 --    34 C    0.962
    68   1 H    0.993 --    34 C    0.965
    69   1 H    0.997 --    35 C    0.985
    70   1 H    0.994 --    35 C    0.981
    71   1 H    0.996 --    35 C    0.985
    72   1 H    0.992 --    36 C    0.958
    73   1 H    0.992 --    39 C    0.958
 ---------------------------------------------------------------------------

molecular dipole:
                 x           y           z       tot (Debye)
 q only:       17.090      -6.618      -0.146
   full:       17.679      -7.373       0.152      48.688

           -------------------------------------------------
          | TOTAL ENERGY             -120.273329731012 Eh   |
          | GRADIENT NORM               0.000218497647 Eh/α |
          | HOMO-LUMO GAP               1.700972024004 eV   |
           -------------------------------------------------

 * finished run on 2024/12/20 at 02:05:24.259
