   * xtb version 6.7.1 (edcfbbe) compiled by 'conda@3ef47c1a292c' on 2024-11-25

   ID    Z sym.   atoms
    1    6 C      1, 3-14
    2    7 N      2
    3    1 H      15-36

          program call               : xtb C0091.xyz --opt --namespace C0091 --charge +1
          :  Hamiltonian                  GFN2-xTB          :
 * total energy  :   -41.5588659 Eh     change       -0.2249514E-08 Eh
 * total energy  :   -41.5654977 Eh     change       -0.6631730E-02 Eh
 * total energy  :   -41.5670623 Eh     change       -0.1564595E-02 Eh
 * total energy  :   -41.5672476 Eh     change       -0.1853138E-03 Eh
 * total energy  :   -41.5674946 Eh     change       -0.2470643E-03 Eh
 * total energy  :   -41.5676170 Eh     change       -0.1223465E-03 Eh
 * total energy  :   -41.5677490 Eh     change       -0.1320093E-03 Eh
 * total energy  :   -41.5679213 Eh     change       -0.1723475E-03 Eh
 * total energy  :   -41.5681385 Eh     change       -0.2172080E-03 Eh
 * total energy  :   -41.5683790 Eh     change       -0.2404950E-03 Eh
 * total energy  :   -41.5689094 Eh     change       -0.5482757E-04 Eh
 * total energy  :   -41.5689455 Eh     change       -0.3609480E-04 Eh
 * total energy  :   -41.5689718 Eh     change       -0.2631858E-04 Eh
 * total energy  :   -41.5690095 Eh     change       -0.3772944E-04 Eh
 * total energy  :   -41.5690429 Eh     change       -0.3335302E-04 Eh
 * total energy  :   -41.5690790 Eh     change       -0.3611368E-04 Eh
 * total energy  :   -41.5690980 Eh     change       -0.1904598E-04 Eh
 * total energy  :   -41.5691178 Eh     change       -0.1975807E-04 Eh
 * total energy  :   -41.5691222 Eh     change       -0.4457924E-05 Eh
   *** GEOMETRY OPTIMIZATION CONVERGED AFTER 22 ITERATIONS ***

 final structure:
================
36
 xtb: 6.7.1 (edcfbbe)
C            1.00456899969012        0.01427561804360       -0.17624395209497
N            0.46535498344934       -1.15872060707350       -0.88585311014517
C            0.68448656492157       -2.41956370969829       -0.10115858244955
C            0.41656877671929       -2.40389471811331        1.40512659950092
C           -1.03634893905268       -2.34720794443044        1.88585824491970
C           -1.92550107460690       -3.46007326808525        1.31373717327588
C           -1.29663332899412       -4.82232234219854        1.44928118012004
C           -0.99152626080745       -5.58211022257894        0.32778831108226
C           -0.40070679277102       -6.82795025775876        0.45421398286575
C           -0.10361157698627       -7.32865465166469        1.70916967618150
C           -0.41254027462352       -6.58373637097255        2.83541606962498
C           -1.00589725652022       -5.34134885866643        2.70583403586007
C           -0.96365858629030       -0.94221564151333       -1.17336090872139
C            1.17510403217625       -1.30117912835551       -2.17333704134414
H            0.41657472012553        0.22426812983653        0.71412145646054
H            0.97120616797086        0.88787429242916       -0.82543487618689
H            2.03850964036216       -0.16527399571976        0.11341797212404
H            0.08280477833001       -3.20556652884493       -0.55892918101803
H            1.73595082750831       -2.68511284914083       -0.23057034629335
H            0.82709116398412       -3.35197621934582        1.76213002267697
H            0.98902786256225       -1.61399420156221        1.89158404177708
H           -1.00392660156526       -2.45593218963653        2.97065757735126
H           -1.49265367409967       -1.37414278273251        1.69133702808349
H           -2.87186664643731       -3.44731407025373        1.85871370549575
H           -2.15921436607048       -3.27012625891240        0.26400673551734
H           -1.24187013045802       -5.21307629879637       -0.65919847684000
H           -0.17855476690133       -7.40855815215984       -0.42833148043021
H            0.35536506857424       -8.29967240021431        1.81025217059535
H           -0.19618858855628       -6.97470278768779        3.81776864435947
H           -1.25694657257213       -4.77412307578523        3.59010555401558
H           -1.09225970145331       -0.03174078959160       -1.75684362354231
H           -1.36263264309620       -1.77809343811482       -1.74472718227293
H           -1.52852449380945       -0.84558708296165       -0.25092201819513
H            0.97725963679692       -0.43980873543058       -2.80921347188379
H            2.24911562164115       -1.37126852764324       -2.01056003635834
H            0.84139343086007       -2.19912993466522       -2.69053589412042

          :  Hamiltonian                  GFN2-xTB          :
         :: total energy             -41.569122233094 Eh    ::
         :: gradient norm              0.000317069875 Eh/a0 ::
         :: HOMO-LUMO gap              4.764515062913 eV    ::
         :: SCC energy               -42.245647076969 Eh    ::
         :: -> dispersion             -0.030794342762 Eh    ::
         :: repulsion energy           0.676524843875 Eh    ::

    * Orbital Energies and Occupations

         #    Occupation            Energy/Eh            Energy/eV
      -------------------------------------------------------------
         1        2.0000           -0.8683772             -23.6297
       ...           ...                  ...                  ...
        27        2.0000           -0.6111274             -16.6296
        28        2.0000           -0.5928592             -16.1325
        29        2.0000           -0.5830382             -15.8653
        30        2.0000           -0.5800680             -15.7845
        31        2.0000           -0.5765744             -15.6894
        32        2.0000           -0.5658531             -15.3976
        33        2.0000           -0.5598497             -15.2343
        34        2.0000           -0.5554216             -15.1138
        35        2.0000           -0.5508440             -14.9892
        36        2.0000           -0.5125941             -13.9484
        37        2.0000           -0.5093993             -13.8615
        38        2.0000           -0.4933284             -13.4241
        39        2.0000           -0.4877210             -13.2716 (HOMO)
        40                         -0.3126283              -8.5070 (LUMO)
        41                         -0.3118900              -8.4870
        42                         -0.2297245              -6.2511
        43                         -0.1835429              -4.9945
        44                         -0.1609095              -4.3786
        45                         -0.1516530              -4.1267
        46                         -0.1433956              -3.9020
        47                         -0.0776738              -2.1136
        48                         -0.0648910              -1.7658
        49                         -0.0351286              -0.9559
        50                         -0.0246334              -0.6703
       ...                                ...                  ...
        78                          0.5755906              15.6626
      -------------------------------------------------------------
                  HL-Gap            0.1750927 Eh            4.7645 eV

     #   Z          covCN         q      C6AA      α(0)
     1   6 C        3.721    -0.096    22.454     6.768
     2   7 N        3.621     0.145    18.778     6.436
     3   6 C        3.758    -0.045    21.432     6.600
     4   6 C        3.799    -0.076    21.949     6.671
     5   6 C        3.800    -0.064    21.726     6.636
     6   6 C        3.806    -0.071    21.850     6.654
     7   6 C        2.969     0.004    27.921     8.667
     8   6 C        2.925    -0.045    29.115     8.849
     9   6 C        2.919    -0.030    28.745     8.792
    10   6 C        2.920    -0.028    28.700     8.785
    11   6 C        2.919    -0.027    28.667     8.780
    12   6 C        2.925    -0.039    28.972     8.827
    13   6 C        3.723    -0.096    22.447     6.766
    14   6 C        3.732    -0.098    22.472     6.766
    15   1 H        0.925     0.104     1.745     2.066
    16   1 H        0.925     0.098     1.806     2.102
    17   1 H        0.925     0.099     1.798     2.097
    18   1 H        0.924     0.096     1.821     2.110
    19   1 H        0.924     0.081     1.964     2.192
    20   1 H        0.924     0.080     1.982     2.202
    21   1 H        0.925     0.056     2.248     2.345
    22   1 H        0.924     0.061     2.182     2.310
    23   1 H        0.924     0.029     2.604     2.523
    24   1 H        0.924     0.058     2.227     2.334
    25   1 H        0.924     0.028     2.609     2.526
    26   1 H        0.925     0.014     2.830     2.631
    27   1 H        0.926     0.039     2.465     2.455
    28   1 H        0.926     0.045     2.382     2.414
    29   1 H        0.926     0.045     2.389     2.417
    30   1 H        0.926     0.036     2.501     2.473
    31   1 H        0.925     0.095     1.829     2.115
    32   1 H        0.925     0.096     1.824     2.112
    33   1 H        0.925     0.108     1.715     2.048
    34   1 H        0.925     0.100     1.787     2.090
    35   1 H        0.925     0.098     1.800     2.098
    36   1 H        0.925     0.099     1.793     2.094

Wiberg/Mayer (AO) data.
largest (>0.10) Wiberg bond orders for each atom

     #   Z sym  total        # sym  WBO       # sym  WBO       # sym  WBO
 ---------------------------------------------------------------------------
     1   6 C    3.928 --    17 H    0.975    16 H    0.974    15 H    0.972
                             2 N    0.959
     2   7 N    3.816 --     1 C    0.959    13 C    0.959    14 C    0.959
                             3 C    0.916
     3   6 C    3.923 --     4 C    1.007    19 H    0.968    18 H    0.960
                             2 N    0.916
     4   6 C    3.983 --     3 C    1.007     5 C    1.006    21 H    0.971
                            20 H    0.959
     5   6 C    3.993 --     4 C    1.006     6 C    0.996    22 H    0.971
                            23 H    0.969
     6   6 C    3.995 --     7 C    1.008     5 C    0.996    25 H    0.974
                            24 H    0.964
     7   6 C    3.988 --     8 C    1.418    12 C    1.408     6 C    1.008
                            10 C    0.110
     8   6 C    3.991 --     9 C    1.438     7 C    1.418    26 H    0.967
                            11 C    0.110
     9   6 C    3.992 --    10 C    1.444     8 C    1.438    27 H    0.971
                            12 C    0.112
    10   6 C    3.992 --     9 C    1.444    11 C    1.434    28 H    0.970
                             7 C    0.110
    11   6 C    3.992 --    12 C    1.450    10 C    1.434    29 H    0.970
                             8 C    0.110
    12   6 C    3.992 --    11 C    1.450     7 C    1.408    30 H    0.968
                             9 C    0.112
    13   6 C    3.926 --    31 H    0.975    32 H    0.975    33 H    0.964
                             2 N    0.959
    14   6 C    3.929 --    36 H    0.976    35 H    0.975    34 H    0.974
                             2 N    0.959
    15   1 H    0.989 --     1 C    0.972
    16   1 H    0.990 --     1 C    0.974
    17   1 H    0.990 --     1 C    0.975
    18   1 H    0.991 --     3 C    0.960
    19   1 H    0.993 --     3 C    0.968
    20   1 H    0.993 --     4 C    0.959
    21   1 H    0.997 --     4 C    0.971
    22   1 H    0.996 --     5 C    0.971
    23   1 H    0.999 --     5 C    0.969
    24   1 H    0.997 --     6 C    0.964
    25   1 H    0.999 --     6 C    0.974
    26   1 H    1.000 --     8 C    0.967
    27   1 H    0.998 --     9 C    0.971
    28   1 H    0.997 --    10 C    0.970
    29   1 H    0.998 --    11 C    0.970
    30   1 H    0.999 --    12 C    0.968
    31   1 H    0.991 --    13 C    0.975
    32   1 H    0.991 --    13 C    0.975
    33   1 H    0.988 --    13 C    0.964
    34   1 H    0.990 --    14 C    0.974
    35   1 H    0.990 --    14 C    0.975
    36   1 H    0.990 --    14 C    0.976
 ---------------------------------------------------------------------------

molecular dipole:
                 x           y           z       tot (Debye)
 q only:        0.777      -2.632      -1.093
   full:        0.781      -2.632      -1.159       7.573

           -------------------------------------------------
          | TOTAL ENERGY              -41.569122233094 Eh   |
          | GRADIENT NORM               0.000317069875 Eh/α |
          | HOMO-LUMO GAP               4.764515062913 eV   |
           -------------------------------------------------

 * finished run on 2024/12/20 at 02:05:36.571
