   * xtb version 6.7.1 (edcfbbe) compiled by 'conda@3ef47c1a292c' on 2024-11-25

   ID    Z sym.   atoms
    1    6 C      1, 2, 4-11, 13, 14
    2    7 N      3, 12
    3    1 H      15-27

          program call               : xtb C0090.xyz --opt --namespace C0090 --charge +1
          :  Hamiltonian                  GFN2-xTB          :
 * total energy  :   -37.7518075 Eh     change       -0.1690381E-09 Eh
 * total energy  :   -37.7553325 Eh     change       -0.3525003E-02 Eh
 * total energy  :   -37.7559877 Eh     change       -0.6551877E-03 Eh
 * total energy  :   -37.7561410 Eh     change       -0.1532532E-03 Eh
 * total energy  :   -37.7563167 Eh     change       -0.1757063E-03 Eh
 * total energy  :   -37.7564276 Eh     change       -0.1109559E-03 Eh
 * total energy  :   -37.7565857 Eh     change       -0.1580585E-03 Eh
 * total energy  :   -37.7567239 Eh     change       -0.1382274E-03 Eh
 * total energy  :   -37.7567946 Eh     change       -0.7073871E-04 Eh
 * total energy  :   -37.7568338 Eh     change       -0.3913221E-04 Eh
 * total energy  :   -37.7569394 Eh     change       -0.2201973E-04 Eh
 * total energy  :   -37.7569558 Eh     change       -0.1635310E-04 Eh
 * total energy  :   -37.7569762 Eh     change       -0.2047961E-04 Eh
 * total energy  :   -37.7569928 Eh     change       -0.1655569E-04 Eh
 * total energy  :   -37.7570046 Eh     change       -0.1179803E-04 Eh
 * total energy  :   -37.7570114 Eh     change       -0.6817519E-05 Eh
 * total energy  :   -37.7570183 Eh     change       -0.6880486E-05 Eh
 * total energy  :   -37.7570242 Eh     change       -0.5916689E-05 Eh
 * total energy  :   -37.7570257 Eh     change       -0.1531472E-05 Eh
   *** GEOMETRY OPTIMIZATION CONVERGED AFTER 22 ITERATIONS ***

 final structure:
================
27
 xtb: 6.7.1 (edcfbbe)
C            1.67157130942539        0.52344850925192        0.59422364107765
C            0.33218597839207        1.23314829663090        0.41579634190759
N            0.50002727192145        2.43295114756265       -0.38949232193160
C            0.75943829006150        3.60842083130618        0.19876490045313
C            0.98824680726223        4.74465847362215       -0.53760197820033
C            0.95398801246557        4.69565185089988       -1.93878894975072
C            0.68023418750373        3.44903322144263       -2.52036472719653
C            0.46486591481842        2.34973610973078       -1.72654219791496
C            1.19238450938814        5.88367670850837       -2.75203227598770
C            0.52130438097562        6.07583736973970       -3.96320901863020
C            0.78725049386043        7.22651737167104       -4.69077626932475
N            1.65052480684823        8.14512057148746       -4.30147102539736
C            2.29224839577252        7.96896949644373       -3.16224182765924
C            2.10120168541405        6.86482525431795       -2.34476324783556
H            2.08345013388740        0.22040502478568       -0.36519950680387
H            1.52874324382951       -0.36547669490719        1.20093243549192
H            2.38962510368552        1.16809544304033        1.09509990060764
H           -0.37958748498337        0.57168087206529       -0.08156892550419
H           -0.07476250265554        1.51568957355271        1.38816189364732
H            0.77537982091786        3.62586604148331        1.27857810202547
H            1.17328701400329        5.67626798724651       -0.02730466872622
H            0.65516211335632        3.33936337655388       -3.59270392192669
H            0.25906889683115        1.37921036363765       -2.15349421233199
H           -0.21695939021682        5.37061855976272       -4.31067781108576
H            0.28636448058597        7.41878585985190       -5.62924654404411
H            2.98963533789146        8.74851968529525       -2.88921445749056
H            2.67387118875754        6.75355869501665       -1.43769332746790

          :  Hamiltonian                  GFN2-xTB          :
         :: total energy             -37.757025734228 Eh    ::
         :: gradient norm              0.000180590185 Eh/a0 ::
         :: HOMO-LUMO gap              0.663546766800 eV    ::
         :: SCC energy               -38.413554674147 Eh    ::
         :: -> dispersion             -0.023755113035 Eh    ::
         :: repulsion energy           0.656528939919 Eh    ::

    * Orbital Energies and Occupations

         #    Occupation            Energy/Eh            Energy/eV
      -------------------------------------------------------------
         1        2.0000           -0.8748807             -23.8067
       ...           ...                  ...                  ...
        23        2.0000           -0.6301430             -17.1471
        24        2.0000           -0.6272366             -17.0680
        25        2.0000           -0.6194687             -16.8566
        26        2.0000           -0.6117114             -16.6455
        27        2.0000           -0.6110327             -16.6270
        28        2.0000           -0.6100643             -16.6007
        29        2.0000           -0.6067283             -16.5099
        30        2.0000           -0.6002353             -16.3332
        31        2.0000           -0.5988432             -16.2954
        32        2.0000           -0.5600562             -15.2399
        33        2.0000           -0.5568125             -15.1516
        34        2.0000           -0.5410741             -14.7234
        35        2.0000           -0.4817904             -13.1102 (HOMO)
        36        0.0000           -0.4574055             -12.4466 (LUMO)
        37                         -0.4221810             -11.4881
        38                         -0.3718250             -10.1179
        39                         -0.3598953              -9.7933
        40                         -0.2973501              -8.0913
        41                         -0.2277981              -6.1987
        42                         -0.1706614              -4.6439
        43                         -0.0788841              -2.1465
        44                         -0.0488733              -1.3299
        45                         -0.0438220              -1.1925
        46                         -0.0354861              -0.9656
       ...                                ...                  ...
        69                          0.5055682              13.7572
      -------------------------------------------------------------
                  HL-Gap            0.0243849 Eh            0.6635 eV

     #   Z          covCN         q      C6AA      α(0)
     1   6 C        3.753    -0.123    22.921     6.827
     2   6 C        3.756    -0.028    21.135     6.555
     3   7 N        2.750     0.096    19.581     6.572
     4   6 C        2.888     0.031    27.314     8.568
     5   6 C        2.920    -0.023    28.570     8.765
     6   6 C        2.979     0.058    26.703     8.476
     7   6 C        2.920    -0.023    28.569     8.765
     8   6 C        2.889     0.031    27.312     8.568
     9   6 C        2.984     0.023    27.487     8.600
    10   6 C        2.917    -0.034    28.847     8.807
    11   6 C        2.909     0.067    26.499     8.441
    12   7 N        1.837    -0.173    25.547     7.490
    13   6 C        2.909     0.067    26.500     8.441
    14   6 C        2.917    -0.034    28.849     8.808
    15   1 H        0.925     0.066     2.130     2.283
    16   1 H        0.925     0.088     1.894     2.152
    17   1 H        0.925     0.066     2.131     2.283
    18   1 H        0.924     0.091     1.869     2.138
    19   1 H        0.924     0.091     1.872     2.140
    20   1 H        0.926     0.104     1.750     2.068
    21   1 H        0.926     0.100     1.785     2.089
    22   1 H        0.926     0.100     1.785     2.089
    23   1 H        0.926     0.104     1.747     2.067
    24   1 H        0.926     0.054     2.274     2.358
    25   1 H        0.926     0.074     2.041     2.234
    26   1 H        0.926     0.074     2.042     2.235
    27   1 H        0.926     0.054     2.276     2.359

Wiberg/Mayer (AO) data.
largest (>0.10) Wiberg bond orders for each atom

     #   Z sym  total        # sym  WBO       # sym  WBO       # sym  WBO
 ---------------------------------------------------------------------------
     1   6 C    3.977 --     2 C    0.997    17 H    0.984    15 H    0.983
                            16 H    0.974
     2   6 C    3.937 --     1 C    0.997    19 H    0.965    18 H    0.963
                             3 N    0.961
     3   7 N    3.746 --     4 C    1.308     8 C    1.307     2 C    0.961
     4   6 C    3.956 --     5 C    1.496     3 N    1.308    20 H    0.955
     5   6 C    3.983 --     4 C    1.496     6 C    1.345    21 H    0.958
     6   6 C    3.973 --     5 C    1.345     7 C    1.344     9 C    1.083
     7   6 C    3.983 --     8 C    1.498     6 C    1.344    22 H    0.958
     8   6 C    3.956 --     7 C    1.498     3 N    1.307    23 H    0.955
     9   6 C    3.986 --    10 C    1.370    14 C    1.370     6 C    1.083
    10   6 C    3.987 --    11 C    1.428     9 C    1.370    24 H    0.966
                            13 C    0.114
    11   6 C    3.975 --    12 N    1.442    10 C    1.428    25 H    0.959
                            14 C    0.114
    12   7 N    3.069 --    11 C    1.442    13 C    1.442
    13   6 C    3.975 --    12 N    1.442    14 C    1.428    26 H    0.959
                            10 C    0.114
    14   6 C    3.987 --    13 C    1.428     9 C    1.370    27 H    0.966
                            11 C    0.114
    15   1 H    0.996 --     1 C    0.983
    16   1 H    0.991 --     1 C    0.974
    17   1 H    0.996 --     1 C    0.984
    18   1 H    0.991 --     2 C    0.963
    19   1 H    0.991 --     2 C    0.965
    20   1 H    0.989 --     4 C    0.955
    21   1 H    0.990 --     5 C    0.958
    22   1 H    0.990 --     7 C    0.958
    23   1 H    0.989 --     8 C    0.955
    24   1 H    0.997 --    10 C    0.966
    25   1 H    0.993 --    11 C    0.959
    26   1 H    0.993 --    13 C    0.959
    27   1 H    0.997 --    14 C    0.966
 ---------------------------------------------------------------------------

molecular dipole:
                 x           y           z       tot (Debye)
 q only:        1.511       6.094      -1.820
   full:        1.381       5.706      -1.542      15.429

           -------------------------------------------------
          | TOTAL ENERGY              -37.757025734228 Eh   |
          | GRADIENT NORM               0.000180590185 Eh/α |
          | HOMO-LUMO GAP               0.663546766800 eV   |
           -------------------------------------------------

 * finished run on 2024/12/20 at 02:05:35.530
