   * xtb version 6.7.1 (edcfbbe) compiled by 'conda@3ef47c1a292c' on 2024-11-25

   ID    Z sym.   atoms
    1    6 C      1, 2, 4, 6, 8-14
    2    8 O      3
    3    7 N      5, 7
    4    1 H      15-27

          program call               : xtb C0096.xyz --opt --namespace C0096 --charge +1
          :  Hamiltonian                  GFN2-xTB          :
 * total energy  :   -39.7128676 Eh     change       -0.6530101E-09 Eh
 * total energy  :   -39.7184169 Eh     change       -0.5549344E-02 Eh
 * total energy  :   -39.7194304 Eh     change       -0.1013502E-02 Eh
 * total energy  :   -39.7196499 Eh     change       -0.2195083E-03 Eh
 * total energy  :   -39.7198297 Eh     change       -0.1797855E-03 Eh
 * total energy  :   -39.7199685 Eh     change       -0.1387423E-03 Eh
 * total energy  :   -39.7201937 Eh     change       -0.2252502E-03 Eh
 * total energy  :   -39.7205009 Eh     change       -0.3072117E-03 Eh
 * total energy  :   -39.7208309 Eh     change       -0.3299986E-03 Eh
 * total energy  :   -39.7209945 Eh     change       -0.1636185E-03 Eh
 * total energy  :   -39.7282995 Eh     change       -0.1032288E-03 Eh
 * total energy  :   -39.7284320 Eh     change       -0.1324423E-03 Eh
 * total energy  :   -39.7284783 Eh     change       -0.4632504E-04 Eh
 * total energy  :   -39.7285017 Eh     change       -0.2338311E-04 Eh
 * total energy  :   -39.7285141 Eh     change       -0.1241538E-04 Eh
 * total energy  :   -39.7285325 Eh     change       -0.1842916E-04 Eh
 * total energy  :   -39.7285394 Eh     change       -0.6861398E-05 Eh
 * total energy  :   -39.7285470 Eh     change       -0.7597127E-05 Eh
 * total energy  :   -39.7285493 Eh     change       -0.2327178E-05 Eh
   *** GEOMETRY OPTIMIZATION CONVERGED AFTER 74 ITERATIONS ***

 final structure:
================
27
 xtb: 6.7.1 (edcfbbe)
C            0.77204038094409       -1.22126193267996        0.26222762633138
C            0.63484513075825       -0.07923925868356       -0.68230932400835
O            0.32707455271083        1.04190056624517       -0.38519445581387
C            0.97708323183778       -0.40690524920481       -2.15793436854468
N            0.61642270108897        0.71148653457377       -2.98101446845155
C            1.03130739355145        1.95990754859791       -2.76047742099667
N            0.37426003966170        2.82662302454493       -3.51935606735243
C           -0.54274957861225        2.12053673762554       -4.27104074173852
C           -0.39728400139547        0.76490764836490       -3.91969277668338
C           -1.18683714217341       -0.21703732136466       -4.50474123148577
C           -2.11411497370144        0.19950945986827       -5.43812393724870
C           -2.25685164788202        1.54553153999422       -5.78686092909685
C           -1.47799363889360        2.52941809294080       -5.21386471126965
C            0.55379048016032        4.25211030250704       -3.55161021149671
H            0.05311240210972       -1.11820716685518        1.07192344014822
H            1.76500365063907       -1.17492269581294        0.71153051910459
H            0.66036767168808       -2.18371350825102       -0.22630329481678
H            2.05114599250443       -0.60943534418647       -2.21911184878693
H            0.43479996200246       -1.29231130536764       -2.48876576486403
H            1.81227865160847        2.22792663300321       -2.07436322075341
H           -1.08752919566977       -1.25955861029064       -4.25016549928244
H           -2.74714889444646       -0.53268714337355       -5.91315778698250
H           -2.99566019506549        1.81839053233568       -6.52312263548347
H           -1.59003117180685        3.56597711189514       -5.48536427483918
H           -0.36825042779836        4.74947742486363       -3.24717457236156
H            1.35219073622261        4.53828859258374       -2.87102107477384
H            0.80837788995721        4.57415778612570       -4.56222096845431

          :  Hamiltonian                  GFN2-xTB          :
         :: total energy             -39.728549322882 Eh    ::
         :: gradient norm              0.000337873450 Eh/a0 ::
         :: HOMO-LUMO gap              3.469400750683 eV    ::
         :: SCC energy               -40.344691463208 Eh    ::
         :: -> dispersion             -0.023834785716 Eh    ::
         :: repulsion energy           0.616142140326 Eh    ::

    * Orbital Energies and Occupations

         #    Occupation            Energy/Eh            Energy/eV
      -------------------------------------------------------------
         1        2.0000           -0.8800560             -23.9475
       ...           ...                  ...                  ...
        24        2.0000           -0.6417680             -17.4634
        25        2.0000           -0.6406361             -17.4326
        26        2.0000           -0.6300955             -17.1458
        27        2.0000           -0.6254154             -17.0184
        28        2.0000           -0.6207092             -16.8904
        29        2.0000           -0.6075177             -16.5314
        30        2.0000           -0.6041516             -16.4398
        31        2.0000           -0.5984542             -16.2848
        32        2.0000           -0.5817245             -15.8295
        33        2.0000           -0.5746241             -15.6363
        34        2.0000           -0.5572525             -15.1636
        35        2.0000           -0.5521651             -15.0252
        36        2.0000           -0.5409894             -14.7211 (HOMO)
        37                         -0.4134912             -11.2517 (LUMO)
        38                         -0.3948047             -10.7432
        39                         -0.3652065              -9.9378
        40                         -0.3566781              -9.7057
        41                         -0.2394446              -6.5156
        42                         -0.1750844              -4.7643
        43                         -0.1319023              -3.5892
        44                         -0.0847991              -2.3075
        45                         -0.0638152              -1.7365
        46                         -0.0376429              -1.0243
        47                         -0.0266123              -0.7242
       ...                                ...                  ...
        69                          0.5398399              14.6898
      -------------------------------------------------------------
                  HL-Gap            0.1274981 Eh            3.4694 eV

     #   Z          covCN         q      C6AA      α(0)
     1   6 C        3.754    -0.154    23.539     6.918
     2   6 C        2.809     0.245    22.908     7.842
     3   8 O        0.857    -0.329    20.320     6.044
     4   6 C        3.743    -0.050    21.542     6.621
     5   7 N        2.829     0.037    20.588     6.739
     6   6 C        3.068     0.074    26.285     8.407
     7   7 N        2.824     0.049    20.393     6.707
     8   6 C        3.122     0.039    26.947     8.501
     9   6 C        3.110     0.040    26.965     8.507
    10   6 C        2.909    -0.033    28.812     8.802
    11   6 C        2.926    -0.017    28.436     8.745
    12   6 C        2.926    -0.017    28.439     8.745
    13   6 C        2.909    -0.031    28.779     8.797
    14   6 C        3.692    -0.078    22.182     6.739
    15   1 H        0.925     0.109     1.708     2.044
    16   1 H        0.924     0.111     1.686     2.031
    17   1 H        0.925     0.080     1.979     2.200
    18   1 H        0.924     0.103     1.754     2.071
    19   1 H        0.925     0.105     1.743     2.065
    20   1 H        0.926     0.115     1.657     2.013
    21   1 H        0.926     0.067     2.124     2.279
    22   1 H        0.926     0.081     1.967     2.193
    23   1 H        0.926     0.082     1.959     2.189
    24   1 H        0.926     0.075     2.029     2.228
    25   1 H        0.924     0.103     1.756     2.072
    26   1 H        0.925     0.096     1.825     2.113
    27   1 H        0.924     0.100     1.788     2.091

Wiberg/Mayer (AO) data.
largest (>0.10) Wiberg bond orders for each atom

     #   Z sym  total        # sym  WBO       # sym  WBO       # sym  WBO
 ---------------------------------------------------------------------------
     1   6 C    3.981 --     2 C    1.031    17 H    0.975    15 H    0.959
                            16 H    0.928
     2   6 C    3.919 --     3 O    1.878     1 C    1.031     4 C    0.932
     3   8 O    2.126 --     2 C    1.878
     4   6 C    3.952 --     5 N    0.996    19 H    0.952    18 H    0.939
                             2 C    0.932
     5   7 N    3.670 --     6 C    1.345     9 C    1.117     4 C    0.996
     6   6 C    3.953 --     7 N    1.377     5 N    1.345    20 H    0.952
     7   7 N    3.689 --     6 C    1.377     8 C    1.123    14 C    0.991
     8   6 C    3.952 --    13 C    1.340     9 C    1.275     7 N    1.123
     9   6 C    3.951 --    10 C    1.344     8 C    1.275     5 N    1.117
    10   6 C    3.987 --    11 C    1.491     9 C    1.344    21 H    0.963
                            13 C    0.118
    11   6 C    3.983 --    10 C    1.491    12 C    1.380    22 H    0.966
    12   6 C    3.986 --    13 C    1.493    11 C    1.380    23 H    0.966
    13   6 C    3.984 --    12 C    1.493     8 C    1.340    24 H    0.963
                            10 C    0.118
    14   6 C    3.937 --     7 N    0.991    26 H    0.976    27 H    0.965
                            25 H    0.963
    15   1 H    0.988 --     1 C    0.959
    16   1 H    0.987 --     1 C    0.928
    17   1 H    0.994 --     1 C    0.975
    18   1 H    0.988 --     4 C    0.939
    19   1 H    0.989 --     4 C    0.952
    20   1 H    0.986 --     6 C    0.952
    21   1 H    0.995 --    10 C    0.963
    22   1 H    0.993 --    11 C    0.966
    23   1 H    0.993 --    12 C    0.966
    24   1 H    0.994 --    13 C    0.963
    25   1 H    0.988 --    14 C    0.963
    26   1 H    0.990 --    14 C    0.976
    27   1 H    0.989 --    14 C    0.965
 ---------------------------------------------------------------------------

molecular dipole:
                 x           y           z       tot (Debye)
 q only:        0.583       2.145      -6.289
   full:        0.805       2.023      -6.217      16.743

           -------------------------------------------------
          | TOTAL ENERGY              -39.728549322882 Eh   |
          | GRADIENT NORM               0.000337873450 Eh/α |
          | HOMO-LUMO GAP               3.469400750683 eV   |
           -------------------------------------------------

 * finished run on 2024/12/20 at 02:05:44.833
