   * xtb version 6.7.1 (edcfbbe) compiled by 'conda@3ef47c1a292c' on 2024-11-25

   ID    Z sym.   atoms
    1    7 N      1, 2, 5, 6
    2    6 C      3, 4, 7-9
    3    1 H      10-18

          program call               : xtb C0095.xyz --opt --namespace C0095 --charge +1
          :  Hamiltonian                  GFN2-xTB          :
 * total energy  :   -26.4878281 Eh     change       -0.7696244E-10 Eh
 * total energy  :   -26.4983727 Eh     change       -0.1054463E-01 Eh
 * total energy  :   -26.5006722 Eh     change       -0.2299415E-02 Eh
 * total energy  :   -26.5010007 Eh     change       -0.3285307E-03 Eh
 * total energy  :   -26.5011913 Eh     change       -0.1906283E-03 Eh
 * total energy  :   -26.5012492 Eh     change       -0.5783106E-04 Eh
 * total energy  :   -26.5012703 Eh     change       -0.2117592E-04 Eh
 * total energy  :   -26.5013126 Eh     change       -0.4229531E-04 Eh
 * total energy  :   -26.5013359 Eh     change       -0.2326482E-04 Eh
 * total energy  :   -26.5013765 Eh     change       -0.4063466E-04 Eh
 * total energy  :   -26.5015032 Eh     change       -0.4637317E-04 Eh
 * total energy  :   -26.5015573 Eh     change       -0.5405529E-04 Eh
 * total energy  :   -26.5016131 Eh     change       -0.5580526E-04 Eh
 * total energy  :   -26.5016643 Eh     change       -0.5120038E-04 Eh
 * total energy  :   -26.5016898 Eh     change       -0.2547257E-04 Eh
 * total energy  :   -26.5016740 Eh     change        0.1572749E-04 Eh
 * total energy  :   -26.5017016 Eh     change       -0.2758492E-04 Eh
 * total energy  :   -26.5017067 Eh     change       -0.5100203E-05 Eh
 * total energy  :   -26.5017087 Eh     change       -0.1985726E-05 Eh
   *** GEOMETRY OPTIMIZATION CONVERGED AFTER 20 ITERATIONS ***

 final structure:
================
18
 xtb: 6.7.1 (edcfbbe)
N            1.19663400040330        0.00300763267716       -0.41652454117879
N            0.41417894465579       -0.93336111871700       -0.97286490806090
C            0.36318527171922       -2.25028309436603       -0.66429646856188
C           -0.49320987011197       -2.79687993825684       -1.59121519326340
N           -0.88167036557585       -1.78260320269749       -2.38072357569326
N           -0.33794552192480       -0.65697612752726       -1.99700565625588
C           -1.82613169272214       -1.81146371324908       -3.47202864170119
C           -3.23593833212800       -1.91155003249309       -2.94480287781787
C           -4.16899141102056       -1.01661693538849       -3.20151016357932
H            0.97892350176220        0.94398768044271       -0.72129378956347
H            1.37946721727136       -0.10475301683411        0.57257441674169
H            0.90977553612047       -2.69390984829733        0.14145819610891
H           -0.81885885204895       -3.80843198873046       -1.72365177257278
H           -1.69540940221207       -0.88960540917270       -4.04135573629093
H           -1.59829738647900       -2.67455101065958       -4.10519754175288
H           -3.44449610577113       -2.78536541973600       -2.34299112965075
H           -5.17144922369776       -1.12920386608233       -2.82858363511142
H           -3.97789630823983       -0.14656059091208       -3.80694698179591

          :  Hamiltonian                  GFN2-xTB          :
         :: total energy             -26.501708694417 Eh    ::
         :: gradient norm              0.000692160653 Eh/a0 ::
         :: HOMO-LUMO gap              3.164971856181 eV    ::
         :: SCC energy               -26.876888280756 Eh    ::
         :: -> dispersion             -0.011890854179 Eh    ::
         :: repulsion energy           0.375179586339 Eh    ::

    * Orbital Energies and Occupations

         #    Occupation            Energy/Eh            Energy/eV
      -------------------------------------------------------------
         1        2.0000           -0.9377013             -25.5162
       ...           ...                  ...                  ...
        12        2.0000           -0.7139006             -19.4262
        13        2.0000           -0.7089360             -19.2911
        14        2.0000           -0.6952409             -18.9185
        15        2.0000           -0.6824119             -18.5694
        16        2.0000           -0.6768469             -18.4179
        17        2.0000           -0.6560567             -17.8522
        18        2.0000           -0.6322299             -17.2039
        19        2.0000           -0.6224695             -16.9383
        20        2.0000           -0.6217642             -16.9191
        21        2.0000           -0.6054094             -16.4740
        22        2.0000           -0.5833872             -15.8748
        23        2.0000           -0.5698941             -15.5076
        24        2.0000           -0.5534887             -15.0612 (HOMO)
        25                         -0.4371782             -11.8962 (LUMO)
        26                         -0.3918091             -10.6617
        27                         -0.3504643              -9.5366
        28                         -0.2236352              -6.0854
        29                         -0.1558207              -4.2401
        30                         -0.1100232              -2.9939
        31                         -0.0839405              -2.2841
        32                         -0.0410645              -1.1174
        33                         -0.0393988              -1.0721
        34                         -0.0194254              -0.5286
        35                          0.0010257               0.0279
       ...                                ...                  ...
        45                          0.4821344              13.1195
      -------------------------------------------------------------
                  HL-Gap            0.1163106 Eh            3.1650 eV

     #   Z          covCN         q      C6AA      α(0)
     1   7 N        2.716    -0.214    25.661     7.523
     2   7 N        3.108     0.257    17.104     6.142
     3   6 C        3.005    -0.032    28.788     8.801
     4   6 C        3.019    -0.001    28.041     8.686
     5   7 N        3.032     0.153    18.657     6.415
     6   7 N        2.151    -0.142    24.598     7.359
     7   6 C        3.748    -0.035    21.264     6.577
     8   6 C        2.887    -0.040    28.997     8.828
     9   6 C        2.837    -0.075    29.873     8.957
    10   1 H        0.860     0.235     0.945     1.523
    11   1 H        0.860     0.226     0.984     1.554
    12   1 H        0.927     0.118     1.629     1.996
    13   1 H        0.926     0.120     1.613     1.986
    14   1 H        0.924     0.112     1.679     2.027
    15   1 H        0.924     0.101     1.776     2.084
    16   1 H        0.925     0.060     2.202     2.320
    17   1 H        0.926     0.085     1.931     2.173
    18   1 H        0.926     0.074     2.041     2.234

Wiberg/Mayer (AO) data.
largest (>0.10) Wiberg bond orders for each atom

     #   Z sym  total        # sym  WBO       # sym  WBO       # sym  WBO
 ---------------------------------------------------------------------------
     1   7 N    3.213 --     2 N    1.109    11 H    0.927    10 H    0.926
                             6 N    0.110
     2   7 N    3.787 --     6 N    1.294     3 C    1.250     1 N    1.109
     3   6 C    3.941 --     4 C    1.499     2 N    1.250    12 H    0.958
     4   6 C    3.959 --     3 C    1.499     5 N    1.316    13 H    0.957
                             6 N    0.113
     5   7 N    3.744 --     4 C    1.316     6 N    1.275     7 C    0.959
     6   7 N    2.969 --     2 N    1.294     5 N    1.275     4 C    0.113
                             1 N    0.110
     7   6 C    3.927 --     8 C    0.985    14 H    0.959     5 N    0.959
                            15 H    0.946
     8   6 C    3.977 --     9 C    1.989     7 C    0.985    16 H    0.963
     9   6 C    3.981 --     8 C    1.989    18 H    0.970    17 H    0.968
    10   1 H    0.945 --     1 N    0.926
    11   1 H    0.948 --     1 N    0.927
    12   1 H    0.986 --     3 C    0.958
    13   1 H    0.986 --     4 C    0.957
    14   1 H    0.987 --     7 C    0.959
    15   1 H    0.988 --     7 C    0.946
    16   1 H    0.996 --     8 C    0.963
    17   1 H    0.992 --     9 C    0.968
    18   1 H    0.994 --     9 C    0.970
 ---------------------------------------------------------------------------

molecular dipole:
                 x           y           z       tot (Debye)
 q only:       -0.905      -2.544      -2.828
   full:       -0.884      -2.743      -2.526       9.741

           -------------------------------------------------
          | TOTAL ENERGY              -26.501708694417 Eh   |
          | GRADIENT NORM               0.000692160653 Eh/α |
          | HOMO-LUMO GAP               3.164971856181 eV   |
           -------------------------------------------------

 * finished run on 2024/12/20 at 02:05:43.547
