   * xtb version 6.7.1 (edcfbbe) compiled by 'conda@3ef47c1a292c' on 2024-11-25

   ID    Z sym.   atoms
    1    6 C      1-3, 5-8, 10-12
    2    7 N      4, 9
    3    1 H      13-31

          program call               : xtb C0092.xyz --opt --namespace C0092 --charge +1
          :  Hamiltonian                  GFN2-xTB          :
 * total energy  :   -36.6166545 Eh     change       -0.4855849E-10 Eh
 * total energy  :   -36.6193470 Eh     change       -0.2692480E-02 Eh
 * total energy  :   -36.6198013 Eh     change       -0.4542700E-03 Eh
 * total energy  :   -36.6198889 Eh     change       -0.8763159E-04 Eh
 * total energy  :   -36.6199818 Eh     change       -0.9292784E-04 Eh
 * total energy  :   -36.6200684 Eh     change       -0.8659524E-04 Eh
 * total energy  :   -36.6201672 Eh     change       -0.9877232E-04 Eh
 * total energy  :   -36.6202671 Eh     change       -0.9990445E-04 Eh
 * total energy  :   -36.6203457 Eh     change       -0.7858935E-04 Eh
 * total energy  :   -36.6204115 Eh     change       -0.6586834E-04 Eh
 * total energy  :   -36.6218865 Eh     change       -0.2074991E-04 Eh
 * total energy  :   -36.6219133 Eh     change       -0.2686735E-04 Eh
 * total energy  :   -36.6219234 Eh     change       -0.1010444E-04 Eh
 * total energy  :   -36.6219325 Eh     change       -0.9048009E-05 Eh
 * total energy  :   -36.6219429 Eh     change       -0.1039894E-04 Eh
 * total energy  :   -36.6219529 Eh     change       -0.9975971E-05 Eh
 * total energy  :   -36.6219688 Eh     change       -0.1594362E-04 Eh
 * total energy  :   -36.6219777 Eh     change       -0.8883022E-05 Eh
 * total energy  :   -36.6219814 Eh     change       -0.3685534E-05 Eh
   *** GEOMETRY OPTIMIZATION CONVERGED AFTER 48 ITERATIONS ***

 final structure:
================
31
 xtb: 6.7.1 (edcfbbe)
C            0.08643679926507        0.61797839340629        0.62061326571971
C            0.89038478896675        1.91029779130353        0.69110178050452
C            1.79548415212460        2.13221702202754       -0.52533584680985
N            1.07160102039071        2.27322457250766       -1.77997814418477
C            0.50574424901911        3.40334020720861       -2.14166456500269
C            0.52116912393606        4.68462866416516       -1.36839451149935
C            0.03072276494692        5.71789020372767       -2.39268804494527
C           -0.74877919161460        4.87963660649562       -3.40906272736838
N           -0.17937298088137        3.55304027138155       -3.25754826859422
C           -0.36808922151159        2.50249277621232       -4.22842486470452
C            0.79757511774852        1.52882561638932       -4.10032268729585
C            0.94386475368132        1.10508628558027       -2.64329145746909
H           -0.68141762389622        0.66727654242987       -0.14789101529727
H           -0.40950062737404        0.44260243861866        1.57080999274283
H            0.73461702260882       -0.23100899319497        0.41860833521996
H            0.21207562861026        2.75527505975776        0.81521337111378
H            1.53948765952230        1.88056676171519        1.56698617195144
H            2.40684428799961        3.02299687082271       -0.36462599091783
H            2.46694295271313        1.27835246575135       -0.62810414126945
H           -0.16808067608080        4.60688933550162       -0.52469759622578
H            1.50570751201385        4.92554926536865       -0.97141942302875
H           -0.58369528732444        6.49054806762191       -1.93975446361980
H            0.88136034638085        6.19834135961105       -2.87500015248354
H           -1.82007228383968        4.84823912176399       -3.18348246025096
H           -0.62299239543092        5.23180345037111       -4.43364008482354
H           -0.39845600105732        2.94625822398792       -5.22574303921908
H           -1.32430558573452        1.99739316175770       -4.05237065669604
H            1.71577536970370        2.01527896307272       -4.43381781656308
H            0.62861666735537        0.65298078751752       -4.72334722305562
H            0.07824957371971        0.51232140076614       -2.33200318001281
H            1.83549208403692        0.48843730635701       -2.52138455591383

          :  Hamiltonian                  GFN2-xTB          :
         :: total energy             -36.621981379485 Eh    ::
         :: gradient norm              0.000331441623 Eh/a0 ::
         :: HOMO-LUMO gap              4.126920538153 eV    ::
         :: SCC energy               -37.144446462354 Eh    ::
         :: -> dispersion             -0.024449521949 Eh    ::
         :: repulsion energy           0.522465082869 Eh    ::

    * Orbital Energies and Occupations

         #    Occupation            Energy/Eh            Energy/eV
      -------------------------------------------------------------
         1        2.0000           -0.8573398             -23.3294
       ...           ...                  ...                  ...
        22        2.0000           -0.6388728             -17.3846
        23        2.0000           -0.6297874             -17.1374
        24        2.0000           -0.6172659             -16.7967
        25        2.0000           -0.6147603             -16.7285
        26        2.0000           -0.6104617             -16.6115
        27        2.0000           -0.6082319             -16.5508
        28        2.0000           -0.6014353             -16.3659
        29        2.0000           -0.5934243             -16.1479
        30        2.0000           -0.5828875             -15.8612
        31        2.0000           -0.5778699             -15.7246
        32        2.0000           -0.5660661             -15.4034
        33        2.0000           -0.5604025             -15.2493
        34        2.0000           -0.5384336             -14.6515 (HOMO)
        35                         -0.3867721             -10.5246 (LUMO)
        36                         -0.1873658              -5.0985
        37                         -0.1614246              -4.3926
        38                         -0.1262442              -3.4353
        39                         -0.0908811              -2.4730
        40                         -0.0689641              -1.8766
        41                         -0.0548322              -1.4921
        42                         -0.0468758              -1.2756
        43                         -0.0354736              -0.9653
        44                         -0.0305047              -0.8301
        45                         -0.0271865              -0.7398
       ...                                ...                  ...
        67                          0.3749009              10.2016
      -------------------------------------------------------------
                  HL-Gap            0.1516615 Eh            4.1269 eV

     #   Z          covCN         q      C6AA      α(0)
     1   6 C        3.751    -0.114    22.740     6.800
     2   6 C        3.800    -0.066    21.767     6.643
     3   6 C        3.747    -0.024    21.066     6.547
     4   7 N        2.737    -0.019    21.611     6.904
     5   6 C        2.907     0.144    24.863     8.176
     6   6 C        3.837    -0.078    21.969     6.668
     7   6 C        3.835    -0.073    21.860     6.652
     8   6 C        3.793    -0.019    20.926     6.514
     9   7 N        2.776    -0.018    21.604     6.903
    10   6 C        3.748    -0.018    20.965     6.531
    11   6 C        3.808    -0.077    21.965     6.672
    12   6 C        3.757    -0.020    20.985     6.531
    13   1 H        0.925     0.036     2.509     2.477
    14   1 H        0.925     0.062     2.171     2.304
    15   1 H        0.925     0.050     2.321     2.382
    16   1 H        0.924     0.045     2.382     2.413
    17   1 H        0.924     0.068     2.110     2.272
    18   1 H        0.924     0.068     2.104     2.268
    19   1 H        0.924     0.079     1.986     2.204
    20   1 H        0.924     0.093     1.850     2.127
    21   1 H        0.925     0.087     1.907     2.159
    22   1 H        0.925     0.082     1.957     2.187
    23   1 H        0.925     0.073     2.052     2.240
    24   1 H        0.924     0.076     2.016     2.221
    25   1 H        0.924     0.080     1.976     2.198
    26   1 H        0.924     0.084     1.936     2.176
    27   1 H        0.924     0.076     2.023     2.224
    28   1 H        0.924     0.070     2.083     2.257
    29   1 H        0.925     0.086     1.921     2.167
    30   1 H        0.924     0.081     1.972     2.196
    31   1 H        0.924     0.085     1.929     2.172

Wiberg/Mayer (AO) data.
largest (>0.10) Wiberg bond orders for each atom

     #   Z sym  total        # sym  WBO       # sym  WBO       # sym  WBO
 ---------------------------------------------------------------------------
     1   6 C    3.992 --     2 C    1.021    15 H    0.986    13 H    0.986
                            14 H    0.983
     2   6 C    3.989 --     1 C    1.021     3 C    0.992    16 H    0.974
                            17 H    0.970
     3   6 C    3.949 --     2 C    0.992     4 N    0.969    19 H    0.966
                            18 H    0.962
     4   7 N    3.599 --     5 C    1.402    12 C    0.970     3 C    0.969
                             9 N    0.151
     5   6 C    3.964 --     4 N    1.402     9 N    1.387     6 C    1.012
     6   6 C    3.987 --     5 C    1.012     7 C    1.000    21 H    0.955
                            20 H    0.942
     7   6 C    3.986 --     8 C    1.004     6 C    1.000    23 H    0.978
                            22 H    0.975
     8   6 C    3.956 --     7 C    1.004     9 N    0.972    25 H    0.968
                            24 H    0.962
     9   7 N    3.597 --     5 C    1.387    10 C    0.980     8 C    0.972
                             4 N    0.151
    10   6 C    3.960 --    11 C    1.004     9 N    0.980    26 H    0.963
                            27 H    0.958
    11   6 C    3.989 --    12 C    1.007    10 C    1.004    28 H    0.973
                            29 H    0.967
    12   6 C    3.958 --    11 C    1.007     4 N    0.970    31 H    0.963
                            30 H    0.956
    13   1 H    0.999 --     1 C    0.986
    14   1 H    0.996 --     1 C    0.983
    15   1 H    0.997 --     1 C    0.986
    16   1 H    0.998 --     2 C    0.974
    17   1 H    0.994 --     2 C    0.970
    18   1 H    0.995 --     3 C    0.962
    19   1 H    0.993 --     3 C    0.966
    20   1 H    0.991 --     6 C    0.942
    21   1 H    0.992 --     6 C    0.955
    22   1 H    0.993 --     7 C    0.975
    23   1 H    0.995 --     7 C    0.978
    24   1 H    0.994 --     8 C    0.962
    25   1 H    0.993 --     8 C    0.968
    26   1 H    0.993 --    10 C    0.963
    27   1 H    0.994 --    10 C    0.958
    28   1 H    0.995 --    11 C    0.973
    29   1 H    0.992 --    11 C    0.967
    30   1 H    0.993 --    12 C    0.956
    31   1 H    0.992 --    12 C    0.963
 ---------------------------------------------------------------------------

molecular dipole:
                 x           y           z       tot (Debye)
 q only:        0.848       5.648      -4.372
   full:        0.831       5.642      -4.395      18.301

           -------------------------------------------------
          | TOTAL ENERGY              -36.621981379485 Eh   |
          | GRADIENT NORM               0.000331441623 Eh/α |
          | HOMO-LUMO GAP               4.126920538153 eV   |
           -------------------------------------------------

 * finished run on 2024/12/20 at 02:05:37.642
