   * xtb version 6.7.1 (edcfbbe) compiled by 'conda@3ef47c1a292c' on 2024-11-25

   ID    Z sym.   atoms
    1    6 C      1-6, 8-12
    2    7 N      7
    3    1 H      13-26

          program call               : xtb C0099.xyz --opt --namespace C0099 --charge +1
          :  Hamiltonian                  GFN2-xTB          :
 * total energy  :   -33.1931796 Eh     change       -0.8576251E-11 Eh
 * total energy  :   -33.1964558 Eh     change       -0.3276218E-02 Eh
 * total energy  :   -33.1971527 Eh     change       -0.6968208E-03 Eh
 * total energy  :   -33.1974123 Eh     change       -0.2596049E-03 Eh
 * total energy  :   -33.1976186 Eh     change       -0.2063404E-03 Eh
 * total energy  :   -33.1977100 Eh     change       -0.9141468E-04 Eh
 * total energy  :   -33.1978139 Eh     change       -0.1038492E-03 Eh
 * total energy  :   -33.1979492 Eh     change       -0.1352905E-03 Eh
 * total energy  :   -33.1981277 Eh     change       -0.1784998E-03 Eh
 * total energy  :   -33.1983830 Eh     change       -0.2553752E-03 Eh
 * total energy  :   -33.2007931 Eh     change       -0.7968680E-04 Eh
 * total energy  :   -33.2009092 Eh     change       -0.1161138E-03 Eh
 * total energy  :   -33.2009197 Eh     change       -0.1049429E-04 Eh
 * total energy  :   -33.2009644 Eh     change       -0.4472482E-04 Eh
 * total energy  :   -33.2009760 Eh     change       -0.1154073E-04 Eh
 * total energy  :   -33.2009840 Eh     change       -0.7998434E-05 Eh
 * total energy  :   -33.2009961 Eh     change       -0.1210294E-04 Eh
 * total energy  :   -33.2010027 Eh     change       -0.6639410E-05 Eh
 * total energy  :   -33.2010071 Eh     change       -0.4434173E-05 Eh
   *** GEOMETRY OPTIMIZATION CONVERGED AFTER 27 ITERATIONS ***

 final structure:
================
26
 xtb: 6.7.1 (edcfbbe)
C           -0.33695887795283        1.05343632064687        0.85940241080822
C            0.89418556437422        1.26486475474110       -0.01812854897857
C            1.32413492626163        0.00209124184822       -0.68479645449236
C            0.57783066762079       -1.08895515146572       -0.75531581940252
C           -0.79293546093985       -1.18273697572883       -0.13684940991253
C           -1.37541503247798        0.21503840182330        0.12080199967408
N           -1.69912511916488       -1.93788555308066       -1.00381829808033
C           -2.54542662572565       -2.83329338687705       -0.48631218439510
C           -3.42701400894178       -3.52990625985926       -1.28705760300304
C           -3.43549645635066       -3.29198065204002       -2.65531865457986
C           -2.55299891314553       -2.35224466757003       -3.17275803374519
C           -1.69578192997603       -1.69080440138495       -2.31876992122012
H           -0.77115047744905        2.01473679673906        1.13154778164627
H           -0.04777706452153        0.54393820133266        1.77976810869865
H            0.68561420808684        2.00947735755537       -0.79284590112679
H            1.71887081173686        1.65751690399280        0.57822708416446
H            2.30602739550574        0.00688484125332       -1.13398131298980
H            0.94034767360829       -1.99038266578015       -1.22829579556787
H           -0.72639886609444       -1.72510789270121        0.81398378455982
H           -2.29180069277384        0.13524012242839        0.70796318422688
H           -1.61668503895581        0.69278665632999       -0.83107766542761
H           -2.50786177383023       -2.99280414308216        0.58144411892281
H           -4.09400394405020       -4.25076582586382       -0.84257917908589
H           -4.11212849012699       -3.82709986818829       -3.30263811941883
H           -2.52644380017506       -2.13527232519528       -4.22859023001361
H           -0.98415867454258       -0.95883182987258       -2.67325534126097

          :  Hamiltonian                  GFN2-xTB          :
         :: total energy             -33.201007148253 Eh    ::
         :: gradient norm              0.000313512667 Eh/a0 ::
         :: HOMO-LUMO gap              1.999334161349 eV    ::
         :: SCC energy               -33.770638503187 Eh    ::
         :: -> dispersion             -0.021839875807 Eh    ::
         :: repulsion energy           0.569631354934 Eh    ::

    * Orbital Energies and Occupations

         #    Occupation            Energy/Eh            Energy/eV
      -------------------------------------------------------------
         1        2.0000           -0.8753943             -23.8207
       ...           ...                  ...                  ...
        19        2.0000           -0.6412099             -17.4482
        20        2.0000           -0.6268925             -17.0586
        21        2.0000           -0.6219209             -16.9233
        22        2.0000           -0.6208923             -16.8953
        23        2.0000           -0.6153668             -16.7450
        24        2.0000           -0.6139456             -16.7063
        25        2.0000           -0.6121322             -16.6570
        26        2.0000           -0.6086222             -16.5615
        27        2.0000           -0.6043060             -16.4440
        28        2.0000           -0.5718742             -15.5615
        29        2.0000           -0.5596281             -15.2283
        30        2.0000           -0.5490716             -14.9410
        31        2.0000           -0.5287743             -14.3887 (HOMO)
        32                         -0.4553001             -12.3893 (LUMO)
        33                         -0.4254923             -11.5782
        34                         -0.3414786              -9.2921
        35                         -0.3045925              -8.2884
        36                         -0.1712969              -4.6612
        37                         -0.0723530              -1.9688
        38                         -0.0652396              -1.7753
        39                         -0.0495972              -1.3496
        40                         -0.0333139              -0.9065
        41                         -0.0285873              -0.7779
        42                         -0.0211506              -0.5755
       ...                                ...                  ...
        62                          0.4913696              13.3708
      -------------------------------------------------------------
                  HL-Gap            0.0734742 Eh            1.9993 eV

     #   Z          covCN         q      C6AA      α(0)
     1   6 C        3.808    -0.062    21.686     6.629
     2   6 C        3.809    -0.067    21.776     6.643
     3   6 C        2.893    -0.018    28.461     8.747
     4   6 C        2.894    -0.064    29.579     8.917
     5   6 C        3.814     0.018    20.270     6.408
     6   6 C        3.808    -0.062    21.687     6.629
     7   7 N        2.753     0.101    19.499     6.558
     8   6 C        2.890     0.033    27.251     8.559
     9   6 C        2.916    -0.010    28.275     8.720
    10   6 C        2.925     0.013    27.724     8.635
    11   6 C        2.916    -0.011    28.282     8.721
    12   6 C        2.893     0.036    27.190     8.549
    13   1 H        0.925     0.065     2.142     2.289
    14   1 H        0.924     0.054     2.266     2.354
    15   1 H        0.924     0.069     2.097     2.265
    16   1 H        0.924     0.073     2.054     2.241
    17   1 H        0.926     0.066     2.131     2.283
    18   1 H        0.926     0.044     2.396     2.421
    19   1 H        0.924     0.080     1.984     2.203
    20   1 H        0.924     0.051     2.308     2.376
    21   1 H        0.924     0.054     2.266     2.354
    22   1 H        0.926     0.105     1.738     2.062
    23   1 H        0.926     0.107     1.722     2.052
    24   1 H        0.926     0.106     1.730     2.057
    25   1 H        0.926     0.106     1.727     2.055
    26   1 H        0.926     0.112     1.682     2.028

Wiberg/Mayer (AO) data.
largest (>0.10) Wiberg bond orders for each atom

     #   Z sym  total        # sym  WBO       # sym  WBO       # sym  WBO
 ---------------------------------------------------------------------------
     1   6 C    3.990 --     2 C    1.007     6 C    1.003    14 H    0.976
                            13 H    0.970
     2   6 C    3.995 --     3 C    1.037     1 C    1.007    16 H    0.958
                            15 H    0.947
     3   6 C    3.985 --     4 C    1.912     2 C    1.037    17 H    0.962
     4   6 C    3.974 --     3 C    1.912     5 C    0.991    18 H    0.963
     5   6 C    3.931 --     4 C    0.991     6 C    0.963    19 H    0.946
                             7 N    0.936
     6   6 C    3.987 --     1 C    1.003    20 H    0.976    21 H    0.973
                             5 C    0.963
     7   7 N    3.763 --     8 C    1.331    12 C    1.325     5 C    0.936
     8   6 C    3.957 --     9 C    1.460     7 N    1.331    22 H    0.954
     9   6 C    3.981 --     8 C    1.460    10 C    1.423    23 H    0.959
    10   6 C    3.967 --     9 C    1.423    11 C    1.421    24 H    0.961
    11   6 C    3.981 --    12 C    1.463    10 C    1.421    25 H    0.959
    12   6 C    3.957 --    11 C    1.463     7 N    1.325    26 H    0.950
    13   1 H    0.993 --     1 C    0.970
    14   1 H    0.997 --     1 C    0.976
    15   1 H    0.995 --     2 C    0.947
    16   1 H    0.994 --     2 C    0.958
    17   1 H    0.994 --     3 C    0.962
    18   1 H    0.998 --     4 C    0.963
    19   1 H    0.993 --     5 C    0.946
    20   1 H    0.997 --     6 C    0.976
    21   1 H    0.997 --     6 C    0.973
    22   1 H    0.989 --     8 C    0.954
    23   1 H    0.988 --     9 C    0.959
    24   1 H    0.988 --    10 C    0.961
    25   1 H    0.988 --    11 C    0.959
    26   1 H    0.988 --    12 C    0.950
 ---------------------------------------------------------------------------

molecular dipole:
                 x           y           z       tot (Debye)
 q only:       -3.392      -3.248      -2.333
   full:       -3.455      -3.362      -2.317      13.595

           -------------------------------------------------
          | TOTAL ENERGY              -33.201007148253 Eh   |
          | GRADIENT NORM               0.000313512667 Eh/α |
          | HOMO-LUMO GAP               1.999334161349 eV   |
           -------------------------------------------------

 * finished run on 2024/12/20 at 02:05:50.160
