   * xtb version 6.7.1 (edcfbbe) compiled by 'conda@3ef47c1a292c' on 2024-11-25

   ID    Z sym.   atoms
    1    6 C      1, 2, 4, 6, 8-13
    2    8 O      3, 5
    3    7 N      7
    4    1 H      14-35

          program call               : xtb C0098.xyz --opt --namespace C0098 --charge +1
          :  Hamiltonian                  GFN2-xTB          :
 * total energy  :   -43.2826421 Eh     change       -0.4494183E-09 Eh
 * total energy  :   -43.2935635 Eh     change       -0.1092141E-01 Eh
 * total energy  :   -43.2964823 Eh     change       -0.2918768E-02 Eh
 * total energy  :   -43.2970034 Eh     change       -0.5210884E-03 Eh
 * total energy  :   -43.2972401 Eh     change       -0.2366938E-03 Eh
 * total energy  :   -43.2974699 Eh     change       -0.2298221E-03 Eh
 * total energy  :   -43.2976713 Eh     change       -0.2014577E-03 Eh
 * total energy  :   -43.2980011 Eh     change       -0.3297938E-03 Eh
 * total energy  :   -43.2982436 Eh     change       -0.2424506E-03 Eh
 * total energy  :   -43.2983049 Eh     change       -0.6126773E-04 Eh
 * total energy  :   -43.3036768 Eh     change       -0.1707387E-04 Eh
 * total energy  :   -43.3037055 Eh     change       -0.2868738E-04 Eh
 * total energy  :   -43.3037308 Eh     change       -0.2535150E-04 Eh
 * total energy  :   -43.3037572 Eh     change       -0.2637132E-04 Eh
 * total energy  :   -43.3037860 Eh     change       -0.2882635E-04 Eh
 * total energy  :   -43.3038013 Eh     change       -0.1523632E-04 Eh
 * total energy  :   -43.3038132 Eh     change       -0.1189591E-04 Eh
 * total energy  :   -43.3038187 Eh     change       -0.5547254E-05 Eh
 * total energy  :   -43.3038221 Eh     change       -0.3355159E-05 Eh
   *** GEOMETRY OPTIMIZATION CONVERGED AFTER 96 ITERATIONS ***

 final structure:
================
35
 xtb: 6.7.1 (edcfbbe)
C            0.31113049489043        1.14646050595028        1.28179740986749
C            1.79509618342674        1.01822169939315        0.98256306459786
O            2.22286162340426        2.02235850734516        0.03670655795807
C            2.06329449097972        1.77270973617725       -1.24125443666036
O            1.62704619965253        0.76521590040464       -1.72886420213565
C            2.53890403424079        2.99851996748324       -2.04455546054164
N            2.49692514191482        2.84212772732869       -3.51387592455962
C            1.08785708663869        2.57837494444815       -3.97463497415939
C            0.07349119299698        3.68430464717336       -3.72711873751848
C            2.95572083564211        4.11407117668817       -4.16008946068943
C            4.43308405435339        4.45544881215389       -4.05466876751430
C            3.32069613178837        1.66788257892917       -3.97339856833793
C            4.57497381814764        1.34392771573506       -3.17414675418006
H            0.07937803096502        2.14658330811063        1.63907017643008
H            0.04095858614916        0.42963247327197        2.05070695241167
H           -0.27787361164516        0.93714672199476        0.39143029263322
H            2.39820794155155        1.20665764791951        1.87122058693090
H            2.02291659120268        0.03055086575735        0.57235354150480
H            1.91023778354285        3.84184234164910       -1.75156050952219
H            3.55703533493019        3.22434270053355       -1.72613293978843
H            1.13844037493589        2.37454860792205       -5.04612379014413
H            0.75180591899018        1.67204434133940       -3.46906795943793
H            0.28581873558557        4.58918552980106       -4.28873391221187
H           -0.89206413954913        3.31527060277486       -4.06495211865873
H           -0.03138517802375        3.92978338171054       -2.67418997786207
H            2.68948063490714        4.04676821007414       -5.21718043025729
H            2.38182845982466        4.92719904398453       -3.71406555997444
H            5.06010507902111        3.75346200980781       -4.59491787231859
H            4.57295312937570        5.43145304678304       -4.51419718078447
H            4.77328306509751        4.53436321447910       -3.02609019965265
H            2.68008663230821        0.78592473751316       -3.93121109522373
H            3.57998543646810        1.85454709849564       -5.01652561176667
H            4.33334210860556        0.96107840810045       -2.18698458540907
H            5.09534680945649        0.55004850870680       -3.70540233802966
H            5.26227098823005        2.17635328009500       -3.07543521494406

          :  Hamiltonian                  GFN2-xTB          :
         :: total energy             -43.303822074475 Eh    ::
         :: gradient norm              0.000711789645 Eh/a0 ::
         :: HOMO-LUMO gap              4.954983551981 eV    ::
         :: SCC energy               -43.841441389199 Eh    ::
         :: -> dispersion             -0.027116168382 Eh    ::
         :: repulsion energy           0.537619314725 Eh    ::

    * Orbital Energies and Occupations

         #    Occupation            Energy/Eh            Energy/eV
      -------------------------------------------------------------
         1        2.0000           -0.8885004             -24.1773
       ...           ...                  ...                  ...
        27        2.0000           -0.6290240             -17.1166
        28        2.0000           -0.6224380             -16.9374
        29        2.0000           -0.6163073             -16.7706
        30        2.0000           -0.6124988             -16.6669
        31        2.0000           -0.6088853             -16.5686
        32        2.0000           -0.6039519             -16.4344
        33        2.0000           -0.6002400             -16.3334
        34        2.0000           -0.5938338             -16.1590
        35        2.0000           -0.5903971             -16.0655
        36        2.0000           -0.5766602             -15.6917
        37        2.0000           -0.5708743             -15.5343
        38        2.0000           -0.5623535             -15.3024
        39        2.0000           -0.5559777             -15.1289 (HOMO)
        40                         -0.3738854             -10.1739 (LUMO)
        41                         -0.2411556              -6.5622
        42                         -0.1839645              -5.0059
        43                         -0.1642588              -4.4697
        44                         -0.1579959              -4.2993
        45                         -0.1135407              -3.0896
        46                         -0.0554845              -1.5098
        47                         -0.0540513              -1.4708
        48                         -0.0460447              -1.2529
        49                         -0.0312261              -0.8497
        50                         -0.0227249              -0.6184
       ...                                ...                  ...
        74                          0.5247293              14.2786
      -------------------------------------------------------------
                  HL-Gap            0.1820923 Eh            4.9550 eV

     #   Z          covCN         q      C6AA      α(0)
     1   6 C        3.750    -0.122    22.893     6.824
     2   6 C        3.697     0.070    19.574     6.329
     3   8 O        1.703    -0.244    18.038     5.734
     4   6 C        2.711     0.363    20.848     7.474
     5   8 O        0.856    -0.397    21.617     6.234
     6   6 C        3.756    -0.063    21.768     6.652
     7   7 N        3.617     0.110    19.350     6.533
     8   6 C        3.762    -0.042    21.363     6.589
     9   6 C        3.750    -0.129    23.039     6.845
    10   6 C        3.757    -0.033    21.217     6.567
    11   6 C        3.751    -0.128    23.015     6.842
    12   6 C        3.753    -0.035    21.254     6.574
    13   6 C        3.751    -0.128    23.014     6.842
    14   1 H        0.925     0.064     2.149     2.293
    15   1 H        0.925     0.074     2.039     2.233
    16   1 H        0.925     0.062     2.174     2.306
    17   1 H        0.924     0.082     1.962     2.191
    18   1 H        0.924     0.072     2.061     2.245
    19   1 H        0.924     0.107     1.719     2.050
    20   1 H        0.924     0.115     1.655     2.012
    21   1 H        0.924     0.082     1.954     2.186
    22   1 H        0.924     0.110     1.695     2.036
    23   1 H        0.925     0.065     2.139     2.287
    24   1 H        0.925     0.089     1.893     2.151
    25   1 H        0.925     0.061     2.190     2.314
    26   1 H        0.924     0.086     1.923     2.168
    27   1 H        0.924     0.086     1.917     2.165
    28   1 H        0.925     0.072     2.062     2.246
    29   1 H        0.925     0.085     1.931     2.173
    30   1 H        0.925     0.062     2.177     2.308
    31   1 H        0.924     0.103     1.754     2.071
    32   1 H        0.924     0.083     1.944     2.181
    33   1 H        0.925     0.062     2.176     2.307
    34   1 H        0.925     0.086     1.922     2.168
    35   1 H        0.925     0.068     2.108     2.270

Wiberg/Mayer (AO) data.
largest (>0.10) Wiberg bond orders for each atom

     #   Z sym  total        # sym  WBO       # sym  WBO       # sym  WBO
 ---------------------------------------------------------------------------
     1   6 C    3.986 --     2 C    1.014    14 H    0.984    16 H    0.984
                            15 H    0.978
     2   6 C    3.895 --     1 C    1.014    18 H    0.969    17 H    0.969
                             3 O    0.902
     3   8 O    2.354 --     4 C    1.204     2 C    0.902     5 O    0.191
     4   6 C    3.936 --     5 O    1.734     3 O    1.204     6 C    0.938
     5   8 O    2.059 --     4 C    1.734     3 O    0.191
     6   6 C    3.945 --     7 N    0.962    20 H    0.946    19 H    0.946
                             4 C    0.938
     7   7 N    3.799 --     6 C    0.962    10 C    0.927     8 C    0.920
                            12 C    0.918
     8   6 C    3.925 --     9 C    1.024    21 H    0.968    22 H    0.956
                             7 N    0.920
     9   6 C    3.983 --     8 C    1.024    23 H    0.981    25 H    0.979
                            24 H    0.971
    10   6 C    3.934 --    11 C    1.023    26 H    0.967    27 H    0.965
                             7 N    0.927
    11   6 C    3.982 --    10 C    1.023    28 H    0.979    30 H    0.979
                            29 H    0.972
    12   6 C    3.926 --    13 C    1.023    32 H    0.968    31 H    0.963
                             7 N    0.918
    13   6 C    3.982 --    12 C    1.023    33 H    0.981    35 H    0.977
                            34 H    0.972
    14   1 H    0.996 --     1 C    0.984
    15   1 H    0.994 --     1 C    0.978
    16   1 H    0.996 --     1 C    0.984
    17   1 H    0.993 --     2 C    0.969
    18   1 H    0.995 --     2 C    0.969
    19   1 H    0.988 --     6 C    0.946
    20   1 H    0.987 --     6 C    0.946
    21   1 H    0.993 --     8 C    0.968
    22   1 H    0.988 --     8 C    0.956
    23   1 H    0.996 --     9 C    0.981
    24   1 H    0.992 --     9 C    0.971
    25   1 H    0.996 --     9 C    0.979
    26   1 H    0.992 --    10 C    0.967
    27   1 H    0.993 --    10 C    0.965
    28   1 H    0.995 --    11 C    0.979
    29   1 H    0.992 --    11 C    0.972
    30   1 H    0.996 --    11 C    0.979
    31   1 H    0.989 --    12 C    0.963
    32   1 H    0.993 --    12 C    0.968
    33   1 H    0.996 --    13 C    0.981
    34   1 H    0.992 --    13 C    0.972
    35   1 H    0.995 --    13 C    0.977
 ---------------------------------------------------------------------------

molecular dipole:
                 x           y           z       tot (Debye)
 q only:        4.773       5.631      -5.550
   full:        4.820       5.742      -5.553      23.713

           -------------------------------------------------
          | TOTAL ENERGY              -43.303822074475 Eh   |
          | GRADIENT NORM               0.000711789645 Eh/α |
          | HOMO-LUMO GAP               4.954983551981 eV   |
           -------------------------------------------------

 * finished run on 2024/12/20 at 02:05:49.413
