   * xtb version 6.7.1 (edcfbbe) compiled by 'conda@3ef47c1a292c' on 2024-11-25

   ID    Z sym.   atoms
    1    6 C      1-10, 12-17
    2    7 N      11
    3    1 H      18-51

          program call               : xtb C0094.xyz --opt --namespace C0094 --charge +1
          :  Hamiltonian                  GFN2-xTB          :
 * total energy  :   -54.1527886 Eh     change       -0.1070006E-09 Eh
 * total energy  :   -54.1593110 Eh     change       -0.6522341E-02 Eh
 * total energy  :   -54.1609054 Eh     change       -0.1594410E-02 Eh
 * total energy  :   -54.1610613 Eh     change       -0.1559357E-03 Eh
 * total energy  :   -54.1612355 Eh     change       -0.1741995E-03 Eh
 * total energy  :   -54.1613337 Eh     change       -0.9819148E-04 Eh
 * total energy  :   -54.1615022 Eh     change       -0.1684601E-03 Eh
 * total energy  :   -54.1617431 Eh     change       -0.2409505E-03 Eh
 * total energy  :   -54.1620853 Eh     change       -0.3421787E-03 Eh
 * total energy  :   -54.1625532 Eh     change       -0.4679109E-03 Eh
 * total energy  :   -54.1681000 Eh     change       -0.9575806E-05 Eh
 * total energy  :   -54.1681109 Eh     change       -0.1092934E-04 Eh
 * total energy  :   -54.1681256 Eh     change       -0.1463709E-04 Eh
 * total energy  :   -54.1681440 Eh     change       -0.1839872E-04 Eh
 * total energy  :   -54.1681592 Eh     change       -0.1523047E-04 Eh
 * total energy  :   -54.1681607 Eh     change       -0.1514662E-05 Eh
 * total energy  :   -54.1681813 Eh     change       -0.2061288E-04 Eh
 * total energy  :   -54.1681873 Eh     change       -0.5934168E-05 Eh
 * total energy  :   -54.1681905 Eh     change       -0.3236380E-05 Eh
   *** GEOMETRY OPTIMIZATION CONVERGED AFTER 69 ITERATIONS ***

 final structure:
================
51
 xtb: 6.7.1 (edcfbbe)
C            1.04348960748144       -1.12027868445661        0.37283906736562
C           -0.10313262202731       -0.70557083481685       -0.54738189291165
C            0.18452777591565       -1.15130759797481       -1.98878798885227
C           -0.00221508881722       -2.64999131818404       -2.23401464347727
C           -1.46489668503176       -3.08950375895204       -2.18682430626910
C           -1.65479070305221       -4.56823140737249       -2.52973316325203
C           -0.98497960335434       -5.54951415493395       -1.56471807597008
C           -1.40307492392358       -5.40851484005571       -0.09920121511095
C           -2.89890790840792       -5.59125974890085        0.16427455434040
C           -3.40344928479086       -6.98272304094931       -0.19573272316798
N            0.79054744230369       -1.00636695888957        1.84430343635568
C           -0.21816588355446       -2.02074267295863        2.26225853687395
C           -0.40191940172713       -2.11105040346278        3.77249991101323
C            0.92468987411554       -2.42747521199659        4.45324339516401
C            1.95828963190356       -1.37893268005198        4.05836691385434
C            2.08041452776209       -1.29099927286886        2.54109860240511
C            0.33082068309918        0.35711706856647        2.15876996297208
H            1.91535077142359       -0.50422429940855        0.14058213996645
H            1.30441946288966       -2.16011325625067        0.16736237942815
H           -1.04616391781158       -1.15010651641881       -0.23368919230891
H           -0.21688146000811        0.37858703963140       -0.54173198861207
H           -0.48901493856163       -0.60782113405851       -2.65211260828091
H            1.20413400369748       -0.86327158206957       -2.25223510923094
H            0.39317318790391       -2.88150115835257       -3.22395041479426
H            0.58064286722851       -3.22730927035232       -1.51474201536251
H           -1.89275721298152       -2.89531111302107       -1.20193713803297
H           -2.02956002841830       -2.49584989532109       -2.90858339346284
H           -2.72454157156265       -4.77727574055258       -2.56682810900319
H           -1.25565159194039       -4.75071268709504       -3.52945636807937
H           -1.21371513027854       -6.56118244676307       -1.89990394830688
H            0.10003188147035       -5.43684670271204       -1.62693689411965
H           -0.85488272675817       -6.15425167363824        0.48245382542118
H           -1.10166895890294       -4.42322159058221        0.27019933728683
H           -3.08181949646487       -5.41543267418030        1.22809127145859
H           -3.46776880031575       -4.84407628067934       -0.39125863523323
H           -2.81877711086271       -7.74461807218634        0.31455092232089
H           -4.44284500152943       -7.09270324867375        0.10282812570732
H           -3.34060003884610       -7.15830836626086       -1.26577895467239
H            0.11942298829326       -2.99110987295522        1.89023187314251
H           -1.16959243554836       -1.78023947741896        1.78744817978055
H           -1.12308953877456       -2.90420299511304        3.97067169930547
H           -0.82218477671305       -1.18777075409650        4.17176808023303
H            0.79798973175499       -2.43882716610505        5.53430821968994
H            1.26811564597467       -3.41763885974874        4.14900802770922
H            1.69884975411713       -0.41224999936307        4.49057225642551
H            2.93796474011179       -1.65021548090818        4.45218395095168
H            2.79426909713554       -0.51195188137849        2.26684188595059
H            2.45150461144584       -2.24641560148506        2.16320167136416
H            1.03339320084289        1.08334492067130        1.75393382399876
H           -0.65006980086029        0.53109739125769        1.72338990015228
H            0.26242515501218        0.50073596386171        3.23280682793098

          :  Hamiltonian                  GFN2-xTB          :
         :: total energy             -54.168190498481 Eh    ::
         :: gradient norm              0.000441634334 Eh/a0 ::
         :: HOMO-LUMO gap              7.281233891302 eV    ::
         :: SCC energy               -54.950237043669 Eh    ::
         :: -> dispersion             -0.041685918305 Eh    ::
         :: repulsion energy           0.782046545188 Eh    ::

    * Orbital Energies and Occupations

         #    Occupation            Energy/Eh            Energy/eV
      -------------------------------------------------------------
         1        2.0000           -0.8563808             -23.3033
       ...           ...                  ...                  ...
        39        2.0000           -0.5739128             -15.6170
        40        2.0000           -0.5718164             -15.5599
        41        2.0000           -0.5598921             -15.2354
        42        2.0000           -0.5553043             -15.1106
        43        2.0000           -0.5487184             -14.9314
        44        2.0000           -0.5430835             -14.7781
        45        2.0000           -0.5321730             -14.4812
        46        2.0000           -0.5274650             -14.3531
        47        2.0000           -0.5178429             -14.0912
        48        2.0000           -0.5134850             -13.9726
        49        2.0000           -0.5053574             -13.7515
        50        2.0000           -0.4986249             -13.5683
        51        2.0000           -0.4970382             -13.5251 (HOMO)
        52                         -0.2294578              -6.2439 (LUMO)
        53                         -0.1616729              -4.3993
        54                         -0.1570368              -4.2732
        55                         -0.1375085              -3.7418
        56                         -0.0726006              -1.9756
        57                         -0.0699231              -1.9027
        58                         -0.0576287              -1.5682
        59                         -0.0407292              -1.1083
        60                         -0.0346602              -0.9432
        61                         -0.0248923              -0.6774
        62                         -0.0221120              -0.6017
       ...                                ...                  ...
       102                          0.2304061               6.2697
      -------------------------------------------------------------
                  HL-Gap            0.2675804 Eh            7.2812 eV

     #   Z          covCN         q      C6AA      α(0)
     1   6 C        3.766    -0.037    21.283     6.575
     2   6 C        3.800    -0.071    21.855     6.656
     3   6 C        3.802    -0.067    21.789     6.646
     4   6 C        3.801    -0.065    21.740     6.638
     5   6 C        3.801    -0.060    21.650     6.625
     6   6 C        3.801    -0.062    21.690     6.631
     7   6 C        3.800    -0.060    21.663     6.627
     8   6 C        3.800    -0.053    21.527     6.606
     9   6 C        3.799    -0.053    21.523     6.606
    10   6 C        3.752    -0.106    22.579     6.776
    11   7 N        3.621     0.118    19.216     6.511
    12   6 C        3.762    -0.029    21.136     6.553
    13   6 C        3.805    -0.073    21.886     6.660
    14   6 C        3.807    -0.072    21.865     6.657
    15   6 C        3.805    -0.072    21.870     6.658
    16   6 C        3.768    -0.032    21.189     6.560
    17   6 C        3.712    -0.089    22.346     6.755
    18   1 H        0.924     0.077     2.008     2.216
    19   1 H        0.924     0.083     1.953     2.186
    20   1 H        0.925     0.055     2.254     2.348
    21   1 H        0.925     0.053     2.285     2.364
    22   1 H        0.924     0.059     2.205     2.322
    23   1 H        0.924     0.042     2.419     2.432
    24   1 H        0.924     0.050     2.316     2.380
    25   1 H        0.924     0.028     2.609     2.526
    26   1 H        0.924     0.026     2.645     2.544
    27   1 H        0.924     0.037     2.488     2.467
    28   1 H        0.924     0.043     2.407     2.426
    29   1 H        0.924     0.037     2.487     2.466
    30   1 H        0.925     0.045     2.386     2.416
    31   1 H        0.924     0.025     2.656     2.548
    32   1 H        0.924     0.029     2.602     2.523
    33   1 H        0.924     0.005     2.975     2.697
    34   1 H        0.924     0.022     2.704     2.571
    35   1 H        0.924     0.032     2.551     2.498
    36   1 H        0.925     0.037     2.484     2.465
    37   1 H        0.925     0.039     2.464     2.455
    38   1 H        0.925     0.041     2.438     2.442
    39   1 H        0.924     0.084     1.941     2.179
    40   1 H        0.925     0.081     1.972     2.196
    41   1 H        0.925     0.077     2.011     2.218
    42   1 H        0.925     0.060     2.198     2.318
    43   1 H        0.925     0.070     2.088     2.259
    44   1 H        0.924     0.057     2.236     2.339
    45   1 H        0.924     0.060     2.200     2.319
    46   1 H        0.925     0.077     2.005     2.215
    47   1 H        0.924     0.079     1.989     2.206
    48   1 H        0.924     0.083     1.951     2.184
    49   1 H        0.925     0.092     1.864     2.135
    50   1 H        0.925     0.096     1.822     2.111
    51   1 H        0.925     0.101     1.778     2.085

Wiberg/Mayer (AO) data.
largest (>0.10) Wiberg bond orders for each atom

     #   Z sym  total        # sym  WBO       # sym  WBO       # sym  WBO
 ---------------------------------------------------------------------------
     1   6 C    3.929 --     2 C    1.006    18 H    0.968    19 H    0.961
                            11 N    0.924
     2   6 C    3.986 --     1 C    1.006     3 C    0.996    21 H    0.975
                            20 H    0.965
     3   6 C    3.990 --     4 C    1.008     2 C    0.996    23 H    0.976
                            22 H    0.973
     4   6 C    3.995 --     5 C    1.009     3 C    1.008    24 H    0.974
                            25 H    0.969
     5   6 C    3.997 --     4 C    1.009     6 C    1.006    27 H    0.976
                            26 H    0.971
     6   6 C    3.996 --     7 C    1.008     5 C    1.006    29 H    0.976
                            28 H    0.974
     7   6 C    3.996 --     6 C    1.008     8 C    1.007    31 H    0.975
                            30 H    0.974
     8   6 C    3.998 --     7 C    1.007     9 C    1.007    32 H    0.977
                            33 H    0.974
     9   6 C    3.998 --    10 C    1.021     8 C    1.007    34 H    0.979
                            35 H    0.976
    10   6 C    3.996 --     9 C    1.021    36 H    0.987    37 H    0.987
                            38 H    0.986
    11   7 N    3.805 --    17 C    0.962    12 C    0.932    16 C    0.930
                             1 C    0.924
    12   6 C    3.935 --    13 C    1.008    39 H    0.965    40 H    0.964
                            11 N    0.932
    13   6 C    3.987 --    14 C    1.009    12 C    1.008    42 H    0.971
                            41 H    0.966
    14   6 C    3.992 --    13 C    1.009    15 C    1.009    44 H    0.975
                            43 H    0.973
    15   6 C    3.987 --    14 C    1.009    16 C    1.008    45 H    0.970
                            46 H    0.965
    16   6 C    3.936 --    15 C    1.008    47 H    0.969    48 H    0.967
                            11 N    0.930
    17   6 C    3.931 --    49 H    0.976    50 H    0.973    51 H    0.967
                            11 N    0.962
    18   1 H    0.994 --     1 C    0.968
    19   1 H    0.993 --     1 C    0.961
    20   1 H    0.997 --     2 C    0.965
    21   1 H    0.997 --     2 C    0.975
    22   1 H    0.996 --     3 C    0.973
    23   1 H    0.998 --     3 C    0.976
    24   1 H    0.997 --     4 C    0.974
    25   1 H    0.999 --     4 C    0.969
    26   1 H    0.999 --     5 C    0.971
    27   1 H    0.999 --     5 C    0.976
    28   1 H    0.998 --     6 C    0.974
    29   1 H    0.999 --     6 C    0.976
    30   1 H    0.998 --     7 C    0.974
    31   1 H    0.999 --     7 C    0.975
    32   1 H    0.999 --     8 C    0.977
    33   1 H    1.000 --     8 C    0.974
    34   1 H    1.000 --     9 C    0.979
    35   1 H    0.999 --     9 C    0.976
    36   1 H    0.999 --    10 C    0.987
    37   1 H    0.998 --    10 C    0.987
    38   1 H    0.998 --    10 C    0.986
    39   1 H    0.993 --    12 C    0.965
    40   1 H    0.993 --    12 C    0.964
    41   1 H    0.994 --    13 C    0.966
    42   1 H    0.996 --    13 C    0.971
    43   1 H    0.995 --    14 C    0.973
    44   1 H    0.997 --    14 C    0.975
    45   1 H    0.996 --    15 C    0.970
    46   1 H    0.994 --    15 C    0.965
    47   1 H    0.994 --    16 C    0.969
    48   1 H    0.993 --    16 C    0.967
    49   1 H    0.992 --    17 C    0.976
    50   1 H    0.991 --    17 C    0.973
    51   1 H    0.990 --    17 C    0.967
 ---------------------------------------------------------------------------

molecular dipole:
                 x           y           z       tot (Debye)
 q only:        1.164      -2.413       3.422
   full:        1.243      -2.339       3.370      10.894

           -------------------------------------------------
          | TOTAL ENERGY              -54.168190498481 Eh   |
          | GRADIENT NORM               0.000441634334 Eh/α |
          | HOMO-LUMO GAP               7.281233891302 eV   |
           -------------------------------------------------

 * finished run on 2024/12/20 at 02:05:43.130
