   * xtb version 6.7.1 (edcfbbe) compiled by 'conda@3ef47c1a292c' on 2024-11-25

   ID    Z sym.   atoms
    1    6 C      1-12, 14, 15, 18-20
    2    7 N      13
    3    8 O      16, 17
    4    1 H      21-56

          program call               : xtb C0093.xyz --opt --namespace C0093 --charge +1
          :  Hamiltonian                  GFN2-xTB          :
 * total energy  :   -65.4278277 Eh     change       -0.4408918E-09 Eh
 * total energy  :   -65.4378340 Eh     change       -0.1000625E-01 Eh
 * total energy  :   -65.4407233 Eh     change       -0.2889288E-02 Eh
 * total energy  :   -65.4412906 Eh     change       -0.5672951E-03 Eh
 * total energy  :   -65.4415478 Eh     change       -0.2572695E-03 Eh
 * total energy  :   -65.4418226 Eh     change       -0.2747617E-03 Eh
 * total energy  :   -65.4420667 Eh     change       -0.2441342E-03 Eh
 * total energy  :   -65.4424373 Eh     change       -0.3705479E-03 Eh
 * total energy  :   -65.4428235 Eh     change       -0.3862526E-03 Eh
 * total energy  :   -65.4430303 Eh     change       -0.2067628E-03 Eh
 * total energy  :   -65.4463707 Eh     change       -0.1684314E-04 Eh
 * total energy  :   -65.4463811 Eh     change       -0.1039325E-04 Eh
 * total energy  :   -65.4463922 Eh     change       -0.1110899E-04 Eh
 * total energy  :   -65.4463986 Eh     change       -0.6378440E-05 Eh
 * total energy  :   -65.4464059 Eh     change       -0.7292318E-05 Eh
 * total energy  :   -65.4464112 Eh     change       -0.5342648E-05 Eh
 * total energy  :   -65.4464194 Eh     change       -0.8208962E-05 Eh
 * total energy  :   -65.4464272 Eh     change       -0.7771182E-05 Eh
 * total energy  :   -65.4464319 Eh     change       -0.4675270E-05 Eh
   *** GEOMETRY OPTIMIZATION CONVERGED AFTER 49 ITERATIONS ***

 final structure:
================
56
 xtb: 6.7.1 (edcfbbe)
C            1.58518565231321        0.80693908764416       -0.13219520140503
C            1.51483935214607        0.65638237823018       -1.64708186368329
C            1.67306569544516       -0.78990264494918       -2.11894664488967
C            0.58889058879662       -1.75266148199236       -1.62963870139787
C           -0.84087279764409       -1.37068572598998       -2.01791709616225
C           -1.08842748591614       -1.23105028786902       -3.52113448172769
C           -0.81714262771852       -2.49279164316490       -4.34325231046390
C           -1.63118731690609       -3.72229372367612       -3.93341479105500
C           -3.14922320140539       -3.53006204904182       -3.96415475284501
C           -3.72421392196923       -3.11315824206049       -5.31993820644509
C           -3.40646534236627       -4.05753144883746       -6.48670472818354
C           -3.76423614934070       -5.53583618980338       -6.30879918802961
N           -5.16402777397409       -5.96743607639744       -6.63298832119305
C           -5.52231525628853       -5.64492272980549       -8.03498962053742
C           -4.60670884781348       -6.22479901158488       -9.12137896980350
O           -3.69416005423739       -6.97672139841984       -8.93480133205874
O           -4.98910447637208       -5.76255896566812      -10.29361359219041
C           -5.27061573846799       -7.45667906515485       -6.45335431639732
C           -5.08339745658270       -7.96947995986649       -5.03454341362067
C           -6.14343934217121       -5.29595422770329       -5.75793582338135
H            0.73779839869364        0.32772000937556        0.35160600052450
H            1.57808341395123        1.85941548365498        0.14132332119135
H            2.49960882761973        0.36057852223731        0.25224242371285
H            0.57073085315274        1.06666205820340       -2.01024999498380
H            2.31741754419634        1.24623685117368       -2.09623721126031
H            1.70293299579436       -0.80038870266760       -3.21080288563223
H            2.63736554183482       -1.16511346999969       -1.76736273556874
H            0.81716014676982       -2.74867336265282       -2.01653070055425
H            0.63647315516121       -1.81723421001466       -0.54119017508312
H           -1.51969750409564       -2.12014933820906       -1.60366057230984
H           -1.09525366818460       -0.41998475261989       -1.54648132627377
H           -2.12300512984781       -0.91218080238477       -3.67051180023731
H           -0.45359910838183       -0.43467406105153       -3.91228815044054
H           -1.00348304418774       -2.26247879920815       -5.39536039447201
H            0.23947713691151       -2.75040326492901       -4.25932101856532
H           -1.34851191830596       -4.55503858894221       -4.58311447810171
H           -1.35304662411471       -4.00583024725050       -2.91756356659097
H           -3.62299568887066       -4.45330885576950       -3.61675810527273
H           -3.41902314680734       -2.75734501640423       -3.24401842731197
H           -4.79951216176645       -2.96755040367762       -5.20702176583376
H           -3.30793823949826       -2.14056344952411       -5.58374264848008
H           -3.83942035089485       -3.64931960628101       -7.40042807306231
H           -2.32517217970712       -4.03694238296043       -6.63123142354791
H           -3.10885165440427       -6.13241253675642       -6.94449213194668
H           -3.57534599838832       -5.81041884589653       -5.27255409480990
H           -6.53278965497456       -6.00892549080617       -8.24316744298538
H           -5.53814468264361       -4.56192291040319       -8.17637038807637
H           -4.44896858928713       -6.10773848611109      -11.02552647534942
H           -6.26234447739327       -7.75152129437654       -6.80366258140997
H           -4.52455569433891       -7.91808127504521       -7.10154514573444
H           -5.82896701532753       -7.58136135734948       -4.34700835783483
H           -5.20097609560815       -9.05006283676835       -5.06337438149870
H           -4.09096488236301       -7.76785083003828       -4.64363170457802
H           -5.81761371261887       -5.34732893463169       -4.72250790676266
H           -6.24462789551815       -4.25060471570270       -6.03762458714883
H           -7.11723239597858       -5.77480069015796       -5.84914773834295

          :  Hamiltonian                  GFN2-xTB          :
         :: total energy             -65.446431869937 Eh    ::
         :: gradient norm              0.000401012984 Eh/a0 ::
         :: HOMO-LUMO gap              2.174292201419 eV    ::
         :: SCC energy               -66.313761260107 Eh    ::
         :: -> dispersion             -0.047235643099 Eh    ::
         :: repulsion energy           0.867329390169 Eh    ::

    * Orbital Energies and Occupations

         #    Occupation            Energy/Eh            Energy/eV
      -------------------------------------------------------------
         1        2.0000           -0.9021425             -24.5485
       ...           ...                  ...                  ...
        48        2.0000           -0.5462401             -14.8640
        49        2.0000           -0.5411333             -14.7250
        50        2.0000           -0.5334958             -14.5172
        51        2.0000           -0.5313671             -14.4592
        52        2.0000           -0.5200669             -14.1517
        53        2.0000           -0.5165049             -14.0548
        54        2.0000           -0.5088136             -13.8455
        55        2.0000           -0.4988581             -13.5746
        56        2.0000           -0.4946570             -13.4603
        57        2.0000           -0.4909856             -13.3604
        58        2.0000           -0.4757547             -12.9459
        59        2.0000           -0.4720739             -12.8458
        60        2.0000           -0.4696409             -12.7796 (HOMO)
        61                         -0.3897371             -10.6053 (LUMO)
        62                         -0.2382549              -6.4832
        63                         -0.1787386              -4.8637
        64                         -0.1646725              -4.4810
        65                         -0.1460103              -3.9731
        66                         -0.0877884              -2.3888
        67                         -0.0669128              -1.8208
        68                         -0.0589313              -1.6036
        69                         -0.0484144              -1.3174
        70                         -0.0327490              -0.8911
        71                         -0.0197544              -0.5375
       ...                                ...                  ...
       116                          0.5138805              13.9834
      -------------------------------------------------------------
                  HL-Gap            0.0799038 Eh            2.1743 eV

     #   Z          covCN         q      C6AA      α(0)
     1   6 C        3.751    -0.103    22.523     6.768
     2   6 C        3.799    -0.053    21.520     6.605
     3   6 C        3.800    -0.058    21.617     6.620
     4   6 C        3.800    -0.058    21.615     6.619
     5   6 C        3.800    -0.058    21.613     6.619
     6   6 C        3.800    -0.059    21.634     6.622
     7   6 C        3.800    -0.060    21.648     6.625
     8   6 C        3.800    -0.062    21.687     6.631
     9   6 C        3.800    -0.062    21.696     6.632
    10   6 C        3.799    -0.070    21.837     6.654
    11   6 C        3.799    -0.073    21.896     6.663
    12   6 C        3.751    -0.048    21.502     6.613
    13   7 N        3.619     0.125    19.096     6.490
    14   6 C        3.770    -0.066    21.801     6.654
    15   6 C        2.685     0.366    20.799     7.463
    16   8 O        0.856    -0.381    21.299     6.188
    17   8 O        1.661    -0.343    19.770     6.002
    18   6 C        3.760    -0.040    21.341     6.586
    19   6 C        3.751    -0.130    23.055     6.848
    20   6 C        3.719    -0.093    22.405     6.761
    21   1 H        0.925     0.033     2.538     2.491
    22   1 H        0.925     0.034     2.526     2.485
    23   1 H        0.925     0.036     2.505     2.475
    24   1 H        0.924     0.029     2.597     2.520
    25   1 H        0.924     0.030     2.592     2.517
    26   1 H        0.924     0.027     2.636     2.539
    27   1 H        0.924     0.032     2.557     2.501
    28   1 H        0.924     0.025     2.653     2.547
    29   1 H        0.924     0.036     2.506     2.476
    30   1 H        0.924     0.024     2.676     2.558
    31   1 H        0.924     0.037     2.487     2.466
    32   1 H        0.924     0.024     2.676     2.558
    33   1 H        0.924     0.040     2.451     2.449
    34   1 H        0.924     0.023     2.690     2.565
    35   1 H        0.924     0.042     2.420     2.433
    36   1 H        0.924     0.021     2.714     2.576
    37   1 H        0.924     0.045     2.380     2.412
    38   1 H        0.924     0.015     2.805     2.619
    39   1 H        0.925     0.053     2.279     2.361
    40   1 H        0.924     0.030     2.587     2.515
    41   1 H        0.924     0.062     2.180     2.309
    42   1 H        0.924     0.042     2.421     2.433
    43   1 H        0.924     0.079     1.985     2.203
    44   1 H        0.924     0.098     1.800     2.098
    45   1 H        0.925     0.099     1.797     2.096
    46   1 H        0.924     0.113     1.667     2.019
    47   1 H        0.924     0.119     1.620     1.990
    48   1 H        0.804     0.366     0.553     1.168
    49   1 H        0.924     0.079     1.994     2.208
    50   1 H        0.924     0.107     1.722     2.052
    51   1 H        0.925     0.067     2.117     2.275
    52   1 H        0.925     0.088     1.900     2.155
    53   1 H        0.925     0.068     2.105     2.269
    54   1 H        0.925     0.108     1.713     2.047
    55   1 H        0.925     0.099     1.797     2.097
    56   1 H        0.925     0.092     1.855     2.130

Wiberg/Mayer (AO) data.
largest (>0.10) Wiberg bond orders for each atom

     #   Z sym  total        # sym  WBO       # sym  WBO       # sym  WBO
 ---------------------------------------------------------------------------
     1   6 C    3.997 --     2 C    1.020    23 H    0.987    22 H    0.987
                            21 H    0.986
     2   6 C    3.998 --     1 C    1.020     3 C    1.008    25 H    0.978
                            24 H    0.976
     3   6 C    3.997 --     2 C    1.008     4 C    1.008    27 H    0.977
                            26 H    0.976
     4   6 C    3.997 --     5 C    1.008     3 C    1.008    28 H    0.976
                            29 H    0.975
     5   6 C    3.997 --     4 C    1.008     6 C    1.008    30 H    0.975
                            31 H    0.974
     6   6 C    3.997 --     5 C    1.008     7 C    1.007    32 H    0.975
                            33 H    0.974
     7   6 C    3.996 --     6 C    1.007     8 C    1.007    34 H    0.975
                            35 H    0.974
     8   6 C    3.996 --     7 C    1.007     9 C    1.007    36 H    0.976
                            37 H    0.973
     9   6 C    3.995 --    10 C    1.007     8 C    1.007    38 H    0.972
                            39 H    0.971
    10   6 C    3.992 --     9 C    1.007    11 C    1.004    40 H    0.972
                            41 H    0.970
    11   6 C    3.984 --    12 C    1.006    10 C    1.004    42 H    0.968
                            43 H    0.962
    12   6 C    3.916 --    11 C    1.006    44 H    0.962    45 H    0.955
                            13 N    0.915
    13   7 N    3.805 --    14 C    0.961    20 C    0.958    18 C    0.918
                            12 C    0.915
    14   6 C    3.949 --    13 N    0.961    15 C    0.950    46 H    0.946
                            47 H    0.942
    15   6 C    3.933 --    16 O    1.765    17 O    1.190    14 C    0.950
    16   8 O    2.075 --    15 C    1.765    17 O    0.190
    17   8 O    2.249 --    15 C    1.190    48 H    0.841    16 O    0.190
    18   6 C    3.925 --    19 C    1.024    49 H    0.968    50 H    0.960
                            13 N    0.918
    19   6 C    3.981 --    18 C    1.024    51 H    0.981    53 H    0.979
                            52 H    0.971
    20   6 C    3.927 --    56 H    0.975    54 H    0.970    55 H    0.969
                            13 N    0.958
    21   1 H    0.999 --     1 C    0.986
    22   1 H    0.999 --     1 C    0.987
    23   1 H    0.999 --     1 C    0.987
    24   1 H    0.999 --     2 C    0.976
    25   1 H    0.999 --     2 C    0.978
    26   1 H    0.999 --     3 C    0.976
    27   1 H    0.999 --     3 C    0.977
    28   1 H    0.999 --     4 C    0.976
    29   1 H    0.999 --     4 C    0.975
    30   1 H    0.999 --     5 C    0.975
    31   1 H    0.999 --     5 C    0.974
    32   1 H    0.999 --     6 C    0.975
    33   1 H    0.998 --     6 C    0.974
    34   1 H    0.999 --     7 C    0.975
    35   1 H    0.998 --     7 C    0.974
    36   1 H    1.000 --     8 C    0.976
    37   1 H    0.998 --     8 C    0.973
    38   1 H    1.000 --     9 C    0.972
    39   1 H    0.997 --     9 C    0.971
    40   1 H    0.999 --    10 C    0.972
    41   1 H    0.996 --    10 C    0.970
    42   1 H    0.998 --    11 C    0.968
    43   1 H    0.993 --    11 C    0.962
    44   1 H    0.990 --    12 C    0.962
    45   1 H    0.990 --    12 C    0.955
    46   1 H    0.987 --    14 C    0.946
    47   1 H    0.985 --    14 C    0.942
    48   1 H    0.866 --    17 O    0.841
    49   1 H    0.994 --    18 C    0.968
    50   1 H    0.989 --    18 C    0.960
    51   1 H    0.995 --    19 C    0.981
    52   1 H    0.992 --    19 C    0.971
    53   1 H    0.995 --    19 C    0.979
    54   1 H    0.988 --    20 C    0.970
    55   1 H    0.990 --    20 C    0.969
    56   1 H    0.991 --    20 C    0.975
 ---------------------------------------------------------------------------

molecular dipole:
                 x           y           z       tot (Debye)
 q only:       -9.597     -10.563     -12.482
   full:       -9.712     -10.590     -12.733      48.799

           -------------------------------------------------
          | TOTAL ENERGY              -65.446431869937 Eh   |
          | GRADIENT NORM               0.000401012984 Eh/α |
          | HOMO-LUMO GAP               2.174292201419 eV   |
           -------------------------------------------------

 * finished run on 2024/12/20 at 02:05:40.325
