   * xtb version 6.7.1 (edcfbbe) compiled by 'conda@3ef47c1a292c' on 2024-11-25

   ID    Z sym.   atoms
    1    8 O      1
    2    6 C      2-9, 11-20
    3    7 N      10
    4    1 H      21-42

          program call               : xtb C0097.xyz --opt --namespace C0097 --charge +1
          :  Hamiltonian                  GFN2-xTB          :
 * total energy  :   -56.3009181 Eh     change       -0.3258407E-09 Eh
 * total energy  :   -56.3113143 Eh     change       -0.1039624E-01 Eh
 * total energy  :   -56.3148889 Eh     change       -0.3574595E-02 Eh
 * total energy  :   -56.3155967 Eh     change       -0.7077922E-03 Eh
 * total energy  :   -56.3159768 Eh     change       -0.3801102E-03 Eh
 * total energy  :   -56.3161471 Eh     change       -0.1702378E-03 Eh
 * total energy  :   -56.3163465 Eh     change       -0.1994408E-03 Eh
 * total energy  :   -56.3165344 Eh     change       -0.1879014E-03 Eh
 * total energy  :   -56.3167019 Eh     change       -0.1674333E-03 Eh
 * total energy  :   -56.3168539 Eh     change       -0.1520545E-03 Eh
 * total energy  :   -56.3200371 Eh     change       -0.2548103E-04 Eh
 * total energy  :   -56.3200613 Eh     change       -0.2422108E-04 Eh
 * total energy  :   -56.3200822 Eh     change       -0.2082921E-04 Eh
 * total energy  :   -56.3201011 Eh     change       -0.1890941E-04 Eh
 * total energy  :   -56.3201138 Eh     change       -0.1274923E-04 Eh
 * total energy  :   -56.3201272 Eh     change       -0.1336067E-04 Eh
 * total energy  :   -56.3201352 Eh     change       -0.8046587E-05 Eh
 * total energy  :   -56.3201425 Eh     change       -0.7304435E-05 Eh
 * total energy  :   -56.3201464 Eh     change       -0.3844100E-05 Eh
   *** GEOMETRY OPTIMIZATION CONVERGED AFTER 88 ITERATIONS ***

 final structure:
================
42
 xtb: 6.7.1 (edcfbbe)
O           -0.06812823390242        5.32898437001727       -0.49729418517405
C            0.70105702573905        5.28835608124385        0.43619481462985
C            1.40085895959263        6.47669507066284        0.93814077201722
C            2.18468016491140        6.50749750819947        2.09689051784760
C            2.79435102147124        7.68368394336765        2.48632101251802
C            2.64253271995461        8.84001737090645        1.73382962312299
C            1.86612182120477        8.82301931903510        0.58526223432757
C            1.24760363403082        7.65369323375592        0.19332078615503
C            0.98376995423829        3.98245753389629        1.20216108575315
N            0.55581224454957        2.69335102308258        0.59108415371403
C            1.34140572399521        2.30751962042747       -0.67328361243532
C            2.81795376134000        2.59061900529056       -0.50724379132197
C            3.67687692698097        1.55936586370425       -0.13809534940076
C            5.03579029734111        1.78659682030530       -0.00343371044254
C            5.55460062834010        3.04860005546019       -0.23668943860076
C            4.71062663464849        4.07843649129815       -0.61898376498281
C            3.35320937431621        3.85168760854700       -0.75854251045224
C            0.79582282394689        2.89408664197182       -1.97085017988611
C            0.83090485641181        1.64836413716793        1.60217589780363
C           -0.89631821327091        2.69819559481146        0.32852210175367
H            2.31454250451933        5.63171990142212        2.71315172891355
H            3.39242026865512        7.70168701855646        3.38410885587115
H            3.12649702588336        9.75209546332210        2.04671735978578
H            1.74110518023028        9.72056318258754        0.00021359585953
H            0.63578582225611        7.62400690920748       -0.69589586638354
H            2.05564318989889        3.91672214860570        1.39324884770994
H            0.46383907659355        4.08428782379074        2.16016172890473
H            1.21793194944140        1.22123203462120       -0.74070121807710
H            3.28950419862893        0.56301050657122        0.02275559301949
H            5.68758726078454        0.97427461677280        0.27716406126840
H            6.61336241736221        3.22590262195579       -0.13456937237512
H            5.10902540497573        5.06093014213752       -0.81825485913774
H            2.71483188713303        4.66274652864319       -1.07418737960192
H            1.50506254677168        2.65480638647632       -2.76014027549317
H           -0.15783834311589        2.45030105183724       -2.24134202804338
H            0.67946764529666        3.97091088389393       -1.94086264913949
H            0.32084621132811        1.88104585482582        2.53555699940410
H            0.47189518719699        0.68263730080886        1.25069588073225
H            1.90095557632224        1.58114798669561        1.79217358523301
H           -1.43453993420432        2.83041345598834        1.26586808808028
H           -1.15485069357491        3.51515408249729       -0.34102193558596
H           -1.19462650809324        1.75125680565168       -0.11591719789871

          :  Hamiltonian                  GFN2-xTB          :
         :: total energy             -56.320146380689 Eh    ::
         :: gradient norm              0.000354602598 Eh/a0 ::
         :: HOMO-LUMO gap              3.115801734536 eV    ::
         :: SCC energy               -57.246077282494 Eh    ::
         :: -> dispersion             -0.044561096832 Eh    ::
         :: repulsion energy           0.925930901804 Eh    ::

    * Orbital Energies and Occupations

         #    Occupation            Energy/Eh            Energy/eV
      -------------------------------------------------------------
         1        2.0000           -0.8525244             -23.1984
       ...           ...                  ...                  ...
        40        2.0000           -0.5967679             -16.2389
        41        2.0000           -0.5938829             -16.1604
        42        2.0000           -0.5862140             -15.9517
        43        2.0000           -0.5759915             -15.6735
        44        2.0000           -0.5539242             -15.0730
        45        2.0000           -0.5453984             -14.8410
        46        2.0000           -0.5410992             -14.7241
        47        2.0000           -0.5385244             -14.6540
        48        2.0000           -0.5296792             -14.4133
        49        2.0000           -0.5287751             -14.3887
        50        2.0000           -0.5271693             -14.3450
        51        2.0000           -0.5259425             -14.3116
        52        2.0000           -0.5256149             -14.3027 (HOMO)
        53                         -0.4111113             -11.1869 (LUMO)
        54                         -0.3552925              -9.6680
        55                         -0.3452952              -9.3960
        56                         -0.3422705              -9.3137
        57                         -0.3163215              -8.6075
        58                         -0.2401732              -6.5354
        59                         -0.2099573              -5.7132
        60                         -0.2042739              -5.5586
        61                         -0.1671115              -4.5473
        62                         -0.1461879              -3.9780
        63                         -0.1346914              -3.6651
       ...                                ...                  ...
       102                          0.5450425              14.8314
      -------------------------------------------------------------
                  HL-Gap            0.1145036 Eh            3.1158 eV

     #   Z          covCN         q      C6AA      α(0)
     1   8 O        0.857    -0.360    20.891     6.128
     2   6 C        2.820     0.230    23.177     7.888
     3   6 C        2.970    -0.022    28.544     8.764
     4   6 C        2.918    -0.029    28.730     8.790
     5   6 C        2.917    -0.020    28.503     8.755
     6   6 C        2.920    -0.007    28.205     8.709
     7   6 C        2.916    -0.018    28.457     8.748
     8   6 C        2.928    -0.010    28.274     8.720
     9   6 C        3.764    -0.057    21.634     6.630
    10   7 N        3.616     0.123    19.130     6.496
    11   6 C        3.799     0.012    20.372     6.427
    12   6 C        2.969    -0.011    28.278     8.723
    13   6 C        2.924    -0.041    29.016     8.834
    14   6 C        2.918    -0.023    28.579     8.767
    15   6 C        2.920    -0.020    28.498     8.754
    16   6 C        2.919    -0.024    28.614     8.772
    17   6 C        2.922    -0.037    28.928     8.820
    18   6 C        3.753    -0.129    23.029     6.843
    19   6 C        3.734    -0.091    22.323     6.743
    20   6 C        3.714    -0.095    22.452     6.770
    21   1 H        0.926     0.036     2.507     2.476
    22   1 H        0.926     0.060     2.204     2.321
    23   1 H        0.926     0.067     2.119     2.277
    24   1 H        0.926     0.066     2.128     2.281
    25   1 H        0.926     0.075     2.036     2.231
    26   1 H        0.924     0.096     1.823     2.112
    27   1 H        0.924     0.094     1.843     2.123
    28   1 H        0.924     0.072     2.067     2.249
    29   1 H        0.926     0.039     2.461     2.453
    30   1 H        0.926     0.058     2.227     2.333
    31   1 H        0.926     0.060     2.201     2.320
    32   1 H        0.926     0.053     2.280     2.361
    33   1 H        0.926     0.041     2.437     2.441
    34   1 H        0.925     0.077     2.008     2.216
    35   1 H        0.925     0.064     2.155     2.296
    36   1 H        0.925     0.085     1.924     2.169
    37   1 H        0.925     0.090     1.880     2.144
    38   1 H        0.925     0.095     1.830     2.116
    39   1 H        0.925     0.094     1.840     2.121
    40   1 H        0.925     0.086     1.916     2.165
    41   1 H        0.925     0.132     1.521     1.929
    42   1 H        0.925     0.089     1.889     2.149

Wiberg/Mayer (AO) data.
largest (>0.10) Wiberg bond orders for each atom

     #   Z sym  total        # sym  WBO       # sym  WBO       # sym  WBO
 ---------------------------------------------------------------------------
     1   8 O    2.085 --     2 C    1.792
     2   6 C    3.934 --     1 O    1.792     3 C    1.069     9 C    0.957
     3   6 C    3.984 --     4 C    1.356     8 C    1.354     2 C    1.069
     4   6 C    3.991 --     5 C    1.472     3 C    1.356    21 H    0.966
                             7 C    0.103
     5   6 C    3.990 --     4 C    1.472     6 C    1.417    22 H    0.968
     6   6 C    3.985 --     7 C    1.429     5 C    1.417    23 H    0.968
     7   6 C    3.989 --     8 C    1.462     6 C    1.429    24 H    0.967
                             4 C    0.103
     8   6 C    3.985 --     7 C    1.462     3 C    1.354    25 H    0.964
     9   6 C    3.940 --     2 C    0.957    26 H    0.949    10 N    0.947
                            27 H    0.946
    10   7 N    3.802 --    19 C    0.962    20 C    0.957     9 C    0.947
                            11 C    0.872
    11   6 C    3.924 --    18 C    1.010    12 C    0.995    28 H    0.959
                            10 N    0.872
    12   6 C    3.982 --    13 C    1.411    17 C    1.404    11 C    0.995
                            15 C    0.109
    13   6 C    3.991 --    14 C    1.441    12 C    1.411    29 H    0.967
                            16 C    0.109
    14   6 C    3.990 --    13 C    1.441    15 C    1.441    30 H    0.969
                            17 C    0.110
    15   6 C    3.988 --    14 C    1.441    16 C    1.435    31 H    0.969
                            12 C    0.109
    16   6 C    3.991 --    17 C    1.448    15 C    1.435    32 H    0.969
                            13 C    0.109
    17   6 C    3.991 --    16 C    1.448    12 C    1.404    33 H    0.963
                            14 C    0.110
    18   6 C    3.979 --    11 C    1.010    35 H    0.981    34 H    0.972
                            36 H    0.967
    19   6 C    3.934 --    37 H    0.975    38 H    0.974    39 H    0.972
                            10 N    0.962
    20   6 C    3.919 --    42 H    0.976    40 H    0.975    41 H    0.958
                            10 N    0.957
    21   1 H    0.999 --     4 C    0.966
    22   1 H    0.996 --     5 C    0.968
    23   1 H    0.995 --     6 C    0.968
    24   1 H    0.995 --     7 C    0.967
    25   1 H    0.994 --     8 C    0.964
    26   1 H    0.991 --     9 C    0.949
    27   1 H    0.991 --     9 C    0.946
    28   1 H    0.994 --    11 C    0.959
    29   1 H    0.998 --    13 C    0.967
    30   1 H    0.996 --    14 C    0.969
    31   1 H    0.996 --    15 C    0.969
    32   1 H    0.997 --    16 C    0.969
    33   1 H    0.998 --    17 C    0.963
    34   1 H    0.994 --    18 C    0.972
    35   1 H    0.995 --    18 C    0.981
    36   1 H    0.993 --    18 C    0.967
    37   1 H    0.991 --    19 C    0.975
    38   1 H    0.990 --    19 C    0.974
    39   1 H    0.991 --    19 C    0.972
    40   1 H    0.992 --    20 C    0.975
    41   1 H    0.983 --    20 C    0.958
    42   1 H    0.992 --    20 C    0.976
 ---------------------------------------------------------------------------

molecular dipole:
                 x           y           z       tot (Debye)
 q only:        2.864       6.582       1.684
   full:        2.933       6.431       1.918      18.615

           -------------------------------------------------
          | TOTAL ENERGY              -56.320146380689 Eh   |
          | GRADIENT NORM               0.000354602598 Eh/α |
          | HOMO-LUMO GAP               3.115801734536 eV   |
           -------------------------------------------------

 * finished run on 2024/12/20 at 02:05:47.483
