   * xtb version 6.7.1 (edcfbbe) compiled by 'conda@3ef47c1a292c' on 2024-11-25

   ID    Z sym.   atoms
    1    6 C      1-6, 8, 9, 11, 12
    2    7 N      7, 10
    3    1 H      13-31

          program call               : xtb C0107.xyz --opt --namespace C0107 --charge +1
          :  Hamiltonian                  GFN2-xTB          :
 * total energy  :   -36.5836740 Eh     change       -0.5235989E-10 Eh
 * total energy  :   -36.5868321 Eh     change       -0.3158142E-02 Eh
 * total energy  :   -36.5875554 Eh     change       -0.7233388E-03 Eh
 * total energy  :   -36.5876787 Eh     change       -0.1232605E-03 Eh
 * total energy  :   -36.5877440 Eh     change       -0.6528981E-04 Eh
 * total energy  :   -36.5877639 Eh     change       -0.1988662E-04 Eh
 * total energy  :   -36.5877928 Eh     change       -0.2890267E-04 Eh
 * total energy  :   -36.5878446 Eh     change       -0.5178742E-04 Eh
 * total energy  :   -36.5878925 Eh     change       -0.4794928E-04 Eh
 * total energy  :   -36.5879237 Eh     change       -0.3120244E-04 Eh
 * total energy  :   -36.5884213 Eh     change       -0.7660715E-05 Eh
 * total energy  :   -36.5884312 Eh     change       -0.9848306E-05 Eh
 * total energy  :   -36.5884403 Eh     change       -0.9143898E-05 Eh
 * total energy  :   -36.5884481 Eh     change       -0.7786859E-05 Eh
 * total energy  :   -36.5884638 Eh     change       -0.1569557E-04 Eh
 * total energy  :   -36.5884729 Eh     change       -0.9104054E-05 Eh
 * total energy  :   -36.5884755 Eh     change       -0.2548717E-05 Eh
 * total energy  :   -36.5884809 Eh     change       -0.5389201E-05 Eh
 * total energy  :   -36.5884847 Eh     change       -0.3868064E-05 Eh
   *** GEOMETRY OPTIMIZATION CONVERGED AFTER 35 ITERATIONS ***

 final structure:
================
31
 xtb: 6.7.1 (edcfbbe)
C            1.05645252375317        0.35176856924515        0.14684600281701
C            0.55725492877686        0.73509053854313       -1.24077971252627
C            1.07510673612022       -0.18653136500090       -2.34745308142530
C            0.68855557964142       -1.66039820125806       -2.19545309578907
C           -0.81570610984840       -1.93079505484765       -2.14653532980165
C           -1.55979199014199       -1.55778109351024       -3.43489362731645
N           -1.14986498961133       -2.39543430891688       -4.53893271058315
C           -0.16012823174588       -2.12046774135175       -5.43076265040722
C           -0.05209411274764       -3.19356221911570       -6.26322709278516
N           -0.97672274244608       -4.10970513103550       -5.86343622502052
C           -1.62555385783273       -3.60628922950496       -4.81703940840282
C           -1.19466262762437       -5.39363143945694       -6.47305811442111
H            0.64881897294860       -0.60301531363495        0.46952394221327
H            0.75575012484809        1.10488670646505        0.87006539957553
H            2.14163954783802        0.28631290604726        0.15624268306267
H           -0.53465163798405        0.75649696348806       -1.24473987615399
H            0.89744595741336        1.74732346527053       -1.46731262902901
H            0.72871811671704        0.19900040955014       -3.31016200167050
H            2.16541890660498       -0.13289632096372       -2.35791185190893
H            1.13991313852689       -2.22951010252009       -3.01358193059975
H            1.12329460701906       -2.03895027400987       -1.27075358282277
H           -0.98210401220265       -2.98945772760254       -1.93512368173753
H           -1.26071403200219       -1.36007939568537       -1.33302975920067
H           -2.63470914925115       -1.68120539489952       -3.28845589484566
H           -1.35677222975656       -0.51936094351041       -3.69776751993217
H            0.38654248220131       -1.19974720338390       -5.42290393810243
H            0.60345264569504       -3.36048074320924       -7.09339752165056
H           -2.41760684329280       -4.09655198079694       -4.28464060194631
H           -0.33375781062061       -6.04226204634319       -6.30293357426738
H           -2.08027541406683       -5.86130412548602       -6.04863753517803
H           -1.33183847693253       -5.27739220256115       -7.54826508014379

          :  Hamiltonian                  GFN2-xTB          :
         :: total energy             -36.588484723024 Eh    ::
         :: gradient norm              0.000459606669 Eh/a0 ::
         :: HOMO-LUMO gap              2.952446710598 eV    ::
         :: SCC energy               -37.145848599015 Eh    ::
         :: -> dispersion             -0.023044463863 Eh    ::
         :: repulsion energy           0.557363875991 Eh    ::

    * Orbital Energies and Occupations

         #    Occupation            Energy/Eh            Energy/eV
      -------------------------------------------------------------
         1        2.0000           -0.8974613             -24.4212
       ...           ...                  ...                  ...
        22        2.0000           -0.6343976             -17.2628
        23        2.0000           -0.6209629             -16.8973
        24        2.0000           -0.6096189             -16.5886
        25        2.0000           -0.5995623             -16.3149
        26        2.0000           -0.5909806             -16.0814
        27        2.0000           -0.5892189             -16.0335
        28        2.0000           -0.5833036             -15.8725
        29        2.0000           -0.5648081             -15.3692
        30        2.0000           -0.5576005             -15.1731
        31        2.0000           -0.5501209             -14.9696
        32        2.0000           -0.5285096             -14.3815
        33        2.0000           -0.5214686             -14.1899
        34        2.0000           -0.5160888             -14.0435 (HOMO)
        35                         -0.4075884             -11.0910 (LUMO)
        36                         -0.3714033             -10.1064
        37                         -0.1842238              -5.0130
        38                         -0.1290883              -3.5127
        39                         -0.0633577              -1.7241
        40                         -0.0514635              -1.4004
        41                         -0.0485075              -1.3200
        42                         -0.0322001              -0.8762
        43                         -0.0198791              -0.5409
        44                         -0.0109327              -0.2975
        45                         -0.0056375              -0.1534
       ...                                ...                  ...
        67                          0.4626489              12.5893
      -------------------------------------------------------------
                  HL-Gap            0.1085004 Eh            2.9524 eV

     #   Z          covCN         q      C6AA      α(0)
     1   6 C        3.752    -0.109    22.644     6.786
     2   6 C        3.799    -0.057    21.605     6.618
     3   6 C        3.800    -0.063    21.706     6.633
     4   6 C        3.800    -0.066    21.765     6.642
     5   6 C        3.801    -0.070    21.834     6.653
     6   6 C        3.742    -0.029    21.160     6.563
     7   7 N        2.868     0.072    19.980     6.639
     8   6 C        3.075    -0.004    28.038     8.682
     9   6 C        3.073    -0.010    28.196     8.706
    10   7 N        2.867     0.077    19.895     6.625
    11   6 C        3.103     0.044    26.888     8.497
    12   6 C        3.692    -0.086    22.339     6.763
    13   1 H        0.925     0.035     2.521     2.483
    14   1 H        0.925     0.046     2.374     2.409
    15   1 H        0.925     0.043     2.408     2.427
    16   1 H        0.924     0.029     2.606     2.525
    17   1 H        0.924     0.043     2.415     2.430
    18   1 H        0.924     0.020     2.735     2.586
    19   1 H        0.924     0.048     2.348     2.396
    20   1 H        0.924     0.025     2.665     2.553
    21   1 H        0.925     0.063     2.164     2.300
    22   1 H        0.924     0.047     2.361     2.403
    23   1 H        0.925     0.080     1.977     2.199
    24   1 H        0.924     0.081     1.971     2.196
    25   1 H        0.924     0.096     1.820     2.110
    26   1 H        0.926     0.111     1.690     2.033
    27   1 H        0.926     0.109     1.704     2.041
    28   1 H        0.926     0.112     1.680     2.027
    29   1 H        0.924     0.107     1.721     2.052
    30   1 H        0.925     0.100     1.789     2.092
    31   1 H        0.925     0.108     1.717     2.049

Wiberg/Mayer (AO) data.
largest (>0.10) Wiberg bond orders for each atom

     #   Z sym  total        # sym  WBO       # sym  WBO       # sym  WBO
 ---------------------------------------------------------------------------
     1   6 C    3.995 --     2 C    1.021    15 H    0.987    14 H    0.986
                            13 H    0.986
     2   6 C    3.997 --     1 C    1.021     3 C    1.007    17 H    0.977
                            16 H    0.976
     3   6 C    3.996 --     2 C    1.007     4 C    1.007    19 H    0.975
                            18 H    0.974
     4   6 C    3.993 --     5 C    1.008     3 C    1.007    20 H    0.975
                            21 H    0.970
     5   6 C    3.983 --     4 C    1.008     6 C    0.980    22 H    0.975
                            23 H    0.963
     6   6 C    3.933 --     5 C    0.980     7 N    0.967    24 H    0.965
                            25 H    0.960
     7   7 N    3.721 --    11 C    1.362     8 C    1.233     6 C    0.967
     8   6 C    3.950 --     9 C    1.587     7 N    1.233    26 H    0.959
     9   6 C    3.947 --     8 C    1.587    10 N    1.228    27 H    0.961
    10   7 N    3.722 --    11 C    1.360     9 C    1.228    12 C    0.991
    11   6 C    3.947 --     7 N    1.362    10 N    1.360    28 H    0.954
    12   6 C    3.934 --    10 N    0.991    30 H    0.975    31 H    0.964
                            29 H    0.960
    13   1 H    0.999 --     1 C    0.986
    14   1 H    0.998 --     1 C    0.986
    15   1 H    0.998 --     1 C    0.987
    16   1 H    0.999 --     2 C    0.976
    17   1 H    0.998 --     2 C    0.977
    18   1 H    1.000 --     3 C    0.974
    19   1 H    0.998 --     3 C    0.975
    20   1 H    0.999 --     4 C    0.975
    21   1 H    0.996 --     4 C    0.970
    22   1 H    0.998 --     5 C    0.975
    23   1 H    0.993 --     5 C    0.963
    24   1 H    0.993 --     6 C    0.965
    25   1 H    0.990 --     6 C    0.960
    26   1 H    0.987 --     8 C    0.959
    27   1 H    0.988 --     9 C    0.961
    28   1 H    0.987 --    11 C    0.954
    29   1 H    0.988 --    12 C    0.960
    30   1 H    0.990 --    12 C    0.975
    31   1 H    0.988 --    12 C    0.964
 ---------------------------------------------------------------------------

molecular dipole:
                 x           y           z       tot (Debye)
 q only:       -1.764      -5.975      -9.231
   full:       -1.865      -6.048      -9.296      28.584

           -------------------------------------------------
          | TOTAL ENERGY              -36.588484723024 Eh   |
          | GRADIENT NORM               0.000459606669 Eh/α |
          | HOMO-LUMO GAP               2.952446710598 eV   |
           -------------------------------------------------

 * finished run on 2024/12/20 at 02:06:53.475
