   * xtb version 6.7.1 (edcfbbe) compiled by 'conda@3ef47c1a292c' on 2024-11-25

   ID    Z sym.   atoms
    1    6 C      1-7, 9-19
    2    7 N      8
    3    8 O      20
    4    1 H      21-42

          program call               : xtb C0102.xyz --opt --namespace C0102 --charge +1
          :  Hamiltonian                  GFN2-xTB          :
 * total energy  :   -56.3138430 Eh     change       -0.3559393E-09 Eh
 * total energy  :   -56.3222572 Eh     change       -0.8414197E-02 Eh
 * total energy  :   -56.3246717 Eh     change       -0.2414520E-02 Eh
 * total energy  :   -56.3251777 Eh     change       -0.5060570E-03 Eh
 * total energy  :   -56.3255969 Eh     change       -0.4191972E-03 Eh
 * total energy  :   -56.3257881 Eh     change       -0.1911600E-03 Eh
 * total energy  :   -56.3260037 Eh     change       -0.2156336E-03 Eh
 * total energy  :   -56.3261872 Eh     change       -0.1834689E-03 Eh
 * total energy  :   -56.3263339 Eh     change       -0.1467206E-03 Eh
 * total energy  :   -56.3264308 Eh     change       -0.9683075E-04 Eh
 * total energy  :   -56.3275415 Eh     change       -0.4000755E-04 Eh
 * total energy  :   -56.3275426 Eh     change       -0.1153268E-05 Eh
 * total energy  :   -56.3275954 Eh     change       -0.5283549E-04 Eh
 * total energy  :   -56.3276264 Eh     change       -0.3095488E-04 Eh
 * total energy  :   -56.3276461 Eh     change       -0.1970225E-04 Eh
 * total energy  :   -56.3276544 Eh     change       -0.8254373E-05 Eh
 * total energy  :   -56.3276597 Eh     change       -0.5392020E-05 Eh
 * total energy  :   -56.3276667 Eh     change       -0.6946356E-05 Eh
 * total energy  :   -56.3276695 Eh     change       -0.2784183E-05 Eh
   *** GEOMETRY OPTIMIZATION CONVERGED AFTER 44 ITERATIONS ***

 final structure:
================
42
 xtb: 6.7.1 (edcfbbe)
C            2.92511930579866       -0.07256071427844        0.46362749237488
C            1.47052237202341       -0.04451132920534        0.12596630461201
C            0.83255640291248        1.15825436297618       -0.15359324136497
C           -0.50601864302986        1.17528903275073       -0.47611940162348
C           -1.25362752708246        0.00306807421347       -0.52739222498608
C           -0.62843574502851       -1.21739689783429       -0.23987474307662
C            0.72545382513815       -1.21460737513275        0.07534901728223
N           -1.40723181057293       -2.47698506642260       -0.28636466076337
C           -1.91669386971992       -2.66474474032290       -1.69911680567301
C           -2.65894726880935       -3.94512340541023       -1.90418169655864
C           -3.99316645589302       -4.00865460011947       -1.91312945332864
C           -4.80927496144053       -5.18942343276287       -2.13025874903137
C           -6.18878144262306       -5.02665696613579       -2.28591065409206
C           -7.01009412058819       -6.11470918831519       -2.50677914181277
C           -6.47093438011424       -7.38952654327028       -2.56670681072743
C           -5.10582535873043       -7.56812555095420       -2.40412523385953
C           -4.28122520456681       -6.48190280615075       -2.18921526299695
C           -2.53526942037962       -2.38916963869439        0.66357213737335
C           -0.61176452474858       -3.66115670365651        0.08262992564340
O           -2.57644383578513        0.04969235252100       -0.85485607712956
H            3.51492312658398        0.22935490236769       -0.40066732205898
H            3.14044734500978        0.62903380793514        1.26668946962394
H            3.24542552718129       -1.06405316330941        0.77003904661016
H            1.38744022732863        2.08217546455765       -0.12042370155284
H           -0.99719959634857        2.11232801307574       -0.69636577479515
H            1.24450780380732       -2.13164906070982        0.29304175550813
H           -2.56912464856967       -1.82018469254597       -1.91858438927466
H           -1.04120216852107       -2.61933919019461       -2.35139439181517
H           -2.06343726541113       -4.82363060513718       -2.09894225740178
H           -4.55585773768060       -3.09386054822286       -1.76293250657021
H           -6.61403457664444       -4.03420571341661       -2.24183396162776
H           -8.07226436863406       -5.97019020537225       -2.63144312789681
H           -7.11086286245312       -8.24130917225369       -2.73691964509196
H           -4.68356581403702       -8.56054070860546       -2.44577891879445
H           -3.22177422997788       -6.64338756538312       -2.06155454880976
H           -3.12215894352981       -3.30454217654602        0.61744390029830
H           -2.14881574318167       -2.25274742530868        1.67195744357911
H           -3.17476889893499       -1.54849414212921        0.40928039820345
H            0.19449128829284       -3.81838248008661       -0.63114242305236
H           -0.20525097500563       -3.54810378023236        1.08561615544434
H           -1.26250827952863       -4.53335337736465        0.07162902175617
H           -2.84035654650608        0.96369295508709       -1.02425494253492

          :  Hamiltonian                  GFN2-xTB          :
         :: total energy             -56.327669473145 Eh    ::
         :: gradient norm              0.000242870579 Eh/a0 ::
         :: HOMO-LUMO gap              3.175556450251 eV    ::
         :: SCC energy               -57.269642094560 Eh    ::
         :: -> dispersion             -0.040946410682 Eh    ::
         :: repulsion energy           0.941972621414 Eh    ::

    * Orbital Energies and Occupations

         #    Occupation            Energy/Eh            Energy/eV
      -------------------------------------------------------------
         1        2.0000           -0.8522368             -23.1905
       ...           ...                  ...                  ...
        40        2.0000           -0.5726982             -15.5839
        41        2.0000           -0.5684455             -15.4682
        42        2.0000           -0.5666638             -15.4197
        43        2.0000           -0.5652637             -15.3816
        44        2.0000           -0.5571275             -15.1602
        45        2.0000           -0.5536249             -15.0649
        46        2.0000           -0.5448739             -14.8268
        47        2.0000           -0.5396344             -14.6842
        48        2.0000           -0.5151455             -14.0178
        49        2.0000           -0.5129402             -13.9578
        50        2.0000           -0.5089287             -13.8487
        51        2.0000           -0.4943429             -13.4518
        52        2.0000           -0.4857546             -13.2181 (HOMO)
        53                         -0.3690550             -10.0425 (LUMO)
        54                         -0.3614548              -9.8357
        55                         -0.3500563              -9.5255
        56                         -0.3113852              -8.4732
        57                         -0.2791321              -7.5956
        58                         -0.2316654              -6.3039
        59                         -0.2039156              -5.5488
        60                         -0.1714859              -4.6664
        61                         -0.1357134              -3.6930
        62                         -0.1203797              -3.2757
        63                         -0.1064565              -2.8968
       ...                                ...                  ...
       102                          0.5893116              16.0360
      -------------------------------------------------------------
                  HL-Gap            0.1166996 Eh            3.1756 eV

     #   Z          covCN         q      C6AA      α(0)
     1   6 C        3.759    -0.123    22.914     6.824
     2   6 C        2.965     0.026    27.414     8.588
     3   6 C        2.924    -0.031    28.764     8.795
     4   6 C        2.919    -0.061    29.520     8.910
     5   6 C        2.845     0.134    25.061     8.204
     6   6 C        2.924     0.006    27.897     8.662
     7   6 C        2.927    -0.057    29.408     8.893
     8   7 N        3.622     0.128    19.047     6.482
     9   6 C        3.765    -0.034    21.230     6.567
    10   6 C        2.889    -0.069    29.719     8.938
    11   6 C        2.902    -0.028    28.696     8.783
    12   6 C        2.971     0.008    27.826     8.653
    13   6 C        2.928    -0.028    28.711     8.787
    14   6 C        2.917    -0.023    28.588     8.768
    15   6 C        2.920    -0.018    28.467     8.749
    16   6 C        2.918    -0.024    28.608     8.771
    17   6 C        2.923    -0.031    28.769     8.796
    18   6 C        3.723    -0.090    22.330     6.748
    19   6 C        3.721    -0.086    22.262     6.739
    20   8 O        1.659    -0.397    20.789     6.155
    21   1 H        0.925     0.074     2.047     2.237
    22   1 H        0.925     0.072     2.061     2.245
    23   1 H        0.925     0.058     2.220     2.330
    24   1 H        0.926     0.074     2.044     2.236
    25   1 H        0.926     0.063     2.168     2.303
    26   1 H        0.926     0.065     2.138     2.287
    27   1 H        0.925     0.101     1.772     2.082
    28   1 H        0.924     0.074     2.039     2.233
    29   1 H        0.926     0.050     2.319     2.381
    30   1 H        0.925     0.048     2.341     2.393
    31   1 H        0.926     0.040     2.443     2.444
    32   1 H        0.926     0.049     2.327     2.386
    33   1 H        0.926     0.052     2.296     2.370
    34   1 H        0.926     0.047     2.353     2.399
    35   1 H        0.926     0.033     2.540     2.492
    36   1 H        0.925     0.091     1.867     2.137
    37   1 H        0.925     0.087     1.913     2.163
    38   1 H        0.925     0.114     1.666     2.018
    39   1 H        0.925     0.093     1.850     2.127
    40   1 H        0.925     0.091     1.867     2.137
    41   1 H        0.925     0.098     1.805     2.101
    42   1 H        0.805     0.322     0.657     1.273

Wiberg/Mayer (AO) data.
largest (>0.10) Wiberg bond orders for each atom

     #   Z sym  total        # sym  WBO       # sym  WBO       # sym  WBO
 ---------------------------------------------------------------------------
     1   6 C    3.990 --     2 C    1.034    23 H    0.983    22 H    0.967
                            21 H    0.961
     2   6 C    3.987 --     7 C    1.410     3 C    1.387     1 C    1.034
     3   6 C    3.986 --     4 C    1.467     2 C    1.387    24 H    0.966
                             6 C    0.101
     4   6 C    3.987 --     3 C    1.467     5 C    1.366    25 H    0.961
                             7 C    0.102
     5   6 C    3.942 --     4 C    1.366     6 C    1.346    20 O    1.069
     6   6 C    3.919 --     7 C    1.412     5 C    1.346     8 N    0.922
                             3 C    0.101
     7   6 C    3.985 --     6 C    1.412     2 C    1.410    26 H    0.958
                             4 C    0.102
     8   7 N    3.803 --    19 C    0.964    18 C    0.954     6 C    0.922
                             9 C    0.893
     9   6 C    3.926 --    10 C    1.025    28 H    0.966    27 H    0.957
                             8 N    0.893
    10   6 C    3.974 --    11 C    1.819     9 C    1.025    29 H    0.960
    11   6 C    3.985 --    10 C    1.819    12 C    1.110    30 H    0.960
    12   6 C    3.989 --    13 C    1.365    17 C    1.363    11 C    1.110
    13   6 C    3.987 --    14 C    1.459    12 C    1.365    31 H    0.968
                            16 C    0.103
    14   6 C    3.991 --    13 C    1.459    15 C    1.431    32 H    0.969
                            17 C    0.105
    15   6 C    3.987 --    14 C    1.431    16 C    1.424    33 H    0.970
    16   6 C    3.992 --    17 C    1.466    15 C    1.424    34 H    0.970
                            13 C    0.103
    17   6 C    3.992 --    16 C    1.466    12 C    1.363    35 H    0.966
                            14 C    0.105
    18   6 C    3.926 --    37 H    0.978    36 H    0.972    38 H    0.965
                             8 N    0.954
    19   6 C    3.935 --    39 H    0.975    40 H    0.975    41 H    0.969
                             8 N    0.964
    20   8 O    2.124 --     5 C    1.069    42 H    0.871
    21   1 H    0.993 --     1 C    0.961
    22   1 H    0.994 --     1 C    0.967
    23   1 H    0.996 --     1 C    0.983
    24   1 H    0.994 --     3 C    0.966
    25   1 H    0.995 --     4 C    0.961
    26   1 H    0.996 --     7 C    0.958
    27   1 H    0.990 --     9 C    0.957
    28   1 H    0.993 --     9 C    0.966
    29   1 H    0.997 --    10 C    0.960
    30   1 H    0.997 --    11 C    0.960
    31   1 H    0.998 --    13 C    0.968
    32   1 H    0.997 --    14 C    0.969
    33   1 H    0.997 --    15 C    0.970
    34   1 H    0.997 --    16 C    0.970
    35   1 H    0.999 --    17 C    0.966
    36   1 H    0.991 --    18 C    0.972
    37   1 H    0.992 --    18 C    0.978
    38   1 H    0.987 --    18 C    0.965
    39   1 H    0.991 --    19 C    0.975
    40   1 H    0.992 --    19 C    0.975
    41   1 H    0.990 --    19 C    0.969
    42   1 H    0.896 --    20 O    0.871
 ---------------------------------------------------------------------------

molecular dipole:
                 x           y           z       tot (Debye)
 q only:       -2.787      -4.210      -0.770
   full:       -2.781      -3.966      -0.821      12.487

           -------------------------------------------------
          | TOTAL ENERGY              -56.327669473145 Eh   |
          | GRADIENT NORM               0.000242870579 Eh/α |
          | HOMO-LUMO GAP               3.175556450251 eV   |
           -------------------------------------------------

 * finished run on 2024/12/20 at 02:06:01.674
