   * xtb version 6.7.1 (edcfbbe) compiled by 'conda@3ef47c1a292c' on 2024-11-25

   ID    Z sym.   atoms
    1    6 C      1-6, 8-12
    2    7 N      7
    3    1 H      13-36

          program call               : xtb C0100.xyz --opt --namespace C0100 --charge +1
          :  Hamiltonian                  GFN2-xTB          :
 * total energy  :   -38.3321530 Eh     change       -0.9021761E-10 Eh
 * total energy  :   -38.3374123 Eh     change       -0.5259323E-02 Eh
 * total energy  :   -38.3387571 Eh     change       -0.1344767E-02 Eh
 * total energy  :   -38.3388803 Eh     change       -0.1231945E-03 Eh
 * total energy  :   -38.3389785 Eh     change       -0.9821502E-04 Eh
 * total energy  :   -38.3390105 Eh     change       -0.3206933E-04 Eh
 * total energy  :   -38.3390737 Eh     change       -0.6319568E-04 Eh
 * total energy  :   -38.3391145 Eh     change       -0.4072591E-04 Eh
 * total energy  :   -38.3391671 Eh     change       -0.5263006E-04 Eh
 * total energy  :   -38.3391829 Eh     change       -0.1582678E-04 Eh
 * total energy  :   -38.3391954 Eh     change       -0.1250764E-04 Eh
 * total energy  :   -38.3392072 Eh     change       -0.1177082E-04 Eh
 * total energy  :   -38.3392154 Eh     change       -0.8203133E-05 Eh
 * total energy  :   -38.3392241 Eh     change       -0.8707622E-05 Eh
 * total energy  :   -38.3392351 Eh     change       -0.1094180E-04 Eh
 * total energy  :   -38.3392446 Eh     change       -0.9588398E-05 Eh
 * total energy  :   -38.3392497 Eh     change       -0.5068606E-05 Eh
 * total energy  :   -38.3392528 Eh     change       -0.3060407E-05 Eh
   *** GEOMETRY OPTIMIZATION CONVERGED AFTER 18 ITERATIONS ***

 final structure:
================
36
 xtb: 6.7.1 (edcfbbe)
C            0.33946684576692        0.41940271878829       -0.57259175951207
C            0.35131137520694       -1.05302020378288       -0.18036553894652
C            1.24081698781363       -1.35078902978986        1.02809551287963
C            0.85359738668379       -0.61903437940116        2.31633720916259
C           -0.58057587479694       -0.87151461866455        2.79860647460533
C           -0.88688021520746       -2.33452348455971        3.14426159011866
N           -0.95857366228102       -2.66733046470510        4.60004546260567
C           -2.13373001074784       -2.02776505754892        5.20856197453568
C            0.29632604107351       -2.32369918277637        5.31582136294965
C            1.29337447426411       -3.41335129045426        4.92570277911119
C            0.42113211081028       -4.64314993411398        4.61277634777587
C           -1.02009625097781       -4.14721942496493        4.75594877204755
H           -0.13639456596441        1.03394216859252        0.18770919572544
H           -0.20893287199127        0.55205556451485       -1.50115413251197
H            1.35384392084429        0.78000877271288       -0.72332936968715
H           -0.66961393375396       -1.39313854439900        0.00737822482558
H            0.73176575252204       -1.63535438469822       -1.02137896798275
H            1.25276707239160       -2.43190214883065        1.19277209546457
H            2.26355784762820       -1.05890644375066        0.78317547812402
H            1.57235121411151       -0.89015611273367        3.09307465198180
H            0.95842613537772        0.45292212971174        2.14917254246397
H           -0.77917492916661       -0.21763226553203        3.64857627590395
H           -1.26135412440739       -0.55942488299970        2.00730831997267
H           -1.84937252475435       -2.62253940231135        2.71767138032594
H           -0.12199810433411       -2.96837806901579        2.69867181094344
H           -2.06862500543325       -0.94556387166635        5.12307227133836
H           -3.03992739648838       -2.36385452749365        4.70749811094539
H           -2.20046776984828       -2.28716368154018        6.26370619419819
H            0.09362802576274       -2.36068782159585        6.38742233393826
H            0.62905930733265       -1.32086981546501        5.05939567808754
H            1.87989085327130       -3.11854107314801        4.05699478306718
H            1.98990715608439       -3.60416588923116        5.73831587215071
H            0.61721997587148       -5.02073175355148        3.61077253351841
H            0.61088434513889       -5.45894970299555        5.30614242945083
H           -1.69994182497556       -4.58239006474606        4.02478803697885
H           -1.39926776283006       -4.36659382785224        5.75503406344254

          :  Hamiltonian                  GFN2-xTB          :
         :: total energy             -38.339252772371 Eh    ::
         :: gradient norm              0.000229790328 Eh/a0 ::
         :: HOMO-LUMO gap              8.027385574736 eV    ::
         :: SCC energy               -38.887129095470 Eh    ::
         :: -> dispersion             -0.027547224226 Eh    ::
         :: repulsion energy           0.547876323099 Eh    ::

    * Orbital Energies and Occupations

         #    Occupation            Energy/Eh            Energy/eV
      -------------------------------------------------------------
         1        2.0000           -0.8635378             -23.4981
       ...           ...                  ...                  ...
        24        2.0000           -0.6218689             -16.9219
        25        2.0000           -0.6169765             -16.7888
        26        2.0000           -0.6158871             -16.7591
        27        2.0000           -0.6094942             -16.5852
        28        2.0000           -0.5925569             -16.1243
        29        2.0000           -0.5903063             -16.0631
        30        2.0000           -0.5817039             -15.8290
        31        2.0000           -0.5704298             -15.5222
        32        2.0000           -0.5620867             -15.2952
        33        2.0000           -0.5543638             -15.0850
        34        2.0000           -0.5324812             -14.4896
        35        2.0000           -0.5253748             -14.2962
        36        2.0000           -0.5204157             -14.1612 (HOMO)
        37                         -0.2254147              -6.1338 (LUMO)
        38                         -0.1814169              -4.9366
        39                         -0.1593834              -4.3370
        40                         -0.1481278              -4.0308
        41                         -0.0874718              -2.3802
        42                         -0.0659266              -1.7940
        43                         -0.0574558              -1.5635
        44                         -0.0520856              -1.4173
        45                         -0.0387664              -1.0549
        46                         -0.0331084              -0.9009
        47                         -0.0260148              -0.7079
       ...                                ...                  ...
        72                          0.2043222               5.5599
      -------------------------------------------------------------
                  HL-Gap            0.2950010 Eh            8.0274 eV

     #   Z          covCN         q      C6AA      α(0)
     1   6 C        3.752    -0.109    22.645     6.786
     2   6 C        3.799    -0.057    21.609     6.619
     3   6 C        3.800    -0.064    21.722     6.636
     4   6 C        3.800    -0.068    21.797     6.647
     5   6 C        3.799    -0.072    21.880     6.660
     6   6 C        3.757    -0.040    21.343     6.587
     7   7 N        3.633     0.120    19.189     6.506
     8   6 C        3.710    -0.090    22.359     6.758
     9   6 C        3.800    -0.033    21.165     6.550
    10   6 C        3.815    -0.074    21.898     6.660
    11   6 C        3.815    -0.074    21.908     6.662
    12   6 C        3.805    -0.035    21.189     6.553
    13   1 H        0.925     0.034     2.536     2.491
    14   1 H        0.925     0.046     2.375     2.410
    15   1 H        0.925     0.044     2.390     2.418
    16   1 H        0.924     0.026     2.643     2.543
    17   1 H        0.924     0.043     2.404     2.425
    18   1 H        0.924     0.021     2.717     2.578
    19   1 H        0.924     0.051     2.310     2.377
    20   1 H        0.924     0.031     2.572     2.508
    21   1 H        0.925     0.061     2.188     2.313
    22   1 H        0.924     0.046     2.366     2.405
    23   1 H        0.925     0.075     2.029     2.227
    24   1 H        0.924     0.075     2.027     2.226
    25   1 H        0.925     0.100     1.786     2.090
    26   1 H        0.925     0.099     1.796     2.096
    27   1 H        0.925     0.096     1.824     2.112
    28   1 H        0.925     0.092     1.857     2.131
    29   1 H        0.924     0.085     1.933     2.174
    30   1 H        0.925     0.094     1.838     2.120
    31   1 H        0.925     0.071     2.074     2.252
    32   1 H        0.925     0.082     1.963     2.191
    33   1 H        0.925     0.069     2.096     2.264
    34   1 H        0.925     0.082     1.961     2.190
    35   1 H        0.925     0.085     1.925     2.170
    36   1 H        0.924     0.087     1.905     2.158

Wiberg/Mayer (AO) data.
largest (>0.10) Wiberg bond orders for each atom

     #   Z sym  total        # sym  WBO       # sym  WBO       # sym  WBO
 ---------------------------------------------------------------------------
     1   6 C    3.995 --     2 C    1.021    15 H    0.987    13 H    0.986
                            14 H    0.986
     2   6 C    3.997 --     1 C    1.021     3 C    1.007    17 H    0.977
                            16 H    0.976
     3   6 C    3.995 --     2 C    1.007     4 C    1.007    19 H    0.974
                            18 H    0.972
     4   6 C    3.992 --     3 C    1.007     5 C    1.005    20 H    0.972
                            21 H    0.971
     5   6 C    3.985 --     4 C    1.005     6 C    1.003    23 H    0.967
                            22 H    0.965
     6   6 C    3.925 --     5 C    1.003    24 H    0.971    25 H    0.957
                             7 N    0.923
     7   7 N    3.805 --     8 C    0.966     9 C    0.934    12 C    0.933
                             6 C    0.923
     8   6 C    3.933 --    27 H    0.975    28 H    0.974    26 H    0.970
                             7 N    0.966
     9   6 C    3.934 --    10 C    1.007    29 H    0.969    30 H    0.963
                             7 N    0.934
    10   6 C    3.986 --     9 C    1.007    11 C    0.998    31 H    0.975
                            32 H    0.974
    11   6 C    3.985 --    12 C    1.005    10 C    0.998    33 H    0.978
                            34 H    0.974
    12   6 C    3.935 --    11 C    1.005    35 H    0.971    36 H    0.969
                             7 N    0.933
    13   1 H    0.999 --     1 C    0.986
    14   1 H    0.998 --     1 C    0.986
    15   1 H    0.998 --     1 C    0.987
    16   1 H    0.999 --     2 C    0.976
    17   1 H    0.998 --     2 C    0.977
    18   1 H    1.000 --     3 C    0.972
    19   1 H    0.997 --     3 C    0.974
    20   1 H    0.999 --     4 C    0.972
    21   1 H    0.996 --     4 C    0.971
    22   1 H    0.998 --     5 C    0.965
    23   1 H    0.994 --     5 C    0.967
    24   1 H    0.994 --     6 C    0.971
    25   1 H    0.990 --     6 C    0.957
    26   1 H    0.990 --     8 C    0.970
    27   1 H    0.991 --     8 C    0.975
    28   1 H    0.991 --     8 C    0.974
    29   1 H    0.993 --     9 C    0.969
    30   1 H    0.991 --     9 C    0.963
    31   1 H    0.995 --    10 C    0.975
    32   1 H    0.993 --    10 C    0.974
    33   1 H    0.995 --    11 C    0.978
    34   1 H    0.993 --    11 C    0.974
    35   1 H    0.993 --    12 C    0.971
    36   1 H    0.992 --    12 C    0.969
 ---------------------------------------------------------------------------

molecular dipole:
                 x           y           z       tot (Debye)
 q only:       -1.180      -4.953       8.211
   full:       -1.350      -4.948       8.299      24.796

           -------------------------------------------------
          | TOTAL ENERGY              -38.339252772371 Eh   |
          | GRADIENT NORM               0.000229790328 Eh/α |
          | HOMO-LUMO GAP               8.027385574736 eV   |
           -------------------------------------------------

 * finished run on 2024/12/20 at 02:05:51.092
