   * xtb version 6.7.1 (edcfbbe) compiled by 'conda@3ef47c1a292c' on 2024-11-25

   ID    Z sym.   atoms
    1    6 C      1-8, 10-28
    2    7 N      9
    3    1 H      29-86

          program call               : xtb C0105.xyz --opt --namespace C0105 --charge +1
          :  Hamiltonian                  GFN2-xTB          :
 * total energy  :   -89.9448653 Eh     change       -0.2431335E-09 Eh
 * total energy  :   -89.9539750 Eh     change       -0.9109689E-02 Eh
 * total energy  :   -89.9567472 Eh     change       -0.2772228E-02 Eh
 * total energy  :   -89.9572005 Eh     change       -0.4532276E-03 Eh
 * total energy  :   -89.9577324 Eh     change       -0.5319895E-03 Eh
 * total energy  :   -89.9580886 Eh     change       -0.3561952E-03 Eh
 * total energy  :   -89.9584298 Eh     change       -0.3411821E-03 Eh
 * total energy  :   -89.9587122 Eh     change       -0.2823459E-03 Eh
 * total energy  :   -89.9589016 Eh     change       -0.1894599E-03 Eh
 * total energy  :   -89.9590501 Eh     change       -0.1484822E-03 Eh
 * total energy  :   -89.9641700 Eh     change       -0.8052362E-05 Eh
 * total energy  :   -89.9641797 Eh     change       -0.9654905E-05 Eh
 * total energy  :   -89.9641902 Eh     change       -0.1055588E-04 Eh
 * total energy  :   -89.9642001 Eh     change       -0.9877767E-05 Eh
 * total energy  :   -89.9642089 Eh     change       -0.8793388E-05 Eh
 * total energy  :   -89.9642172 Eh     change       -0.8251939E-05 Eh
 * total energy  :   -89.9642246 Eh     change       -0.7441188E-05 Eh
 * total energy  :   -89.9642308 Eh     change       -0.6238405E-05 Eh
 * total energy  :   -89.9642350 Eh     change       -0.4199254E-05 Eh
   *** GEOMETRY OPTIMIZATION CONVERGED AFTER 84 ITERATIONS ***

 final structure:
================
86
 xtb: 6.7.1 (edcfbbe)
C            1.33566774760746       -0.37087538095942       -1.44341168445829
C            1.27689698760709        1.05380323575780       -0.90442630117344
C            1.86976383771275        2.09186332943070       -1.85941835884517
C            1.17320126593002        2.19379705396306       -3.21799892156446
C           -0.28878616329025        2.62301565014477       -3.10311772208974
C           -0.92502073610965        2.96749613506320       -4.45077256232767
C           -1.00210481334441        1.80375756832407       -5.44437345340252
C           -1.81037268281630        0.55265146564889       -5.07421965279428
N           -3.30767672139393        0.63583211879606       -5.04438455288273
C           -3.82125158110332        1.59098706593476       -6.08667400154205
C           -3.41608793189367        1.31034932137330       -7.54272581325513
C           -4.61123228900648        0.98685469444367       -8.44865187378382
C           -5.57267494302929        2.15845967810028       -8.66397283086574
C           -4.95449147404535        3.39348732910871       -9.32348613048562
C           -4.31335728386621        3.14739904271296      -10.69128883892256
C           -5.26148622325217        2.58845410634888      -11.75385499630857
C           -6.42081422232260        3.52419874723410      -12.07566020453534
C           -3.92926608527330       -0.69543323996520       -5.35929729566791
C           -3.31981179003441       -1.97558280365736       -4.78503737845685
C           -3.93074159505341       -3.20348249595064       -5.47468498524091
C           -5.41863690921161       -3.39505079887908       -5.18510750508800
C           -5.98028527938224       -4.67559869527912       -5.80813309247501
C           -5.40824449887291       -5.98108688601570       -5.25088806404289
C           -5.58789028533399       -6.17719037961144       -3.74429333013587
C           -7.04864683966745       -6.19647902869578       -3.30942707890965
C           -3.79072594247783        1.18086713542622       -3.72487907389321
C           -4.00117596321562        0.24479831261600       -2.53026372819045
C           -2.75347424163666       -0.23951830829422       -1.79975537155915
H            0.71577942159135       -0.48939699020089       -2.32996864181032
H            0.98493871536754       -1.07269879395412       -0.69068223892125
H            2.35777308848042       -0.63356209083291       -1.70437842737376
H            0.24479057227498        1.31498305687322       -0.66130095489472
H            1.84306116248857        1.09531144001237        0.02754798554400
H            1.83861915423874        3.06924250570874       -1.37312549007807
H            2.91902164991395        1.84486589635854       -2.03225702480568
H            1.70968256087354        2.92974718212268       -3.82076734029527
H            1.24767630931354        1.23283598440402       -3.72890651659612
H           -0.85794711128455        1.83706464356586       -2.60736727874841
H           -0.34020535895447        3.51102944249414       -2.46971762674145
H           -1.90998039969322        3.41319051368509       -4.28838263228007
H           -0.31497755179169        3.74000069817910       -4.92384381660831
H           -1.32448861075584        2.19177241090453       -6.40847408226314
H            0.01679990151533        1.43902879940264       -5.59015035859930
H           -1.55038863683507       -0.20331195955577       -5.81648824878855
H           -1.48810384753636        0.19471588443829       -4.09840539803422
H           -4.91108817407350        1.56011818842596       -6.02593609933425
H           -3.50304217209808        2.59026358657324       -5.79130716765286
H           -2.91766005565517        2.18802542783184       -7.95367913532933
H           -2.70088122703901        0.49008617397488       -7.60356545898831
H           -4.22398516362760        0.66936122596778       -9.41679077428095
H           -5.17820051647326        0.14735584792689       -8.03739067171230
H           -6.39542721518174        1.80194119778241       -9.28419581525824
H           -6.00732575118638        2.46563159735545       -7.70863258351275
H           -5.74167263447521        4.14019204440163       -9.43258808189320
H           -4.20160504122953        3.82852566169768       -8.66070009901643
H           -3.91699991453808        4.10040687095853      -11.04902639320969
H           -3.46438420755765        2.46759881612214      -10.58430036145816
H           -4.68209784662288        2.42137517940922      -12.66465648683872
H           -5.65195049457580        1.61886706987292      -11.43765999169208
H           -6.04911696767356        4.50841537391244      -12.35259533583549
H           -6.99835914218982        3.13115338016743      -12.90861629744179
H           -7.09022744090355        3.63439149103136      -11.22567141558545
H           -4.97494026074239       -0.62470031476768       -5.05669591799830
H           -3.90342051933710       -0.80472879405099       -6.44356543544831
H           -2.24371516537524       -2.00504207187460       -4.95396570886632
H           -3.49506536928005       -2.06922085995557       -3.71641948976323
H           -3.77595293646936       -3.13828913142386       -6.55419441836867
H           -3.38923566241874       -4.07955555424008       -5.11886014514709
H           -5.57959399229169       -3.41341001174797       -4.10612279232826
H           -5.98762706463796       -2.55555056302420       -5.59250172814325
H           -7.06194400337989       -4.67658433407126       -5.66826676861054
H           -5.79342298394508       -4.65190947637558       -6.88460779998619
H           -5.90501353701737       -6.80467801231805       -5.76768129129946
H           -4.34491608804873       -6.04927160058372       -5.49072831844941
H           -5.12911635007611       -7.13071967033119       -3.47440748374163
H           -5.05274897121848       -5.39822095166631       -3.19653799222668
H           -7.60282681235254       -6.93986969709012       -3.87729168412505
H           -7.12325494482904       -6.44881318223807       -2.25435453746394
H           -7.52012295416337       -5.22804207541408       -3.45858444355371
H           -3.09610682494821        1.96555775696897       -3.42962908882184
H           -4.76030649947231        1.64477968018127       -3.91872293845629
H           -4.57829808379517        0.83993247181904       -1.81769231347013
H           -4.63405203584766       -0.59824538878728       -2.80256912594403
H           -2.15117027173262        0.60226343867199       -1.46852714518747
H           -3.05519260027390       -0.79048025654559       -0.91275825470106
H           -2.13529646496615       -0.90271313128775       -2.39843011472769

          :  Hamiltonian                  GFN2-xTB          :
         :: total energy             -89.964235038958 Eh    ::
         :: gradient norm              0.000668364800 Eh/a0 ::
         :: HOMO-LUMO gap              7.088557212087 eV    ::
         :: SCC energy               -91.278582550751 Eh    ::
         :: -> dispersion             -0.075610902336 Eh    ::
         :: repulsion energy           1.314347511793 Eh    ::

    * Orbital Energies and Occupations

         #    Occupation            Energy/Eh            Energy/eV
      -------------------------------------------------------------
         1        2.0000           -0.8364795             -22.7618
       ...           ...                  ...                  ...
        73        2.0000           -0.5259337             -14.3114
        74        2.0000           -0.5249619             -14.2849
        75        2.0000           -0.5215199             -14.1913
        76        2.0000           -0.5195430             -14.1375
        77        2.0000           -0.5076543             -13.8140
        78        2.0000           -0.5068077             -13.7909
        79        2.0000           -0.5025922             -13.6762
        80        2.0000           -0.5017532             -13.6534
        81        2.0000           -0.4975907             -13.5401
        82        2.0000           -0.4973493             -13.5336
        83        2.0000           -0.4953165             -13.4782
        84        2.0000           -0.4932233             -13.4213
        85        2.0000           -0.4920594             -13.3896 (HOMO)
        86                         -0.2315597              -6.3011 (LUMO)
        87                         -0.1744892              -4.7481
        88                         -0.1578628              -4.2957
        89                         -0.1451580              -3.9500
        90                         -0.0685616              -1.8657
        91                         -0.0652536              -1.7756
        92                         -0.0542703              -1.4768
        93                         -0.0467421              -1.2719
        94                         -0.0386730              -1.0523
        95                         -0.0357398              -0.9725
        96                         -0.0333260              -0.9068
       ...                                ...                  ...
       170                          0.2385238               6.4906
      -------------------------------------------------------------
                  HL-Gap            0.2604997 Eh            7.0886 eV

     #   Z          covCN         q      C6AA      α(0)
     1   6 C        3.751    -0.102    22.513     6.767
     2   6 C        3.799    -0.055    21.559     6.611
     3   6 C        3.801    -0.062    21.700     6.632
     4   6 C        3.801    -0.062    21.687     6.630
     5   6 C        3.801    -0.064    21.735     6.638
     6   6 C        3.799    -0.065    21.743     6.639
     7   6 C        3.799    -0.077    21.976     6.675
     8   6 C        3.744    -0.033    21.227     6.572
     9   7 N        3.614     0.098    19.550     6.567
    10   6 C        3.766    -0.035    21.229     6.567
    11   6 C        3.799    -0.071    21.856     6.656
    12   6 C        3.800    -0.066    21.766     6.643
    13   6 C        3.800    -0.063    21.712     6.634
    14   6 C        3.800    -0.061    21.675     6.629
    15   6 C        3.800    -0.060    21.658     6.626
    16   6 C        3.799    -0.054    21.553     6.610
    17   6 C        3.751    -0.105    22.572     6.775
    18   6 C        3.757    -0.036    21.276     6.577
    19   6 C        3.800    -0.072    21.887     6.661
    20   6 C        3.803    -0.067    21.780     6.644
    21   6 C        3.800    -0.061    21.671     6.628
    22   6 C        3.801    -0.061    21.682     6.630
    23   6 C        3.800    -0.062    21.683     6.630
    24   6 C        3.799    -0.053    21.532     6.607
    25   6 C        3.751    -0.105    22.562     6.774
    26   6 C        3.754    -0.038    21.305     6.582
    27   6 C        3.798    -0.067    21.782     6.645
    28   6 C        3.750    -0.114    22.743     6.801
    29   1 H        0.925     0.020     2.735     2.586
    30   1 H        0.925     0.036     2.500     2.473
    31   1 H        0.925     0.042     2.423     2.434
    32   1 H        0.924     0.024     2.673     2.557
    33   1 H        0.924     0.040     2.453     2.450
    34   1 H        0.924     0.036     2.506     2.475
    35   1 H        0.924     0.041     2.432     2.439
    36   1 H        0.924     0.036     2.500     2.473
    37   1 H        0.924     0.032     2.564     2.504
    38   1 H        0.925     0.030     2.583     2.513
    39   1 H        0.924     0.044     2.402     2.423
    40   1 H        0.924     0.024     2.669     2.555
    41   1 H        0.924     0.054     2.273     2.358
    42   1 H        0.925     0.056     2.250     2.346
    43   1 H        0.924     0.072     2.065     2.247
    44   1 H        0.924     0.073     2.048     2.238
    45   1 H        0.925     0.091     1.870     2.139
    46   1 H        0.924     0.079     1.988     2.205
    47   1 H        0.925     0.079     1.987     2.204
    48   1 H        0.925     0.067     2.123     2.279
    49   1 H        0.925     0.050     2.323     2.384
    50   1 H        0.925     0.058     2.226     2.333
    51   1 H        0.924     0.030     2.587     2.515
    52   1 H        0.924     0.052     2.298     2.371
    53   1 H        0.924     0.022     2.703     2.571
    54   1 H        0.924     0.046     2.367     2.406
    55   1 H        0.924     0.022     2.710     2.575
    56   1 H        0.924     0.038     2.470     2.458
    57   1 H        0.924     0.024     2.668     2.554
    58   1 H        0.924     0.035     2.521     2.483
    59   1 H        0.924     0.029     2.602     2.523
    60   1 H        0.925     0.039     2.464     2.455
    61   1 H        0.925     0.039     2.460     2.453
    62   1 H        0.925     0.034     2.533     2.489
    63   1 H        0.924     0.077     2.015     2.220
    64   1 H        0.925     0.087     1.904     2.158
    65   1 H        0.925     0.046     2.372     2.408
    66   1 H        0.925     0.061     2.186     2.312
    67   1 H        0.924     0.037     2.487     2.466
    68   1 H        0.925     0.059     2.207     2.323
    69   1 H        0.924     0.040     2.451     2.448
    70   1 H        0.924     0.020     2.729     2.583
    71   1 H        0.924     0.044     2.393     2.419
    72   1 H        0.924     0.032     2.558     2.501
    73   1 H        0.924     0.041     2.436     2.441
    74   1 H        0.924     0.028     2.613     2.528
    75   1 H        0.924     0.035     2.518     2.481
    76   1 H        0.924     0.025     2.665     2.553
    77   1 H        0.925     0.040     2.447     2.446
    78   1 H        0.925     0.037     2.493     2.469
    79   1 H        0.925     0.032     2.560     2.502
    80   1 H        0.925     0.091     1.867     2.137
    81   1 H        0.924     0.069     2.096     2.264
    82   1 H        0.924     0.068     2.103     2.268
    83   1 H        0.925     0.058     2.221     2.330
    84   1 H        0.925     0.050     2.316     2.380
    85   1 H        0.925     0.060     2.196     2.317
    86   1 H        0.925     0.042     2.419     2.432

Wiberg/Mayer (AO) data.
largest (>0.10) Wiberg bond orders for each atom

     #   Z sym  total        # sym  WBO       # sym  WBO       # sym  WBO
 ---------------------------------------------------------------------------
     1   6 C    3.997 --     2 C    1.020    30 H    0.987    31 H    0.987
                            29 H    0.986
     2   6 C    3.997 --     1 C    1.020     3 C    1.008    33 H    0.977
                            32 H    0.976
     3   6 C    3.996 --     2 C    1.008     4 C    1.006    34 H    0.977
                            35 H    0.976
     4   6 C    3.997 --     5 C    1.008     3 C    1.006    36 H    0.976
                            37 H    0.973
     5   6 C    3.995 --     4 C    1.008     6 C    1.007    39 H    0.975
                            38 H    0.965
     6   6 C    3.993 --     5 C    1.007     7 C    1.006    41 H    0.972
                            40 H    0.969
     7   6 C    3.985 --     6 C    1.006     8 C    1.004    42 H    0.967
                            43 H    0.961
     8   6 C    3.934 --     7 C    1.004    44 H    0.964    45 H    0.958
                             9 N    0.930
     9   7 N    3.795 --    10 C    0.930     8 C    0.930    26 C    0.928
                            18 C    0.927
    10   6 C    3.933 --    11 C    1.001    47 H    0.968    46 H    0.963
                             9 N    0.930
    11   6 C    3.986 --    12 C    1.003    10 C    1.001    49 H    0.966
                            48 H    0.966
    12   6 C    3.992 --    13 C    1.008    11 C    1.003    51 H    0.974
                            50 H    0.971
    13   6 C    3.995 --    12 C    1.008    14 C    1.007    53 H    0.974
                            52 H    0.972
    14   6 C    3.996 --    15 C    1.008    13 C    1.007    55 H    0.975
                            54 H    0.973
    15   6 C    3.997 --    16 C    1.008    14 C    1.008    56 H    0.976
                            57 H    0.976
    16   6 C    3.998 --    17 C    1.020    15 C    1.008    58 H    0.978
                            59 H    0.976
    17   6 C    3.996 --    16 C    1.020    60 H    0.987    61 H    0.987
                            62 H    0.986
    18   6 C    3.931 --    19 C    1.006    63 H    0.965    64 H    0.958
                             9 N    0.927
    19   6 C    3.987 --    18 C    1.006    20 C    0.996    65 H    0.971
                            66 H    0.967
    20   6 C    3.990 --    21 C    1.009    19 C    0.996    67 H    0.976
                            68 H    0.970
    21   6 C    3.996 --    20 C    1.009    22 C    1.005    70 H    0.976
                            69 H    0.974
    22   6 C    3.995 --    23 C    1.008    21 C    1.005    72 H    0.977
                            71 H    0.975
    23   6 C    3.996 --    24 C    1.008    22 C    1.008    73 H    0.976
                            74 H    0.975
    24   6 C    3.998 --    25 C    1.020    23 C    1.008    75 H    0.978
                            76 H    0.976
    25   6 C    3.996 --    24 C    1.020    77 H    0.987    78 H    0.987
                            79 H    0.986
    26   6 C    3.934 --    27 C    1.006    81 H    0.969    80 H    0.958
                             9 N    0.928
    27   6 C    3.986 --    28 C    1.020    26 C    1.006    83 H    0.967
                            82 H    0.965
    28   6 C    3.991 --    27 C    1.020    85 H    0.982    86 H    0.978
                            84 H    0.978
    29   1 H    1.000 --     1 C    0.986
    30   1 H    0.999 --     1 C    0.987
    31   1 H    0.998 --     1 C    0.987
    32   1 H    0.999 --     2 C    0.976
    33   1 H    0.998 --     2 C    0.977
    34   1 H    0.999 --     3 C    0.977
    35   1 H    0.998 --     3 C    0.976
    36   1 H    0.998 --     4 C    0.976
    37   1 H    0.999 --     4 C    0.973
    38   1 H    0.999 --     5 C    0.965
    39   1 H    0.998 --     5 C    0.975
    40   1 H    0.999 --     6 C    0.969
    41   1 H    0.997 --     6 C    0.972
    42   1 H    0.997 --     7 C    0.967
    43   1 H    0.995 --     7 C    0.961
    44   1 H    0.995 --     8 C    0.964
    45   1 H    0.992 --     8 C    0.958
    46   1 H    0.994 --    10 C    0.963
    47   1 H    0.993 --    10 C    0.968
    48   1 H    0.995 --    11 C    0.966
    49   1 H    0.997 --    11 C    0.966
    50   1 H    0.996 --    12 C    0.971
    51   1 H    0.999 --    12 C    0.974
    52   1 H    0.997 --    13 C    0.972
    53   1 H    1.000 --    13 C    0.974
    54   1 H    0.998 --    14 C    0.973
    55   1 H    1.000 --    14 C    0.975
    56   1 H    0.999 --    15 C    0.976
    57   1 H    0.999 --    15 C    0.976
    58   1 H    0.999 --    16 C    0.978
    59   1 H    0.999 --    16 C    0.976
    60   1 H    0.998 --    17 C    0.987
    61   1 H    0.998 --    17 C    0.987
    62   1 H    0.999 --    17 C    0.986
    63   1 H    0.994 --    18 C    0.965
    64   1 H    0.992 --    18 C    0.958
    65   1 H    0.998 --    19 C    0.971
    66   1 H    0.996 --    19 C    0.967
    67   1 H    0.999 --    20 C    0.976
    68   1 H    0.996 --    20 C    0.970
    69   1 H    0.998 --    21 C    0.974
    70   1 H    1.000 --    21 C    0.976
    71   1 H    0.998 --    22 C    0.975
    72   1 H    0.999 --    22 C    0.977
    73   1 H    0.998 --    23 C    0.976
    74   1 H    0.999 --    23 C    0.975
    75   1 H    0.999 --    24 C    0.978
    76   1 H    0.999 --    24 C    0.976
    77   1 H    0.998 --    25 C    0.987
    78   1 H    0.999 --    25 C    0.987
    79   1 H    0.999 --    25 C    0.986
    80   1 H    0.991 --    26 C    0.958
    81   1 H    0.995 --    26 C    0.969
    82   1 H    0.995 --    27 C    0.965
    83   1 H    0.996 --    27 C    0.967
    84   1 H    0.997 --    28 C    0.978
    85   1 H    0.996 --    28 C    0.982
    86   1 H    0.998 --    28 C    0.978
 ---------------------------------------------------------------------------

molecular dipole:
                 x           y           z       tot (Debye)
 q only:       -6.086       0.912      -9.626
   full:       -6.117       0.992      -9.627      29.101

           -------------------------------------------------
          | TOTAL ENERGY              -89.964235038958 Eh   |
          | GRADIENT NORM               0.000668364800 Eh/α |
          | HOMO-LUMO GAP               7.088557212087 eV   |
           -------------------------------------------------

 * finished run on 2024/12/20 at 02:06:51.067
