   * xtb version 6.7.1 (edcfbbe) compiled by 'conda@3ef47c1a292c' on 2024-11-25

   ID    Z sym.   atoms
    1    6 C      1, 2, 4-8, 10-13, 15, 16, 18-20, 23-26, 30-33, 35, 36, 38,
                  39, 41-43
    2    7 N      3, 9, 14, 29
    3    8 O      17, 21, 22, 40, 44, 45
    4   17 Cl     27, 28, 34, 37
    5    1 H      46-80

          program call               : xtb C0101.xyz --opt --namespace C0101 --charge +1
          :  Hamiltonian                  GFN2-xTB          :
 * total energy  :  -138.2376497 Eh     change       -0.5557922E-08 Eh
 * total energy  :  -138.2601818 Eh     change       -0.2253207E-01 Eh
 * total energy  :  -138.2692954 Eh     change       -0.9113594E-02 Eh
 * total energy  :  -138.2722850 Eh     change       -0.2989597E-02 Eh
 * total energy  :  -138.2752590 Eh     change       -0.2974024E-02 Eh
 * total energy  :  -138.2774116 Eh     change       -0.2152587E-02 Eh
 * total energy  :  -138.2794496 Eh     change       -0.2038022E-02 Eh
 * total energy  :  -138.2815155 Eh     change       -0.2065929E-02 Eh
 * total energy  :  -138.2831558 Eh     change       -0.1640229E-02 Eh
 * total energy  :  -138.2846921 Eh     change       -0.1536338E-02 Eh
 * total energy  :  -138.3018805 Eh     change       -0.2391698E-04 Eh
 * total energy  :  -138.3018910 Eh     change       -0.1052409E-04 Eh
 * total energy  :  -138.3019126 Eh     change       -0.2157616E-04 Eh
 * total energy  :  -138.3019212 Eh     change       -0.8641250E-05 Eh
 * total energy  :  -138.3019331 Eh     change       -0.1188482E-04 Eh
 * total energy  :  -138.3019407 Eh     change       -0.7584167E-05 Eh
 * total energy  :  -138.3019477 Eh     change       -0.7018429E-05 Eh
 * total energy  :  -138.3019545 Eh     change       -0.6830693E-05 Eh
 * total energy  :  -138.3019586 Eh     change       -0.4063667E-05 Eh
   *** GEOMETRY OPTIMIZATION CONVERGED AFTER 65 ITERATIONS ***

 final structure:
================
80
 xtb: 6.7.1 (edcfbbe)
C            1.38261624820035        0.64129704648782        2.60218594568577
C            1.05193931871200       -0.24245622039544        1.40292598957960
N            1.42890407198052       -1.61653065723942        1.63669155909874
C            2.67433839665560       -2.16420416313056        1.49435820381033
C            3.76831855922341       -1.41606186707078        1.05864017149691
C            5.11310803829359       -1.74176118776379        1.08246206185465
C            6.07524562993969       -0.91565081300699        0.52389433311718
C            7.46064790079985       -1.08067870468497        0.49439922410341
N            8.25312833930737       -1.85540617794359        1.28878321298211
C            7.87235788907763       -2.67112968262423        2.41539126274897
C            7.70202832245798       -4.13488413654691        2.01664098158569
C            9.55739511056534       -1.73098844341470        0.87405488742541
C            9.56976438145831       -0.81184929056561       -0.18771903380126
N            8.26932255126869       -0.41181125094710       -0.38815731098387
C            7.90134794818992        0.50159769576165       -1.44113133616242
C            7.94050163619259       -0.13094693461284       -2.85182262578846
O            6.71837460736316       -0.67874235368962       -3.27351304455255
C            6.39303081157863       -1.98157937282009       -2.84472619566220
C            7.36632977149235       -3.06001239707967       -3.35080947380534
C            8.47962692504562       -3.32439617899133       -2.36887409943474
O            8.33119633402324       -3.39452793511239       -1.17330412525190
O            9.65911616729455       -3.48052676928854       -2.96230412431354
C           10.74589711389623       -0.47266571645399       -0.83452456630926
C           11.91491584787115       -1.07988550760908       -0.39619638516858
C           11.90338858347780       -1.99708159665575        0.66516857634032
C           10.72366255295826       -2.33160094209968        1.31541169558830
Cl          13.37455804611642       -2.73163830575991        1.17144705434253
Cl          13.39784476641771       -0.70087297308468       -1.18201322425219
N            2.60685127829958       -3.47883837677063        1.86752354568723
C            1.31598832522614       -3.75426894143857        2.27327594089060
C            0.57504503039031       -2.56871005690078        2.13953815084927
C           -0.76427554765056       -2.51220615047976        2.48779730925979
C           -1.35293154941780       -3.67401847073514        2.96404502775602
Cl          -3.01276315954701       -3.64971617522777        3.40754064961051
C           -0.61544283759996       -4.86112658684232        3.09020708887943
C            0.72902480574227       -4.91538808433939        2.75148448184343
Cl          -1.38349949405878       -6.28185187232450        3.67653024572690
C            3.57450487476633       -4.52286073721418        1.63576137591849
C            3.89704676692168       -4.70311041964900        0.13538149787148
O            2.77767620819532       -4.64451104498686       -0.70944544631862
C            1.81605428776875       -5.67996237059781       -0.61894402929980
C            2.35229159781049       -7.08276029252137       -0.92110598391708
C            2.88566851863790       -7.79164508507916        0.30104136651148
O            2.67231318167209       -7.46756306522490        1.44248121626966
O            3.62294929114121       -8.84762959635342       -0.02396918319700
H            0.86626311443809        0.28296701714725        3.48906404738953
H            1.06650713219984        1.66136102766800        2.40585150962715
H            2.45188897604093        0.63884227851197        2.79853236219234
H           -0.02209436212772       -0.22800188797562        1.21159882782679
H            1.55477133795129        0.12185919504762        0.50462008151227
H            3.52791712114438       -0.43657445455523        0.67348078695224
H            5.41963845404743       -2.66804127884656        1.53111040318172
H            5.69921421885501       -0.06090166671885       -0.01982041201021
H            8.66426727327443       -2.58345354836301        3.16441834447823
H            6.95731655766114       -2.26128936471193        2.84724437254727
H            8.65313217168406       -4.54501454634027        1.69062897295982
H            7.34322454769106       -4.71319960502954        2.86362540585086
H            7.00638225473379       -4.23215265298805        1.18710773993048
H            6.90106354663492        0.89668647245336       -1.26697275228890
H            8.60912552619743        1.33392176289389       -1.41165616348189
H            8.14519005081221        0.66377724429455       -3.57382183747742
H            8.75227578469158       -0.86614147063373       -2.90129017006676
H            6.32791483329552       -2.04374370478662       -1.75008576646799
H            5.40039220456827       -2.15130710186077       -3.26566573167242
H            6.81841529460349       -3.99716089449425       -3.46419432167545
H            7.78153178141369       -2.78488677792129       -4.32012882929742
H           10.36279874917143       -3.69965162605672       -2.33000241813150
H           10.77791320864340        0.22915943599895       -1.65043912795230
H           10.74156568507992       -3.04070135807560        2.12514806004375
H           -1.34867715752444       -1.61163604130164        2.40646571642220
H            1.26504356047332       -5.84398312843840        2.86437290665115
H            4.49655428530494       -4.33391681255872        2.18858527412033
H            3.14488978831658       -5.44960200563245        2.01641047807816
H            4.53230707206900       -3.88927613276936       -0.22327780887059
H            4.44414117280620       -5.64918049901582        0.02447101163282
H            1.33181208405535       -5.68931013726957        0.36506163904741
H            1.07499279426527       -5.40022960722869       -1.36993532154854
H            1.53465773366531       -7.69924230364073       -1.30087939391066
H            3.12391773999120       -7.05637098392911       -1.69178049980622
H            3.91069801572891       -9.33967267984009        0.76254974562888

          :  Hamiltonian                  GFN2-xTB          :
         :: total energy            -138.301958595205 Eh    ::
         :: gradient norm              0.000723330971 Eh/a0 ::
         :: HOMO-LUMO gap              1.706312506036 eV    ::
         :: SCC energy              -139.903848933246 Eh    ::
         :: -> dispersion             -0.106899106317 Eh    ::
         :: repulsion energy           1.601890338041 Eh    ::

    * Orbital Energies and Occupations

         #    Occupation            Energy/Eh            Energy/eV
      -------------------------------------------------------------
         1        2.0000           -1.1377815             -30.9606
       ...           ...                  ...                  ...
       109        2.0000           -0.5203532             -14.1595
       110        2.0000           -0.5166224             -14.0580
       111        2.0000           -0.5053589             -13.7515
       112        2.0000           -0.5048934             -13.7388
       113        2.0000           -0.5023417             -13.6694
       114        2.0000           -0.5015892             -13.6489
       115        2.0000           -0.4990402             -13.5796
       116        2.0000           -0.4956835             -13.4882
       117        2.0000           -0.4910239             -13.3614
       118        2.0000           -0.4886117             -13.2958
       119        2.0000           -0.4875512             -13.2669
       120        2.0000           -0.4782238             -13.0131
       121        2.0000           -0.4469995             -12.1635 (HOMO)
       122                         -0.3842936             -10.4572 (LUMO)
       123                         -0.3433034              -9.3418
       124                         -0.3339118              -9.0862
       125                         -0.3297099              -8.9719
       126                         -0.3272652              -8.9053
       127                         -0.3264452              -8.8830
       128                         -0.3252650              -8.8509
       129                         -0.2878795              -7.8336
       130                         -0.2334655              -6.3529
       131                         -0.2310098              -6.2861
       132                         -0.2250352              -6.1235
       ...                                ...                  ...
       235                          0.5753085              15.6549
      -------------------------------------------------------------
                  HL-Gap            0.0627058 Eh            1.7063 eV

     #   Z          covCN         q      C6AA      α(0)
     1   6 C        3.752    -0.120    22.863     6.819
     2   6 C        3.739    -0.009    20.825     6.511
     3   7 N        2.824    -0.017    21.577     6.899
     4   6 C        3.022     0.114    25.464     8.277
     5   6 C        2.905    -0.096    30.424     9.044
     6   6 C        2.894    -0.024    28.612     8.770
     7   6 C        2.904    -0.098    30.464     9.050
     8   6 C        3.025     0.117    25.406     8.268
     9   7 N        2.820    -0.001    21.286     6.852
    10   6 C        3.740    -0.009    20.815     6.510
    11   6 C        3.752    -0.119    22.844     6.816
    12   6 C        3.076     0.047    26.863     8.498
    13   6 C        3.071     0.040    27.034     8.525
    14   7 N        2.822    -0.022    21.673     6.914
    15   6 C        3.738    -0.025    21.106     6.555
    16   6 C        3.687     0.067    19.651     6.346
    17   8 O        1.701    -0.300    18.993     5.884
    18   6 C        3.688     0.072    19.553     6.329
    19   6 C        3.801    -0.107    22.540     6.760
    20   6 C        2.689     0.362    20.854     7.473
    21   8 O        0.856    -0.441    22.513     6.361
    22   8 O        1.660    -0.363    20.145     6.059
    23   6 C        2.952    -0.063    29.571     8.919
    24   6 C        2.922     0.083    26.149     8.386
    25   6 C        2.921     0.083    26.150     8.386
    26   6 C        2.952    -0.057    29.421     8.897
    27  17 Cl       0.998    -0.114   102.723    15.506
    28  17 Cl       0.998    -0.113   102.700    15.504
    29   7 N        2.814    -0.012    21.492     6.885
    30   6 C        3.072     0.039    27.056     8.529
    31   6 C        3.065     0.039    27.054     8.529
    32   6 C        2.953    -0.059    29.463     8.903
    33   6 C        2.922     0.087    26.074     8.374
    34  17 Cl       1.000    -0.110   102.595    15.496
    35   6 C        2.922     0.086    26.089     8.376
    36   6 C        2.953    -0.062    29.532     8.913
    37  17 Cl       1.001    -0.110   102.595    15.496
    38   6 C        3.739    -0.031    21.215     6.572
    39   6 C        3.686     0.071    19.589     6.336
    40   8 O        1.700    -0.311    19.195     5.915
    41   6 C        3.687     0.069    19.614     6.340
    42   6 C        3.801    -0.106    22.530     6.758
    43   6 C        2.688     0.363    20.840     7.471
    44   8 O        0.856    -0.428    22.246     6.324
    45   8 O        1.660    -0.364    20.164     6.062
    46   1 H        0.925     0.058     2.220     2.330
    47   1 H        0.925     0.067     2.121     2.277
    48   1 H        0.925     0.054     2.273     2.358
    49   1 H        0.924     0.074     2.037     2.232
    50   1 H        0.924     0.068     2.109     2.271
    51   1 H        0.926     0.054     2.268     2.355
    52   1 H        0.926     0.049     2.335     2.390
    53   1 H        0.926     0.052     2.301     2.372
    54   1 H        0.924     0.071     2.075     2.253
    55   1 H        0.924     0.067     2.121     2.277
    56   1 H        0.925     0.066     2.127     2.281
    57   1 H        0.925     0.057     2.237     2.339
    58   1 H        0.925     0.057     2.238     2.340
    59   1 H        0.925     0.085     1.925     2.169
    60   1 H        0.924     0.074     2.041     2.234
    61   1 H        0.924     0.077     2.012     2.218
    62   1 H        0.924     0.042     2.419     2.432
    63   1 H        0.923     0.040     2.443     2.444
    64   1 H        0.924     0.073     2.055     2.242
    65   1 H        0.924     0.088     1.898     2.155
    66   1 H        0.925     0.091     1.869     2.138
    67   1 H        0.804     0.337     0.620     1.237
    68   1 H        0.926     0.080     1.976     2.198
    69   1 H        0.926     0.085     1.930     2.173
    70   1 H        0.926     0.084     1.942     2.179
    71   1 H        0.926     0.099     1.795     2.095
    72   1 H        0.924     0.062     2.173     2.305
    73   1 H        0.925     0.105     1.741     2.063
    74   1 H        0.924     0.063     2.165     2.301
    75   1 H        0.923     0.039     2.469     2.457
    76   1 H        0.924     0.050     2.326     2.385
    77   1 H        0.924     0.069     2.101     2.267
    78   1 H        0.924     0.093     1.853     2.129
    79   1 H        0.924     0.088     1.895     2.153
    80   1 H        0.804     0.341     0.610     1.227

Wiberg/Mayer (AO) data.
largest (>0.10) Wiberg bond orders for each atom

     #   Z sym  total        # sym  WBO       # sym  WBO       # sym  WBO
 ---------------------------------------------------------------------------
     1   6 C    3.985 --     2 C    1.005    46 H    0.985    48 H    0.985
                            47 H    0.981
     2   6 C    3.956 --     1 C    1.005     3 N    0.980    49 H    0.965
                            50 H    0.962
     3   7 N    3.581 --     4 C    1.204    31 C    1.140     2 C    0.980
     4   6 C    3.920 --     5 C    1.308     3 N    1.204    29 N    1.200
     5   6 C    3.933 --     6 C    1.425     4 C    1.308    51 H    0.950
     6   6 C    3.964 --     5 C    1.425     7 C    1.418    52 H    0.948
     7   6 C    3.932 --     6 C    1.418     8 C    1.304    53 H    0.947
     8   6 C    3.918 --     7 C    1.304     9 N    1.211    14 N    1.191
     9   7 N    3.591 --     8 C    1.211    12 C    1.140    10 C    0.981
    10   6 C    3.956 --    11 C    1.005     9 N    0.981    54 H    0.965
                            55 H    0.962
    11   6 C    3.986 --    10 C    1.005    56 H    0.983    57 H    0.983
                            58 H    0.981
    12   6 C    3.964 --    26 C    1.360    13 C    1.253     9 N    1.140
    13   6 C    3.963 --    23 C    1.361    12 C    1.253    14 N    1.138
    14   7 N    3.573 --     8 C    1.191    13 C    1.138    15 C    0.988
    15   6 C    3.958 --    14 N    0.988    16 C    0.972    60 H    0.964
                            59 H    0.959
    16   6 C    3.953 --    17 O    1.000    15 C    0.972    61 H    0.964
                            62 H    0.961
    17   8 O    2.105 --    16 C    1.000    18 C    0.988
    18   6 C    3.951 --    17 O    0.988    19 C    0.982    64 H    0.968
                            63 H    0.960
    19   6 C    3.991 --    20 C    0.984    18 C    0.982    66 H    0.967
                            65 H    0.940
    20   6 C    3.912 --    21 O    1.727    22 O    1.156    19 C    0.984
    21   8 O    2.008 --    20 C    1.727    22 O    0.173
    22   8 O    2.223 --    20 C    1.156    67 H    0.860    21 O    0.173
    23   6 C    3.967 --    24 C    1.410    13 C    1.361    68 H    0.960
    24   6 C    3.916 --    23 C    1.410    25 C    1.326    28 Cl   1.014
    25   6 C    3.916 --    26 C    1.412    24 C    1.326    27 Cl   1.014
    26   6 C    3.966 --    25 C    1.412    12 C    1.360    69 H    0.959
    27  17 Cl   1.161 --    25 C    1.014
    28  17 Cl   1.162 --    24 C    1.014
    29   7 N    3.574 --     4 C    1.200    30 C    1.131    38 C    0.987
    30   6 C    3.960 --    36 C    1.358    31 C    1.257    29 N    1.131
    31   6 C    3.962 --    32 C    1.356    30 C    1.257     3 N    1.140
    32   6 C    3.967 --    33 C    1.416    31 C    1.356    70 H    0.958
    33   6 C    3.918 --    32 C    1.416    35 C    1.322    34 Cl   1.017
    34  17 Cl   1.167 --    33 C    1.017
    35   6 C    3.916 --    36 C    1.413    33 C    1.322    37 Cl   1.017
    36   6 C    3.967 --    35 C    1.413    30 C    1.358    71 H    0.951
    37  17 Cl   1.166 --    35 C    1.017
    38   6 C    3.955 --    29 N    0.987    39 C    0.974    72 H    0.957
                            73 H    0.949
    39   6 C    3.957 --    40 O    1.001    38 C    0.974    74 H    0.963
                            75 H    0.961
    40   8 O    2.093 --    39 C    1.001    41 C    0.980
    41   6 C    3.949 --    42 C    0.997    40 O    0.980    77 H    0.968
                            76 H    0.960
    42   6 C    3.992 --    41 C    0.997    43 C    0.981    79 H    0.957
                            78 H    0.939
    43   6 C    3.913 --    44 O    1.729    45 O    1.159    42 C    0.981
    44   8 O    2.023 --    43 C    1.729    45 O    0.172
    45   8 O    2.221 --    43 C    1.159    80 H    0.858    44 O    0.172
    46   1 H    0.997 --     1 C    0.985
    47   1 H    0.995 --     1 C    0.981
    48   1 H    0.997 --     1 C    0.985
    49   1 H    0.993 --     2 C    0.965
    50   1 H    0.994 --     2 C    0.962
    51   1 H    0.996 --     5 C    0.950
    52   1 H    0.997 --     6 C    0.948
    53   1 H    0.996 --     7 C    0.947
    54   1 H    0.994 --    10 C    0.965
    55   1 H    0.995 --    10 C    0.962
    56   1 H    0.996 --    11 C    0.983
    57   1 H    0.996 --    11 C    0.983
    58   1 H    0.997 --    11 C    0.981
    59   1 H    0.992 --    15 C    0.959
    60   1 H    0.993 --    15 C    0.964
    61   1 H    0.993 --    16 C    0.964
    62   1 H    0.998 --    16 C    0.961
    63   1 H    0.998 --    18 C    0.960
    64   1 H    0.995 --    18 C    0.968
    65   1 H    0.992 --    19 C    0.940
    66   1 H    0.992 --    19 C    0.967
    67   1 H    0.887 --    22 O    0.860
    68   1 H    0.993 --    23 C    0.960
    69   1 H    0.992 --    26 C    0.959
    70   1 H    0.992 --    32 C    0.958
    71   1 H    0.990 --    36 C    0.951
    72   1 H    0.995 --    38 C    0.957
    73   1 H    0.988 --    38 C    0.949
    74   1 H    0.996 --    39 C    0.963
    75   1 H    0.998 --    39 C    0.961
    76   1 H    0.998 --    41 C    0.960
    77   1 H    0.995 --    41 C    0.968
    78   1 H    0.991 --    42 C    0.939
    79   1 H    0.992 --    42 C    0.957
    80   1 H    0.883 --    45 O    0.858
 ---------------------------------------------------------------------------

molecular dipole:
                 x           y           z       tot (Debye)
 q only:        9.760      -4.126       0.726
   full:       10.238      -4.804       1.056      28.870

           -------------------------------------------------
          | TOTAL ENERGY             -138.301958595205 Eh   |
          | GRADIENT NORM               0.000723330971 Eh/α |
          | HOMO-LUMO GAP               1.706312506036 eV   |
           -------------------------------------------------

 * finished run on 2024/12/20 at 02:06:00.347
