   * xtb version 6.7.1 (edcfbbe) compiled by 'conda@3ef47c1a292c' on 2024-11-25

   ID    Z sym.   atoms
    1    8 O      1
    2    6 C      2-6, 8, 10, 11, 13-18
    3   16 S      7
    4    7 N      9, 12, 19
    5    1 H      20-33

          program call               : xtb C0106.xyz --opt --namespace C0106 --charge +1
          :  Hamiltonian                  GFN2-xTB          :
 * total energy  :   -52.7811106 Eh     change       -0.1200966E-08 Eh
 * total energy  :   -52.7909080 Eh     change       -0.9797465E-02 Eh
 * total energy  :   -52.7932297 Eh     change       -0.2321647E-02 Eh
 * total energy  :   -52.7936685 Eh     change       -0.4388012E-03 Eh
 * total energy  :   -52.7941626 Eh     change       -0.4940943E-03 Eh
 * total energy  :   -52.7944235 Eh     change       -0.2608759E-03 Eh
 * total energy  :   -52.7947591 Eh     change       -0.3355982E-03 Eh
 * total energy  :   -52.7950725 Eh     change       -0.3133879E-03 Eh
 * total energy  :   -52.7953378 Eh     change       -0.2653461E-03 Eh
 * total energy  :   -52.7956116 Eh     change       -0.2738532E-03 Eh
 * total energy  :   -52.7993211 Eh     change       -0.1887767E-04 Eh
 * total energy  :   -52.7993485 Eh     change       -0.2739241E-04 Eh
 * total energy  :   -52.7993793 Eh     change       -0.3076744E-04 Eh
 * total energy  :   -52.7994081 Eh     change       -0.2878832E-04 Eh
 * total energy  :   -52.7994297 Eh     change       -0.2163225E-04 Eh
 * total energy  :   -52.7994422 Eh     change       -0.1247193E-04 Eh
 * total energy  :   -52.7994501 Eh     change       -0.7933181E-05 Eh
 * total energy  :   -52.7994575 Eh     change       -0.7328121E-05 Eh
 * total energy  :   -52.7994611 Eh     change       -0.3644722E-05 Eh
   *** GEOMETRY OPTIMIZATION CONVERGED AFTER 48 ITERATIONS ***

 final structure:
================
33
 xtb: 6.7.1 (edcfbbe)
O            1.68835883745624        0.56944318683350       -0.42229217690481
C            2.77116362304892        0.02867055702922       -0.34102207147695
C            3.13507562015131       -0.92348657790825        0.66866762710520
C            2.32212901887113       -1.36396511495227        1.69595025917553
C            2.95384169265889       -2.29365394424709        2.52721655670886
C            4.23706772008382       -2.55841683920335        2.13825718735230
S            4.70109545370003       -1.68352864191614        0.75163213222658
C            3.87168950955604        0.38313582483821       -1.37227561946372
N            3.26684977682917        1.10859527062813       -2.45272660951080
C            2.73659133830883        2.33391059748280       -2.34220994281943
C            2.91031259668432        3.28065373243933       -1.22870421797103
N            2.01411911001331        2.61137993609194       -3.43580734195054
C            2.05714353010163        1.52392524089781       -4.29094176720129
C            2.85455232000509        0.55857588551490       -3.65328130539252
C            3.09723182393717       -0.67122724150905       -4.24937151113410
C            2.52395221274158       -0.89485503915265       -5.48564041772502
C            1.73477816176349        0.06813336779009       -6.11731919180315
C            1.48692767732520        1.29498006415843       -5.53531896896967
N            1.37915945526596        3.82268247887959       -3.63256040040216
H            1.31287650930016       -1.01465348407809        1.81964228524708
H            2.48819257815969       -2.75358891980363        3.37936749435193
H            4.93936336302619       -3.22732570193090        2.59639440676020
H            4.63161321448915        0.99278119994101       -0.87563442076724
H            4.34535408739774       -0.51905436881759       -1.75757927755162
H            2.24552207438489        3.01830615424822       -0.40425019747415
H            3.93273593195798        3.26205098569801       -0.85664551641311
H            2.66381087458936        4.28346695413026       -1.57142225322329
H            3.70356570425449       -1.42602752290723       -3.77621684267322
H            2.68779371370506       -1.83990191722336       -5.97789883726615
H            1.30733156810074       -0.15442055969838       -7.08164068855734
H            0.87332405634628        2.03264482585894       -6.02758402403614
H            0.47485252899220        3.86020167619958       -3.16700669403924
H            1.26634431678738        4.01173793470776       -4.62341765418611

          :  Hamiltonian                  GFN2-xTB          :
         :: total energy             -52.799461103834 Eh    ::
         :: gradient norm              0.000649510954 Eh/a0 ::
         :: HOMO-LUMO gap              2.898617713757 eV    ::
         :: SCC energy               -53.588950506878 Eh    ::
         :: -> dispersion             -0.035837034729 Eh    ::
         :: repulsion energy           0.789489403044 Eh    ::

    * Orbital Energies and Occupations

         #    Occupation            Energy/Eh            Energy/eV
      -------------------------------------------------------------
         1        2.0000           -0.8686249             -23.6365
       ...           ...                  ...                  ...
        36        2.0000           -0.6021125             -16.3843
        37        2.0000           -0.5991741             -16.3044
        38        2.0000           -0.5839207             -15.8893
        39        2.0000           -0.5756746             -15.6649
        40        2.0000           -0.5742119             -15.6251
        41        2.0000           -0.5685188             -15.4702
        42        2.0000           -0.5671662             -15.4334
        43        2.0000           -0.5545235             -15.0894
        44        2.0000           -0.5408119             -14.7162
        45        2.0000           -0.5363227             -14.5941
        46        2.0000           -0.5228432             -14.2273
        47        2.0000           -0.5207017             -14.1690
        48        2.0000           -0.5175462             -14.0831 (HOMO)
        49                         -0.4110240             -11.1845 (LUMO)
        50                         -0.3978565             -10.8262
        51                         -0.3550863              -9.6624
        52                         -0.3460145              -9.4155
        53                         -0.3298652              -8.9761
        54                         -0.3215952              -8.7511
        55                         -0.2763985              -7.5212
        56                         -0.2368668              -6.4455
        57                         -0.2299858              -6.2582
        58                         -0.1971381              -5.3644
        59                         -0.1332798              -3.6267
       ...                                ...                  ...
        95                          0.5723840              15.5754
      -------------------------------------------------------------
                  HL-Gap            0.1065222 Eh            2.8986 eV

     #   Z          covCN         q      C6AA      α(0)
     1   8 O        0.858    -0.374    21.173     6.169
     2   6 C        2.838     0.224    23.293     7.909
     3   6 C        2.991    -0.021    28.523     8.761
     4   6 C        3.103    -0.015    28.241     8.708
     5   6 C        3.107    -0.033    28.671     8.773
     6   6 C        2.944    -0.001    28.049     8.686
     7  16 S        2.305     0.036   139.598    19.886
     8   6 C        3.744    -0.044    21.434     6.604
     9   7 N        2.831     0.021    20.884     6.787
    10   6 C        3.065     0.125    25.192     8.230
    11   6 C        3.755    -0.138    23.221     6.871
    12   7 N        2.905     0.087    19.723     6.596
    13   6 C        3.084     0.027    27.311     8.567
    14   6 C        3.097     0.040    26.994     8.515
    15   6 C        2.910    -0.032    28.807     8.801
    16   6 C        2.925    -0.019    28.492     8.754
    17   6 C        2.926    -0.020    28.496     8.754
    18   6 C        2.909    -0.033    28.829     8.804
    19   7 N        2.707    -0.251    26.530     7.650
    20   1 H        0.926     0.082     1.953     2.186
    21   1 H        0.926     0.075     2.034     2.230
    22   1 H        0.926     0.079     1.991     2.207
    23   1 H        0.924     0.096     1.825     2.112
    24   1 H        0.925     0.099     1.792     2.093
    25   1 H        0.924     0.119     1.622     1.992
    26   1 H        0.925     0.092     1.856     2.130
    27   1 H        0.925     0.106     1.729     2.056
    28   1 H        0.926     0.065     2.141     2.288
    29   1 H        0.926     0.077     2.007     2.215
    30   1 H        0.926     0.078     2.004     2.214
    31   1 H        0.926     0.064     2.151     2.294
    32   1 H        0.860     0.194     1.135     1.669
    33   1 H        0.860     0.195     1.134     1.668

Wiberg/Mayer (AO) data.
largest (>0.10) Wiberg bond orders for each atom

     #   Z sym  total        # sym  WBO       # sym  WBO       # sym  WBO
 ---------------------------------------------------------------------------
     1   8 O    2.074 --     2 C    1.760
     2   6 C    3.948 --     1 O    1.760     3 C    1.142     8 C    0.929
     3   6 C    3.942 --     4 C    1.455     2 C    1.142     7 S    1.130
     4   6 C    3.984 --     3 C    1.455     5 C    1.349    20 H    0.959
                             7 S    0.117
     5   6 C    3.987 --     6 C    1.557     4 C    1.349    21 H    0.960
     6   6 C    3.958 --     5 C    1.557     7 S    1.256    22 H    0.966
     7  16 S    2.681 --     6 C    1.256     3 C    1.130     4 C    0.117
     8   6 C    3.952 --     9 N    0.994    24 H    0.953    23 H    0.943
                             2 C    0.929
     9   7 N    3.651 --    10 C    1.311    14 C    1.112     8 C    0.994
    10   6 C    3.951 --     9 N    1.311    12 N    1.311    11 C    1.053
    11   6 C    3.973 --    10 C    1.053    27 H    0.965    26 H    0.958
                            25 H    0.935
    12   7 N    3.665 --    10 C    1.311    13 C    1.102    19 N    1.035
    13   6 C    3.952 --    18 C    1.348    14 C    1.275    12 N    1.102
    14   6 C    3.953 --    15 C    1.350    13 C    1.275     9 N    1.112
    15   6 C    3.986 --    16 C    1.484    14 C    1.350    28 H    0.963
                            18 C    0.117
    16   6 C    3.983 --    15 C    1.484    17 C    1.388    29 H    0.967
    17   6 C    3.985 --    18 C    1.484    16 C    1.388    30 H    0.966
    18   6 C    3.985 --    17 C    1.484    13 C    1.348    31 H    0.964
                            15 C    0.117
    19   7 N    3.034 --    12 N    1.035    33 H    0.944    32 H    0.935
    20   1 H    0.993 --     4 C    0.959
    21   1 H    0.994 --     5 C    0.960
    22   1 H    0.993 --     6 C    0.966
    23   1 H    0.990 --     8 C    0.943
    24   1 H    0.990 --     8 C    0.953
    25   1 H    0.981 --    11 C    0.935
    26   1 H    0.990 --    11 C    0.958
    27   1 H    0.988 --    11 C    0.965
    28   1 H    0.995 --    15 C    0.963
    29   1 H    0.994 --    16 C    0.967
    30   1 H    0.994 --    17 C    0.966
    31   1 H    0.995 --    18 C    0.964
    32   1 H    0.961 --    19 N    0.935
    33   1 H    0.962 --    19 N    0.944
 ---------------------------------------------------------------------------

molecular dipole:
                 x           y           z       tot (Debye)
 q only:        5.625       1.986      -4.412
   full:        5.401       1.728      -4.277      18.054

           -------------------------------------------------
          | TOTAL ENERGY              -52.799461103834 Eh   |
          | GRADIENT NORM               0.000649510954 Eh/α |
          | HOMO-LUMO GAP               2.898617713757 eV   |
           -------------------------------------------------

 * finished run on 2024/12/20 at 02:06:52.559
