   * xtb version 6.7.1 (edcfbbe) compiled by 'conda@3ef47c1a292c' on 2024-11-25

   ID    Z sym.   atoms
    1    6 C      1-16, 18, 19, 21, 22
    2    7 N      17, 20
    3    1 H      23-61

          program call               : xtb C0109.xyz --opt --namespace C0109 --charge +1
          :  Hamiltonian                  GFN2-xTB          :
 * total energy  :   -68.2183022 Eh     change       -0.1701196E-08 Eh
 * total energy  :   -68.2223103 Eh     change       -0.4008079E-02 Eh
 * total energy  :   -68.2230908 Eh     change       -0.7804746E-03 Eh
 * total energy  :   -68.2232654 Eh     change       -0.1746315E-03 Eh
 * total energy  :   -68.2234395 Eh     change       -0.1740831E-03 Eh
 * total energy  :   -68.2235340 Eh     change       -0.9455427E-04 Eh
 * total energy  :   -68.2236585 Eh     change       -0.1244458E-03 Eh
 * total energy  :   -68.2238430 Eh     change       -0.1844678E-03 Eh
 * total energy  :   -68.2240310 Eh     change       -0.1880189E-03 Eh
 * total energy  :   -68.2241804 Eh     change       -0.1494015E-03 Eh
 * total energy  :   -68.2257035 Eh     change       -0.1247424E-04 Eh
 * total energy  :   -68.2257136 Eh     change       -0.1012721E-04 Eh
 * total energy  :   -68.2257212 Eh     change       -0.7528059E-05 Eh
 * total energy  :   -68.2257271 Eh     change       -0.5988339E-05 Eh
 * total energy  :   -68.2257327 Eh     change       -0.5593717E-05 Eh
 * total energy  :   -68.2257383 Eh     change       -0.5521070E-05 Eh
 * total energy  :   -68.2257376 Eh     change        0.6249370E-06 Eh
 * total energy  :   -68.2257437 Eh     change       -0.6026346E-05 Eh
 * total energy  :   -68.2257475 Eh     change       -0.3804752E-05 Eh
   *** GEOMETRY OPTIMIZATION CONVERGED AFTER 42 ITERATIONS ***

 final structure:
================
61
 xtb: 6.7.1 (edcfbbe)
C            0.96771890543054       -0.62358534929874       -0.00547220723540
C            0.84233444622555       -0.59735322125667        1.51302990674404
C            1.27252849587372        0.73367243461249        2.13142207647921
C            0.44329483918131        1.94551833728564        1.70023539044056
C           -1.05627324008671        1.83862433862908        1.98408727288382
C           -1.42038059445925        1.59738794028438        3.44997967474191
C           -0.94986584465065        2.68302207276223        4.41944337129702
C           -1.50810626725849        4.08115462794392        4.14604077676401
C           -3.03530698598131        4.17821423389825        4.14272100188418
C           -3.71654050097741        3.68206324419309        5.41961767232982
C           -3.29355604461229        4.40541717551513        6.69929298063768
C           -3.59954362510673        5.90409843305663        6.72410128126256
C           -5.07748915826399        6.26396917208870        6.55002989186736
C           -6.02431738710147        5.59541920323698        7.55054711184355
C           -5.71349902896509        5.87947995909264        9.01987459272383
C           -5.88680271609824        7.35096484634223        9.41558742301138
N           -7.27143492354063        7.74917812871125        9.31570038527238
C           -8.22747688372934        7.52468291647987       10.25760470986336
C           -9.41108815481494        7.96742867199251        9.75022468911078
N           -9.16000741900502        8.45033721364767        8.50191730492032
C           -7.85965975672826        8.30347462324670        8.26004204814166
C          -10.13991991916056        9.01859714497618        7.61572167894147
H            0.27734410438294        0.07652555619964       -0.46887695074235
H            0.74457308307722       -1.61824487079867       -0.38458666753612
H            1.97915769863212       -0.36148650015684       -0.30797573130543
H           -0.18694993731356       -0.82383710121542        1.79671593527277
H            1.47420386696825       -1.38450056182995        1.93203137325922
H            1.23836165901209        0.64048158882006        3.21908506711823
H            2.31351286249298        0.92336857325680        1.85714087181039
H            0.84411847452733        2.82861140968814        2.20299093303806
H            0.57482571594740        2.10447561299408        0.62819482067414
H           -1.53587892145849        2.75717073504572        1.63793850744936
H           -1.47401569280944        1.02138503831699        1.39287267569740
H           -2.50575034859314        1.49444301682118        3.52047621283098
H           -0.99054328856196        0.64717112763601        3.77224173353837
H           -1.22056456113074        2.37706156208884        5.43280288990464
H            0.13945884035657        2.74250941724062        4.38776143182884
H           -1.10241184922257        4.76409859620471        4.89644399006158
H           -1.14667528555256        4.42720504222317        3.17598728293221
H           -3.31234945033913        5.21974886760114        3.96127255614616
H           -3.42652015808837        3.59671918689261        3.30603861442626
H           -4.79804626047710        3.76947465046231        5.28881162468529
H           -3.49905982457868        2.62071751428264        5.54706782197837
H           -3.77893985006469        3.91745828143506        7.54801005827146
H           -2.21887976772752        4.28175987290029        6.83728315634956
H           -3.22878328984278        6.31772881726824        7.66546254059575
H           -3.04153643277079        6.39323958334003        5.92469244926412
H           -5.17195538483606        7.35244326386725        6.60795926892061
H           -5.39519503083877        5.97393448570284        5.54783331765158
H           -7.05189968242755        5.89894635346560        7.32484531256164
H           -5.97775180078187        4.51670266471732        7.40469116461220
H           -6.36100676019781        5.26488062335499        9.64886712863984
H           -4.68368465581249        5.59881969878706        9.23391488811341
H           -5.56369713066781        7.49686258719136       10.44798020933218
H           -5.28949678733186        7.98989533766399        8.76443194929143
H           -8.00875502874290        7.08096829777420       11.20737050918231
H          -10.39003471748856        7.97144990080981       10.18424756957809
H           -7.36082017267278        8.59712294259040        7.35668587126045
H          -10.63355542007285        9.86365245724571        8.09628109827971
H           -9.65953633063956        9.35959221269677        6.70178731102212
H          -10.89634072053332        8.27405800996354        7.36463217008359

          :  Hamiltonian                  GFN2-xTB          :
         :: total energy             -68.225747466916 Eh    ::
         :: gradient norm              0.000540744287 Eh/a0 ::
         :: HOMO-LUMO gap              1.274928625950 eV    ::
         :: SCC energy               -69.249160333150 Eh    ::
         :: -> dispersion             -0.051393936072 Eh    ::
         :: repulsion energy           1.023412866234 Eh    ::

    * Orbital Energies and Occupations

         #    Occupation            Energy/Eh            Energy/eV
      -------------------------------------------------------------
         1        2.0000           -0.8961722             -24.3861
       ...           ...                  ...                  ...
        52        2.0000           -0.5127591             -13.9529
        53        2.0000           -0.5071966             -13.8015
        54        2.0000           -0.5036685             -13.7055
        55        2.0000           -0.4972869             -13.5319
        56        2.0000           -0.4913413             -13.3701
        57        2.0000           -0.4874963             -13.2654
        58        2.0000           -0.4830419             -13.1442
        59        2.0000           -0.4737781             -12.8922
        60        2.0000           -0.4720686             -12.8456
        61        2.0000           -0.4694437             -12.7742
        62        2.0000           -0.4589030             -12.4874
        63        2.0000           -0.4539082             -12.3515
        64        2.0000           -0.4525147             -12.3136 (HOMO)
        65                         -0.4056619             -11.0386 (LUMO)
        66                         -0.3705996             -10.0845
        67                         -0.1823909              -4.9631
        68                         -0.1274662              -3.4685
        69                         -0.0618020              -1.6817
        70                         -0.0579131              -1.5759
        71                         -0.0380658              -1.0358
        72                         -0.0292513              -0.7960
        73                         -0.0204533              -0.5566
        74                         -0.0167362              -0.4554
        75                         -0.0073937              -0.2012
       ...                                ...                  ...
       127                          0.4637938              12.6205
      -------------------------------------------------------------
                  HL-Gap            0.0468528 Eh            1.2749 eV

     #   Z          covCN         q      C6AA      α(0)
     1   6 C        3.751    -0.102    22.502     6.765
     2   6 C        3.799    -0.052    21.507     6.603
     3   6 C        3.800    -0.057    21.600     6.617
     4   6 C        3.800    -0.057    21.595     6.616
     5   6 C        3.800    -0.056    21.584     6.615
     6   6 C        3.800    -0.057    21.594     6.616
     7   6 C        3.800    -0.057    21.600     6.617
     8   6 C        3.800    -0.057    21.600     6.617
     9   6 C        3.800    -0.057    21.600     6.617
    10   6 C        3.800    -0.058    21.623     6.621
    11   6 C        3.800    -0.060    21.663     6.627
    12   6 C        3.800    -0.061    21.675     6.629
    13   6 C        3.800    -0.061    21.671     6.628
    14   6 C        3.800    -0.065    21.746     6.640
    15   6 C        3.802    -0.071    21.849     6.655
    16   6 C        3.742    -0.028    21.146     6.560
    17   7 N        2.869     0.072    19.980     6.639
    18   6 C        3.076    -0.006    28.087     8.689
    19   6 C        3.073    -0.009    28.169     8.702
    20   7 N        2.867     0.075    19.936     6.631
    21   6 C        3.101     0.047    26.832     8.488
    22   6 C        3.692    -0.086    22.329     6.761
    23   1 H        0.925     0.034     2.532     2.489
    24   1 H        0.925     0.032     2.561     2.503
    25   1 H        0.925     0.034     2.527     2.486
    26   1 H        0.924     0.030     2.589     2.516
    27   1 H        0.924     0.027     2.628     2.535
    28   1 H        0.924     0.027     2.622     2.532
    29   1 H        0.924     0.029     2.596     2.520
    30   1 H        0.924     0.027     2.631     2.537
    31   1 H        0.924     0.032     2.557     2.500
    32   1 H        0.924     0.026     2.649     2.545
    33   1 H        0.924     0.032     2.558     2.501
    34   1 H        0.924     0.025     2.658     2.550
    35   1 H        0.924     0.033     2.542     2.493
    36   1 H        0.924     0.025     2.659     2.550
    37   1 H        0.924     0.034     2.526     2.485
    38   1 H        0.924     0.025     2.664     2.553
    39   1 H        0.924     0.035     2.521     2.483
    40   1 H        0.924     0.023     2.690     2.565
    41   1 H        0.924     0.036     2.509     2.477
    42   1 H        0.924     0.022     2.700     2.569
    43   1 H        0.924     0.039     2.457     2.451
    44   1 H        0.924     0.024     2.670     2.555
    45   1 H        0.924     0.044     2.401     2.423
    46   1 H        0.924     0.024     2.671     2.556
    47   1 H        0.924     0.046     2.375     2.410
    48   1 H        0.924     0.014     2.825     2.628
    49   1 H        0.924     0.048     2.340     2.392
    50   1 H        0.924     0.018     2.770     2.603
    51   1 H        0.925     0.064     2.149     2.292
    52   1 H        0.924     0.051     2.305     2.374
    53   1 H        0.925     0.081     1.965     2.192
    54   1 H        0.924     0.087     1.909     2.161
    55   1 H        0.924     0.089     1.886     2.148
    56   1 H        0.926     0.108     1.709     2.044
    57   1 H        0.926     0.109     1.705     2.042
    58   1 H        0.926     0.114     1.664     2.017
    59   1 H        0.924     0.107     1.724     2.053
    60   1 H        0.925     0.099     1.793     2.094
    61   1 H        0.924     0.107     1.725     2.054

Wiberg/Mayer (AO) data.
largest (>0.10) Wiberg bond orders for each atom

     #   Z sym  total        # sym  WBO       # sym  WBO       # sym  WBO
 ---------------------------------------------------------------------------
     1   6 C    3.997 --     2 C    1.020    25 H    0.988    24 H    0.987
                            23 H    0.986
     2   6 C    3.998 --     1 C    1.020     3 C    1.008    27 H    0.978
                            26 H    0.976
     3   6 C    3.998 --     2 C    1.008     4 C    1.008    29 H    0.977
                            28 H    0.976
     4   6 C    3.998 --     5 C    1.008     3 C    1.008    31 H    0.976
                            30 H    0.975
     5   6 C    3.998 --     6 C    1.008     4 C    1.008    32 H    0.975
                            33 H    0.975
     6   6 C    3.998 --     5 C    1.008     7 C    1.008    34 H    0.975
                            35 H    0.974
     7   6 C    3.997 --     6 C    1.008     8 C    1.008    36 H    0.975
                            37 H    0.974
     8   6 C    3.997 --     7 C    1.008     9 C    1.007    38 H    0.976
                            39 H    0.975
     9   6 C    3.997 --    10 C    1.008     8 C    1.007    40 H    0.976
                            41 H    0.975
    10   6 C    3.997 --    11 C    1.008     9 C    1.008    42 H    0.975
                            43 H    0.974
    11   6 C    3.996 --    10 C    1.008    12 C    1.008    44 H    0.975
                            45 H    0.973
    12   6 C    3.996 --    11 C    1.008    13 C    1.007    46 H    0.975
                            47 H    0.973
    13   6 C    3.995 --    14 C    1.007    12 C    1.007    48 H    0.974
                            49 H    0.973
    14   6 C    3.993 --    15 C    1.009    13 C    1.007    50 H    0.974
                            51 H    0.968
    15   6 C    3.982 --    14 C    1.009    16 C    0.980    52 H    0.975
                            53 H    0.962
    16   6 C    3.934 --    15 C    0.980    17 N    0.967    54 H    0.964
                            55 H    0.962
    17   7 N    3.721 --    21 C    1.363    18 C    1.231    16 C    0.967
    18   6 C    3.951 --    19 C    1.592    17 N    1.231    56 H    0.961
    19   6 C    3.948 --    18 C    1.592    20 N    1.227    57 H    0.961
    20   7 N    3.719 --    21 C    1.357    19 C    1.227    22 C    0.991
    21   6 C    3.946 --    17 N    1.363    20 N    1.357    58 H    0.952
    22   6 C    3.934 --    20 N    0.991    60 H    0.976    59 H    0.963
                            61 H    0.962
    23   1 H    0.999 --     1 C    0.986
    24   1 H    0.999 --     1 C    0.987
    25   1 H    0.999 --     1 C    0.988
    26   1 H    0.999 --     2 C    0.976
    27   1 H    0.999 --     2 C    0.978
    28   1 H    0.999 --     3 C    0.976
    29   1 H    0.999 --     3 C    0.977
    30   1 H    0.999 --     4 C    0.975
    31   1 H    0.999 --     4 C    0.976
    32   1 H    0.999 --     5 C    0.975
    33   1 H    0.999 --     5 C    0.975
    34   1 H    0.999 --     6 C    0.975
    35   1 H    0.999 --     6 C    0.974
    36   1 H    0.999 --     7 C    0.975
    37   1 H    0.999 --     7 C    0.974
    38   1 H    0.999 --     8 C    0.976
    39   1 H    0.999 --     8 C    0.975
    40   1 H    0.999 --     9 C    0.976
    41   1 H    0.999 --     9 C    0.975
    42   1 H    0.999 --    10 C    0.975
    43   1 H    0.998 --    10 C    0.974
    44   1 H    0.999 --    11 C    0.975
    45   1 H    0.998 --    11 C    0.973
    46   1 H    0.999 --    12 C    0.975
    47   1 H    0.998 --    12 C    0.973
    48   1 H    1.000 --    13 C    0.974
    49   1 H    0.998 --    13 C    0.973
    50   1 H    1.000 --    14 C    0.974
    51   1 H    0.996 --    14 C    0.968
    52   1 H    0.997 --    15 C    0.975
    53   1 H    0.992 --    15 C    0.962
    54   1 H    0.992 --    16 C    0.964
    55   1 H    0.992 --    16 C    0.962
    56   1 H    0.988 --    18 C    0.961
    57   1 H    0.988 --    19 C    0.961
    58   1 H    0.987 --    21 C    0.952
    59   1 H    0.988 --    22 C    0.963
    60   1 H    0.990 --    22 C    0.976
    61   1 H    0.988 --    22 C    0.962
 ---------------------------------------------------------------------------

molecular dipole:
                 x           y           z       tot (Debye)
 q only:      -14.935      14.700      16.282
   full:      -14.990      14.813      16.307      67.729

           -------------------------------------------------
          | TOTAL ENERGY              -68.225747466916 Eh   |
          | GRADIENT NORM               0.000540744287 Eh/α |
          | HOMO-LUMO GAP               1.274928625950 eV   |
           -------------------------------------------------

 * finished run on 2024/12/20 at 02:06:59.126
