   * xtb version 6.7.1 (edcfbbe) compiled by 'conda@3ef47c1a292c' on 2024-11-25

   ID    Z sym.   atoms
    1    9 F      1, 3, 4, 6, 7, 9, 10, 12, 13, 15, 16, 18, 19
    2    6 C      2, 5, 8, 11, 14, 17, 20, 21, 23-30, 32, 33
    3    7 N      22, 31
    4    1 H      34-45

          program call               : xtb C0108.xyz --opt --namespace C0108 --charge +1
          :  Hamiltonian                  GFN2-xTB          :
 * total energy  :  -111.5581695 Eh     change       -0.1938929E-09 Eh
 * total energy  :  -111.5697266 Eh     change       -0.1155712E-01 Eh
 * total energy  :  -111.5734512 Eh     change       -0.3724516E-02 Eh
 * total energy  :  -111.5741395 Eh     change       -0.6883915E-03 Eh
 * total energy  :  -111.5744577 Eh     change       -0.3181877E-03 Eh
 * total energy  :  -111.5746631 Eh     change       -0.2053234E-03 Eh
 * total energy  :  -111.5749610 Eh     change       -0.2979719E-03 Eh
 * total energy  :  -111.5752919 Eh     change       -0.3309124E-03 Eh
 * total energy  :  -111.5756625 Eh     change       -0.3706071E-03 Eh
 * total energy  :  -111.5759499 Eh     change       -0.2873824E-03 Eh
 * total energy  :  -111.5785434 Eh     change       -0.4082488E-04 Eh
 * total energy  :  -111.5785583 Eh     change       -0.1491428E-04 Eh
 * total energy  :  -111.5785700 Eh     change       -0.1168069E-04 Eh
 * total energy  :  -111.5785792 Eh     change       -0.9219004E-05 Eh
 * total energy  :  -111.5785874 Eh     change       -0.8204227E-05 Eh
 * total energy  :  -111.5785948 Eh     change       -0.7446314E-05 Eh
 * total energy  :  -111.5786000 Eh     change       -0.5131090E-05 Eh
 * total energy  :  -111.5786053 Eh     change       -0.5350578E-05 Eh
 * total energy  :  -111.5786093 Eh     change       -0.3974455E-05 Eh
   *** GEOMETRY OPTIMIZATION CONVERGED AFTER 58 ITERATIONS ***

 final structure:
================
45
 xtb: 6.7.1 (edcfbbe)
F           -0.03641092001022       -0.88484126229723       -0.50941183213677
C            1.22623892759825       -0.57694055957330       -0.72727495484017
F            1.28718022652310        0.32492124925460       -1.70022061394105
F            1.72736011683044       -0.02648451182058        0.37455172973540
C            2.04088046135615       -1.85242369082671       -1.12590573836454
F            1.72345240542897       -2.85926230649342       -0.30162727322254
F            1.69853917063090       -2.21384766295922       -2.37033157871422
C            3.57872564132182       -1.60616007227952       -1.04200683133516
F            3.88599773182833       -0.38795573990671       -1.52975712272140
F            3.95504141621728       -1.61159099012498        0.24588989909592
C            4.40460462816093       -2.66639788322044       -1.84412976443998
F            3.90163213244156       -3.89046235462346       -1.66457118070655
F            4.31689657216618       -2.36905147471900       -3.14925988634640
C            5.90120973828578       -2.67076735543698       -1.39974616992863
F            6.31634409527592       -1.39857997814682       -1.17195238210373
F            6.01005565918795       -3.31182032924425       -0.22653514456892
C            6.88203175295263       -3.31405483729962       -2.43526454759337
F            6.36833547115801       -4.48759168197691       -2.83370240021006
F            6.90546725847723       -2.51147686697077       -3.52854149669479
C            8.30335469637957       -3.51035268836295       -1.87602018995413
C            9.31285485612867       -2.45101008091227       -2.34084457277424
N            8.99581240188402       -1.11464156577386       -1.85960980532972
C            9.15599119008029       -0.82629629415103       -0.55634668088261
C            8.79570612831784        0.39203799238601       -0.04261192508137
C            8.23463937084293        1.37114210169897       -0.87784114667890
C            8.11235074240894        1.04771591771591       -2.23698397344606
C            8.49969166605894       -0.18692393067244       -2.69305521988906
C            7.79860965767192        2.66134865457998       -0.36031445525171
C            6.66922688493709        3.29686176543411       -0.88665490793771
C            6.29419785931555        4.52179298781268       -0.35430503934427
N            6.95733060271672        5.12280008714230        0.61505204772139
C            8.02477151936316        4.53057561001956        1.11601859045231
C            8.48837437987220        3.29988377300258        0.67524112174435
H            8.25658129983299       -3.56378938545753       -0.78709068201914
H            8.64710318951379       -4.48140740085866       -2.24168513546146
H           10.29708202032457       -2.74059526376499       -1.96325110433550
H            9.35158241858497       -2.43185364164072       -3.43195615244309
H            9.57741282761275       -1.59779694507988        0.07115925141834
H            8.92135091527880        0.57932771166455        1.01184648379288
H            7.72361145439362        1.76881026955800       -2.93789996132484
H            8.40351713405782       -0.45298960372717       -3.73502273055144
H            6.07529349170397        2.82951599577236       -1.65597109302827
H            5.42441075969803        5.04578069936694       -0.72525490860953
H            8.53234228247343        5.06565604701822        1.90651899081052
H            9.38542776472465        2.87296549588337        1.09507048744054

          :  Hamiltonian                  GFN2-xTB          :
         :: total energy            -111.578609287919 Eh    ::
         :: gradient norm              0.000753293181 Eh/a0 ::
         :: HOMO-LUMO gap              0.512900867393 eV    ::
         :: SCC energy              -112.420065711948 Eh    ::
         :: -> dispersion             -0.048139631649 Eh    ::
         :: repulsion energy           0.841456424029 Eh    ::

    * Orbital Energies and Occupations

         #    Occupation            Energy/Eh            Energy/eV
      -------------------------------------------------------------
         1        2.0000           -1.0422005             -28.3597
       ...           ...                  ...                  ...
        80        2.0000           -0.6360592             -17.3081
        81        2.0000           -0.6290144             -17.1164
        82        2.0000           -0.6250995             -17.0098
        83        2.0000           -0.6226577             -16.9434
        84        2.0000           -0.6184543             -16.8290
        85        2.0000           -0.6157769             -16.7561
        86        2.0000           -0.6085723             -16.5601
        87        2.0000           -0.6065549             -16.5052
        88        2.0000           -0.6035652             -16.4238
        89        2.0000           -0.5630993             -15.3227
        90        2.0000           -0.5585443             -15.1988
        91        2.0000           -0.5431516             -14.7799
        92        1.9999           -0.4837112             -13.1625 (HOMO)
        93        0.0001           -0.4648624             -12.6495 (LUMO)
        94                         -0.4267882             -11.6135
        95                         -0.3754030             -10.2152
        96                         -0.3618838              -9.8474
        97                         -0.3025245              -8.2321
        98                         -0.2594958              -7.0612
        99                         -0.2306038              -6.2750
       100                         -0.2285733              -6.2198
       101                         -0.1959935              -5.3333
       102                         -0.1928161              -5.2468
       103                         -0.1645690              -4.4782
       ...                                ...                  ...
       144                          0.5028598              13.6835
      -------------------------------------------------------------
                  HL-Gap            0.0188488 Eh            0.5129 eV

     #   Z          covCN         q      C6AA      α(0)
     1   9 F        0.791    -0.141    10.644     3.854
     2   6 C        3.326     0.492    17.342     6.616
     3   9 F        0.791    -0.160    10.832     3.888
     4   9 F        0.791    -0.167    10.895     3.899
     5   6 C        3.516     0.316    16.983     6.084
     6   9 F        0.789    -0.156    10.792     3.880
     7   9 F        0.788    -0.162    10.845     3.890
     8   6 C        3.516     0.320    16.926     6.073
     9   9 F        0.789    -0.179    11.019     3.921
    10   9 F        0.789    -0.168    10.911     3.902
    11   6 C        3.515     0.328    16.830     6.057
    12   9 F        0.789    -0.157    10.799     3.882
    13   9 F        0.788    -0.164    10.875     3.895
    14   6 C        3.516     0.316    16.983     6.082
    15   9 F        0.788    -0.209    11.324     3.975
    16   9 F        0.789    -0.175    10.979     3.914
    17   6 C        3.515     0.324    16.875     6.065
    18   9 F        0.789    -0.179    11.022     3.922
    19   9 F        0.788    -0.202    11.254     3.963
    20   6 C        3.801    -0.092    22.263     6.718
    21   6 C        3.755    -0.033    21.227     6.569
    22   7 N        2.748     0.090    19.694     6.591
    23   6 C        2.886     0.029    27.351     8.574
    24   6 C        2.919    -0.019    28.489     8.753
    25   6 C        2.980     0.064    26.568     8.455
    26   6 C        2.920    -0.019    28.491     8.753
    27   6 C        2.884     0.031    27.296     8.565
    28   6 C        2.984     0.024    27.453     8.595
    29   6 C        2.917    -0.033    28.820     8.803
    30   6 C        2.908     0.068    26.487     8.439
    31   7 N        1.837    -0.169    25.466     7.478
    32   6 C        2.908     0.067    26.500     8.441
    33   6 C        2.916    -0.033    28.826     8.804
    34   1 H        0.924     0.097     1.808     2.103
    35   1 H        0.924     0.128     1.552     1.948
    36   1 H        0.924     0.111     1.684     2.029
    37   1 H        0.924     0.114     1.662     2.016
    38   1 H        0.926     0.104     1.752     2.070
    39   1 H        0.926     0.106     1.730     2.057
    40   1 H        0.926     0.108     1.714     2.048
    41   1 H        0.926     0.115     1.658     2.013
    42   1 H        0.926     0.058     2.221     2.331
    43   1 H        0.926     0.077     2.009     2.216
    44   1 H        0.926     0.076     2.017     2.221
    45   1 H        0.926     0.056     2.252     2.347

Wiberg/Mayer (AO) data.
largest (>0.10) Wiberg bond orders for each atom

     #   Z sym  total        # sym  WBO       # sym  WBO       # sym  WBO
 ---------------------------------------------------------------------------
     1   9 F    1.135 --     2 C    0.995
     2   6 C    3.884 --     1 F    0.995     3 F    0.976     4 F    0.971
                             5 C    0.883
     3   9 F    1.112 --     2 C    0.976
     4   9 F    1.106 --     2 C    0.971
     5   6 C    3.896 --     6 F    0.986     7 F    0.982     8 C    0.907
                             2 C    0.883
     6   9 F    1.106 --     5 C    0.986
     7   9 F    1.101 --     5 C    0.982
     8   6 C    3.887 --    10 F    0.981     9 F    0.970     5 C    0.907
                            11 C    0.902
     9   9 F    1.084 --     8 C    0.970
    10   9 F    1.096 --     8 C    0.981
    11   6 C    3.895 --    12 F    0.989    13 F    0.980    14 C    0.908
                             8 C    0.902
    12   9 F    1.109 --    11 C    0.989
    13   9 F    1.099 --    11 C    0.980
    14   6 C    3.868 --    16 F    0.980    15 F    0.949    11 C    0.908
                            17 C    0.905
    15   9 F    1.057 --    14 C    0.949
    16   9 F    1.094 --    14 C    0.980
    17   6 C    3.866 --    18 F    0.976    20 C    0.958    19 F    0.952
                            14 C    0.905
    18   9 F    1.091 --    17 C    0.976
    19   9 F    1.065 --    17 C    0.952
    20   6 C    3.969 --    21 C    0.996    34 H    0.965    17 C    0.958
                            35 H    0.955
    21   6 C    3.945 --    20 C    0.996    22 N    0.973    37 H    0.961
                            36 H    0.956
    22   7 N    3.734 --    27 C    1.300    23 C    1.289    21 C    0.973
    23   6 C    3.954 --    24 C    1.512    22 N    1.289    38 H    0.955
    24   6 C    3.982 --    23 C    1.512    25 C    1.333    39 H    0.956
    25   6 C    3.970 --    26 C    1.342    24 C    1.333    28 C    1.089
    26   6 C    3.981 --    27 C    1.499    25 C    1.342    40 H    0.956
    27   6 C    3.950 --    26 C    1.499    22 N    1.300    41 H    0.952
    28   6 C    3.986 --    33 C    1.366    29 C    1.365    25 C    1.089
    29   6 C    3.986 --    30 C    1.428    28 C    1.365    42 H    0.965
                            32 C    0.114
    30   6 C    3.974 --    31 N    1.442    29 C    1.428    43 H    0.958
                            33 C    0.114
    31   7 N    3.068 --    30 C    1.442    32 C    1.441
    32   6 C    3.974 --    31 N    1.441    33 C    1.429    44 H    0.959
                            29 C    0.114
    33   6 C    3.987 --    32 C    1.429    28 C    1.366    45 H    0.966
                            30 C    0.114
    34   1 H    0.990 --    20 C    0.965
    35   1 H    0.983 --    20 C    0.955
    36   1 H    0.986 --    21 C    0.956
    37   1 H    0.987 --    21 C    0.961
    38   1 H    0.989 --    23 C    0.955
    39   1 H    0.988 --    24 C    0.956
    40   1 H    0.988 --    26 C    0.956
    41   1 H    0.986 --    27 C    0.952
    42   1 H    0.997 --    29 C    0.965
    43   1 H    0.993 --    30 C    0.958
    44   1 H    0.993 --    32 C    0.959
    45   1 H    0.997 --    33 C    0.966
 ---------------------------------------------------------------------------

molecular dipole:
                 x           y           z       tot (Debye)
 q only:       17.100      -0.407      -2.435
   full:       17.220      -0.944      -2.572      44.319

           -------------------------------------------------
          | TOTAL ENERGY             -111.578609287919 Eh   |
          | GRADIENT NORM               0.000753293181 Eh/α |
          | HOMO-LUMO GAP               0.512900867393 eV   |
           -------------------------------------------------

 * finished run on 2024/12/20 at 02:06:56.354
