   * xtb version 6.7.1 (edcfbbe) compiled by 'conda@3ef47c1a292c' on 2024-11-25

   ID    Z sym.   atoms
    1    6 C      1-3, 5, 6, 8, 10-26, 28, 30-45
    2    7 N      4
    3    8 O      7, 9, 27, 29
    4    1 H      46-123

          program call               : xtb C0103.xyz --opt --namespace C0103 --charge +1
          :  Hamiltonian                  GFN2-xTB          :
 * total energy  :  -144.2567603 Eh     change       -0.3313716E-08 Eh
 * total energy  :  -144.2704961 Eh     change       -0.1373586E-01 Eh
 * total energy  :  -144.2745236 Eh     change       -0.4027499E-02 Eh
 * total energy  :  -144.2754934 Eh     change       -0.9698008E-03 Eh
 * total energy  :  -144.2760241 Eh     change       -0.5306895E-03 Eh
 * total energy  :  -144.2763108 Eh     change       -0.2867016E-03 Eh
 * total energy  :  -144.2765607 Eh     change       -0.2498514E-03 Eh
 * total energy  :  -144.2768013 Eh     change       -0.2406376E-03 Eh
 * total energy  :  -144.2770110 Eh     change       -0.2097130E-03 Eh
 * total energy  :  -144.2771903 Eh     change       -0.1792914E-03 Eh
 * total energy  :  -144.2872389 Eh     change       -0.9773085E-05 Eh
 * total energy  :  -144.2872514 Eh     change       -0.1243450E-04 Eh
 * total energy  :  -144.2872666 Eh     change       -0.1528654E-04 Eh
 * total energy  :  -144.2872835 Eh     change       -0.1682763E-04 Eh
 * total energy  :  -144.2872991 Eh     change       -0.1558327E-04 Eh
 * total energy  :  -144.2873149 Eh     change       -0.1580612E-04 Eh
 * total energy  :  -144.2873266 Eh     change       -0.1177925E-04 Eh
 * total energy  :  -144.2873319 Eh     change       -0.5252055E-05 Eh
 * total energy  :  -144.2873363 Eh     change       -0.4385544E-05 Eh
   *** GEOMETRY OPTIMIZATION CONVERGED AFTER 261 ITERATIONS ***

 final structure:
================
123
 xtb: 6.7.1 (edcfbbe)
C            0.08185214301985        1.52892416627382       -0.50099679713732
C           -0.28726244350061        0.37882562747491        0.03473994355146
C           -1.42310268233511       -0.42915130252895       -0.52069564109213
N           -0.99717567371419       -1.75161940418564       -1.09061859609121
C           -0.22378411020023       -2.56783497334567       -0.10135380827674
C           -0.77059088934444       -2.69962875958263        1.32457912201069
O           -1.84840138252206       -3.61365635621358        1.46600051863159
C           -3.08228364513212       -3.09957093149423        1.71502375267514
O           -3.31118507583938       -1.92543051305084        1.58407671471242
C           -4.03196405803639       -4.17037936260512        2.14232881707861
C           -5.47913399105665       -3.88843282592993        1.73305512031978
C           -5.69195566729290       -3.82254949111062        0.21955066073959
C           -5.22078271150119       -5.05478871274410       -0.55776076384358
C           -5.81996749152249       -6.37994415690296       -0.08034163465225
C           -7.34574624314077       -6.45948737356597       -0.14681577645879
C           -7.94129553155352       -6.32163244024255       -1.54909003699740
C           -7.45384257809215       -7.35812233375118       -2.56414165225255
C           -7.65999056532606       -8.81633466055508       -2.14932874034600
C           -9.10878141820745       -9.20575625216026       -1.85120169627458
C          -10.07845503703665       -9.03339795173195       -3.02140181383062
C           -9.73160296323847       -9.84155169242129       -4.27323352011773
C           -9.62223236081291      -11.35281557961645       -4.05974668371911
C          -10.88120691402016      -12.02004609536051       -3.50434421591864
C          -12.08387897543661      -11.90230703720588       -4.43258026908051
C           -2.17589786328880       -2.55549140112462       -1.53961638268721
C           -3.27102172157324       -1.87182677727454       -2.36470628010239
O           -2.93407291098065       -1.64391797135465       -3.72503140154400
C           -2.66959618159382       -0.37586697561673       -4.11126130023571
O           -2.50386993126352        0.50924523693054       -3.30855222682311
C           -2.59468330337412       -0.25235993135816       -5.59786070817184
C           -4.01022692302998       -0.27356417767945       -6.20502118233044
C           -4.94980103210622        0.77766276285286       -5.61240778417237
C           -4.44589938387406        2.21937555233791       -5.70474469474188
C           -4.16197247252717        2.71413854512082       -7.12382880889179
C           -5.36566201974400        2.68324703042184       -8.06803813212534
C           -6.57781962046642        3.48829311246274       -7.59526097386410
C           -6.30779496795906        4.97175126177703       -7.33636005719535
C           -5.78306508486225        5.75303694689762       -8.54235848925494
C           -6.70229502589228        5.74713110008999       -9.76516884244399
C           -8.10436813008621        6.30866253313476       -9.52194697265745
C           -8.14410868392920        7.75166637659604       -9.01557044731041
C           -7.47802521284982        8.77852904208613       -9.93374592610785
C           -8.07093149252958        8.86642055920759      -11.34080549386899
C           -9.53320942115411        9.29529703139865      -11.35122183052603
C           -0.09651033440926       -1.49784272117731       -2.23265985425725
H           -0.39783126062689        1.92527052449288       -1.38103706664251
H            0.86437725904421        2.12837782299219       -0.07056294633210
H            0.19271512441022        0.01786290204882        0.93328968435528
H           -2.17894170631498       -0.61633711771390        0.24788638887931
H           -1.87375041952726        0.14864838984530       -1.33090961253452
H           -0.10592856082492       -3.57202800977262       -0.51589659977747
H            0.76511253832866       -2.11533745880097       -0.01357868138128
H            0.04077702501541       -3.11267601195986        1.93212553784924
H           -1.07118828129339       -1.73472530809833        1.74242397901500
H           -3.67602102326439       -5.12959915479991        1.76745459979523
H           -3.97414594877787       -4.20682886956476        3.23462329323410
H           -6.11232046361561       -4.66450504605006        2.16070546272930
H           -5.78320839048592       -2.93285327521448        2.16302410147856
H           -6.75652688021959       -3.67424676117127        0.03750427759443
H           -5.17708133917207       -2.93870556645429       -0.16903000367647
H           -5.47453806141277       -4.91117336201644       -1.61011023438700
H           -4.13027274316167       -5.13258120245856       -0.50067020189635
H           -5.39505076094188       -7.18049665873447       -0.68801217294269
H           -5.51254440780601       -6.56637513180419        0.95054297726839
H           -7.64890867128004       -7.41933776229081        0.27367321005989
H           -7.77926847951561       -5.68404593410051        0.48810262759586
H           -9.02635240867297       -6.39453395549320       -1.46094248038908
H           -7.72266187253720       -5.32559405593629       -1.94240448850233
H           -7.97410324513690       -7.17806982364153       -3.50672933814395
H           -6.38857131612491       -7.20520640873888       -2.75637934280415
H           -7.27636301053647       -9.45270879144762       -2.94902161407603
H           -7.05995312631424       -9.02738914296498       -1.26115691903448
H           -9.11888099545733      -10.24907719754291       -1.53075614141548
H           -9.47729234044756       -8.61248135580865       -1.01160948314547
H          -11.07541000511069       -9.31663711793827       -2.67875788330741
H          -10.12710741768650       -7.97786148148841       -3.29866534757488
H          -10.49509176167541       -9.64259946458514       -5.02761565274886
H           -8.78269271639815       -9.48583925384743       -4.68134191538559
H           -9.38177700980719      -11.81246517943876       -5.02181373878200
H           -8.78944387236683      -11.56294422777521       -3.38541975438604
H          -10.66100445723486      -13.07873185515199       -3.34693224320336
H          -11.12962425795150      -11.59336542168005       -2.53130927620926
H          -11.84293767520546      -12.29236442298909       -5.41900767245062
H          -12.92216811511741      -12.47041243331539       -4.03606211567176
H          -12.39830718982230      -10.86736968314931       -4.53853599992381
H           -1.79645804533194       -3.40219767855323       -2.11743471221227
H           -2.67326225292119       -2.93859632776191       -0.65083813234882
H           -4.11272582756927       -2.57117887974545       -2.39181167150923
H           -3.60679729764030       -0.93687114799047       -1.90720557737375
H           -2.09357297114886        0.68212286724764       -5.84598605788739
H           -2.02987235175461       -1.09447368168117       -5.99958674391383
H           -3.91417952598490       -0.11915442824791       -7.27929022034538
H           -4.44304831387748       -1.26350999234624       -6.04703627466033
H           -5.90924867329092        0.69725850615601       -6.12485072580097
H           -5.12842954480148        0.54710813796272       -4.55789977891695
H           -5.19704743664587        2.86477129847054       -5.24767165111210
H           -3.53754762798923        2.32287347506150       -5.10724956445649
H           -3.79139671493300        3.73806409415067       -7.05417088908294
H           -3.36192650125556        2.11792201152448       -7.56945705260160
H           -5.04226241251715        3.06300541239572       -9.03875347608052
H           -5.68111990792868        1.64850682958897       -8.22179366591396
H           -7.36041353471512        3.39430646762767       -8.35020009342282
H           -6.97031595374140        3.04648729646814       -6.67630054550592
H           -7.23700748293008        5.42923365470114       -6.99152506555077
H           -5.58507862262274        5.07168997408663       -6.52311181072915
H           -5.61235840925612        6.78465532000238       -8.22884101726831
H           -4.81365733871138        5.34818762804605       -8.84162941907237
H           -6.21830910445418        6.32408798880046      -10.55564054197767
H           -6.80344657104492        4.72457295782303      -10.13576140531804
H           -8.66329932817549        6.24193803657778      -10.45738996023525
H           -8.62460427097681        5.67842023396346       -8.79703523722192
H           -9.18885296459430        8.03130645342946       -8.86697672171689
H           -7.65999547274356        7.80414137110379       -8.03788238681296
H           -7.56260879837091        9.76001435085800       -9.45967103382916
H           -6.41310243273987        8.55157998509793      -10.01722689185248
H           -7.48672933203976        9.59467732742370      -11.90892854975274
H           -7.97010647296775        7.90512930694938      -11.84738185979715
H           -9.65919192748308       10.23006179502644      -10.80911967008251
H           -9.87504442625928        9.44385034952962      -12.37302780645026
H          -10.16658857705723        8.54175625540515      -10.89034110754321
H           -0.61310929075342       -0.92741391827756       -2.99781943650739
H            0.75925893287851       -0.91183299933039       -1.90156954749261
H            0.25195702143578       -2.43632478111216       -2.65990613413224

          :  Hamiltonian                  GFN2-xTB          :
         :: total energy            -144.287336278758 Eh    ::
         :: gradient norm              0.000543654160 Eh/a0 ::
         :: HOMO-LUMO gap              2.464702474803 eV    ::
         :: SCC energy              -146.242316038595 Eh    ::
         :: -> dispersion             -0.114584869897 Eh    ::
         :: repulsion energy           1.954979759838 Eh    ::

    * Orbital Energies and Occupations

         #    Occupation            Energy/Eh            Energy/eV
      -------------------------------------------------------------
         1        2.0000           -0.8723517             -23.7379
       ...           ...                  ...                  ...
       121        2.0000           -0.4747044             -12.9174
       122        2.0000           -0.4729822             -12.8705
       123        2.0000           -0.4729066             -12.8684
       124        2.0000           -0.4698740             -12.7859
       125        2.0000           -0.4643632             -12.6360
       126        2.0000           -0.4632971             -12.6070
       127        2.0000           -0.4607839             -12.5386
       128        2.0000           -0.4602856             -12.5250
       129        2.0000           -0.4549547             -12.3799
       130        2.0000           -0.4534861             -12.3400
       131        2.0000           -0.4527848             -12.3209
       132        2.0000           -0.4467274             -12.1561
       133        2.0000           -0.4456654             -12.1272 (HOMO)
       134                         -0.3550893              -9.6625 (LUMO)
       135                         -0.3532014              -9.6111
       136                         -0.3448505              -9.3839
       137                         -0.2263376              -6.1590
       138                         -0.1645505              -4.4776
       139                         -0.1490833              -4.0568
       140                         -0.1411094              -3.8398
       141                         -0.1279694              -3.4822
       142                         -0.1232889              -3.3549
       143                         -0.0544996              -1.4830
       144                         -0.0503602              -1.3704
       ...                                ...                  ...
       258                          0.5326163              14.4932
      -------------------------------------------------------------
                  HL-Gap            0.0905761 Eh            2.4647 eV

     #   Z          covCN         q      C6AA      α(0)
     1   6 C        2.839    -0.079    29.973     8.972
     2   6 C        2.884    -0.045    29.113     8.846
     3   6 C        3.759    -0.059    21.692     6.640
     4   7 N        3.619     0.124    19.121     6.495
     5   6 C        3.763    -0.045    21.419     6.597
     6   6 C        3.694     0.063    19.688     6.348
     7   8 O        1.704    -0.283    18.692     5.837
     8   6 C        2.711     0.358    20.920     7.487
     9   8 O        0.856    -0.411    21.907     6.275
    10   6 C        3.804    -0.093    22.277     6.720
    11   6 C        3.802    -0.061    21.669     6.627
    12   6 C        3.800    -0.062    21.690     6.631
    13   6 C        3.799    -0.058    21.612     6.619
    14   6 C        3.800    -0.059    21.639     6.623
    15   6 C        3.800    -0.060    21.653     6.625
    16   6 C        3.800    -0.057    21.606     6.618
    17   6 C        3.800    -0.056    21.580     6.614
    18   6 C        3.800    -0.057    21.596     6.617
    19   6 C        3.800    -0.057    21.604     6.618
    20   6 C        3.800    -0.056    21.590     6.616
    21   6 C        3.800    -0.056    21.590     6.616
    22   6 C        3.801    -0.057    21.599     6.617
    23   6 C        3.799    -0.052    21.512     6.604
    24   6 C        3.751    -0.102    22.505     6.765
    25   6 C        3.756    -0.040    21.340     6.587
    26   6 C        3.694     0.064    19.673     6.346
    27   8 O        1.704    -0.269    18.467     5.802
    28   6 C        2.713     0.361    20.867     7.478
    29   8 O        0.856    -0.421    22.106     6.304
    30   6 C        3.803    -0.093    22.264     6.718
    31   6 C        3.803    -0.054    21.546     6.608
    32   6 C        3.800    -0.057    21.606     6.618
    33   6 C        3.800    -0.061    21.676     6.629
    34   6 C        3.800    -0.059    21.629     6.622
    35   6 C        3.800    -0.058    21.615     6.620
    36   6 C        3.800    -0.057    21.602     6.617
    37   6 C        3.800    -0.057    21.594     6.616
    38   6 C        3.800    -0.056    21.589     6.615
    39   6 C        3.800    -0.056    21.589     6.616
    40   6 C        3.800    -0.056    21.585     6.615
    41   6 C        3.800    -0.057    21.593     6.616
    42   6 C        3.800    -0.057    21.596     6.616
    43   6 C        3.799    -0.052    21.507     6.603
    44   6 C        3.751    -0.101    22.499     6.764
    45   6 C        3.724    -0.089    22.309     6.745
    46   1 H        0.926     0.076     2.016     2.220
    47   1 H        0.926     0.075     2.031     2.229
    48   1 H        0.926     0.048     2.341     2.393
    49   1 H        0.924     0.112     1.677     2.025
    50   1 H        0.924     0.123     1.587     1.970
    51   1 H        0.924     0.095     1.830     2.116
    52   1 H        0.924     0.097     1.812     2.105
    53   1 H        0.924     0.091     1.874     2.141
    54   1 H        0.924     0.088     1.899     2.155
    55   1 H        0.925     0.080     1.975     2.198
    56   1 H        0.924     0.092     1.857     2.131
    57   1 H        0.925     0.061     2.191     2.315
    58   1 H        0.924     0.058     2.223     2.332
    59   1 H        0.925     0.053     2.281     2.362
    60   1 H        0.924     0.015     2.812     2.622
    61   1 H        0.924     0.033     2.543     2.494
    62   1 H        0.924     0.009     2.899     2.663
    63   1 H        0.924     0.039     2.466     2.456
    64   1 H        0.924     0.029     2.595     2.519
    65   1 H        0.924     0.040     2.445     2.445
    66   1 H        0.924     0.029     2.594     2.518
    67   1 H        0.924     0.038     2.482     2.464
    68   1 H        0.924     0.022     2.707     2.573
    69   1 H        0.924     0.033     2.543     2.494
    70   1 H        0.924     0.020     2.731     2.584
    71   1 H        0.924     0.032     2.552     2.498
    72   1 H        0.924     0.026     2.649     2.545
    73   1 H        0.924     0.033     2.538     2.491
    74   1 H        0.924     0.027     2.623     2.533
    75   1 H        0.924     0.033     2.543     2.494
    76   1 H        0.924     0.026     2.647     2.544
    77   1 H        0.924     0.032     2.559     2.502
    78   1 H        0.924     0.025     2.655     2.548
    79   1 H        0.924     0.028     2.608     2.526
    80   1 H        0.924     0.027     2.624     2.533
    81   1 H        0.924     0.027     2.627     2.534
    82   1 H        0.924     0.031     2.575     2.509
    83   1 H        0.925     0.034     2.535     2.490
    84   1 H        0.925     0.032     2.553     2.499
    85   1 H        0.925     0.034     2.529     2.487
    86   1 H        0.924     0.092     1.859     2.132
    87   1 H        0.925     0.099     1.791     2.093
    88   1 H        0.924     0.093     1.852     2.128
    89   1 H        0.924     0.084     1.934     2.175
    90   1 H        0.925     0.082     1.962     2.190
    91   1 H        0.924     0.070     2.085     2.258
    92   1 H        0.925     0.062     2.178     2.308
    93   1 H        0.924     0.043     2.405     2.425
    94   1 H        0.924     0.048     2.345     2.395
    95   1 H        0.924     0.020     2.735     2.586
    96   1 H        0.924     0.043     2.413     2.429
    97   1 H        0.924     0.032     2.554     2.499
    98   1 H        0.924     0.038     2.472     2.459
    99   1 H        0.924     0.023     2.682     2.561
   100   1 H        0.924     0.036     2.504     2.475
   101   1 H        0.924     0.025     2.663     2.552
   102   1 H        0.924     0.035     2.523     2.484
   103   1 H        0.924     0.025     2.663     2.552
   104   1 H        0.924     0.033     2.547     2.496
   105   1 H        0.924     0.025     2.656     2.549
   106   1 H        0.924     0.032     2.563     2.504
   107   1 H        0.924     0.026     2.649     2.545
   108   1 H        0.924     0.031     2.565     2.505
   109   1 H        0.924     0.026     2.639     2.540
   110   1 H        0.924     0.032     2.565     2.504
   111   1 H        0.924     0.026     2.639     2.540
   112   1 H        0.924     0.031     2.568     2.506
   113   1 H        0.924     0.027     2.628     2.535
   114   1 H        0.924     0.028     2.617     2.530
   115   1 H        0.924     0.028     2.616     2.529
   116   1 H        0.924     0.027     2.637     2.539
   117   1 H        0.924     0.030     2.580     2.512
   118   1 H        0.925     0.033     2.539     2.492
   119   1 H        0.925     0.031     2.566     2.505
   120   1 H        0.925     0.034     2.530     2.487
   121   1 H        0.925     0.105     1.738     2.062
   122   1 H        0.925     0.095     1.833     2.117
   123   1 H        0.925     0.087     1.912     2.162

Wiberg/Mayer (AO) data.
largest (>0.10) Wiberg bond orders for each atom

     #   Z sym  total        # sym  WBO       # sym  WBO       # sym  WBO
 ---------------------------------------------------------------------------
     1   6 C    3.981 --     2 C    1.977    47 H    0.973    46 H    0.970
     2   6 C    3.984 --     1 C    1.977     3 C    1.019    48 H    0.962
     3   6 C    3.908 --     2 C    1.019    49 H    0.942    50 H    0.942
                             4 N    0.906
     4   7 N    3.805 --    45 C    0.959    25 C    0.937     5 C    0.937
                             3 C    0.906
     5   6 C    3.943 --     6 C    1.001    51 H    0.965    52 H    0.962
                             4 N    0.937
     6   6 C    3.934 --     5 C    1.001     7 O    0.961    53 H    0.957
                            54 H    0.954
     7   8 O    2.272 --     8 C    1.077     6 C    0.961     9 O    0.158
     8   6 C    3.901 --     9 O    1.749     7 O    1.077    10 C    0.998
     9   8 O    2.051 --     8 C    1.749     7 O    0.158
    10   6 C    3.987 --     8 C    0.998    11 C    0.994    55 H    0.959
                            56 H    0.927
    11   6 C    3.989 --    12 C    1.008    10 C    0.994    58 H    0.975
                            57 H    0.972
    12   6 C    3.996 --    11 C    1.008    13 C    1.007    60 H    0.975
                            59 H    0.973
    13   6 C    3.997 --    12 C    1.007    14 C    1.007    62 H    0.976
                            61 H    0.974
    14   6 C    3.996 --    15 C    1.008    13 C    1.007    64 H    0.975
                            63 H    0.974
    15   6 C    3.996 --    14 C    1.008    16 C    1.008    66 H    0.975
                            65 H    0.974
    16   6 C    3.997 --    15 C    1.008    17 C    1.007    68 H    0.976
                            67 H    0.975
    17   6 C    3.998 --    18 C    1.007    16 C    1.007    70 H    0.976
                            69 H    0.975
    18   6 C    3.997 --    19 C    1.008    17 C    1.007    72 H    0.975
                            71 H    0.975
    19   6 C    3.997 --    20 C    1.008    18 C    1.008    74 H    0.975
                            73 H    0.975
    20   6 C    3.998 --    19 C    1.008    21 C    1.008    76 H    0.975
                            75 H    0.975
    21   6 C    3.998 --    20 C    1.008    22 C    1.008    78 H    0.976
                            77 H    0.976
    22   6 C    3.998 --    23 C    1.008    21 C    1.008    79 H    0.977
                            80 H    0.976
    23   6 C    3.998 --    24 C    1.020    22 C    1.008    81 H    0.978
                            82 H    0.976
    24   6 C    3.997 --    23 C    1.020    83 H    0.988    84 H    0.987
                            85 H    0.986
    25   6 C    3.940 --    26 C    1.001    86 H    0.964    87 H    0.957
                             4 N    0.937
    26   6 C    3.935 --    25 C    1.001    27 O    0.961    89 H    0.957
                            88 H    0.955
    27   8 O    2.288 --    28 C    1.095    26 C    0.961    29 O    0.159
    28   6 C    3.900 --    29 O    1.733    27 O    1.095    30 C    0.995
    29   8 O    2.039 --    28 C    1.733    27 O    0.159
    30   6 C    3.988 --    28 C    0.995    90 H    0.966    31 C    0.964
                            91 H    0.958
    31   6 C    3.987 --    32 C    1.009    93 H    0.978    92 H    0.970
                            30 C    0.964
    32   6 C    3.995 --    31 C    1.009    33 C    1.007    95 H    0.977
                            94 H    0.972
    33   6 C    3.996 --    34 C    1.008    32 C    1.007    97 H    0.975
                            96 H    0.973
    34   6 C    3.997 --    33 C    1.008    35 C    1.007    99 H    0.975
                            98 H    0.974
    35   6 C    3.997 --    36 C    1.008    34 C    1.007   101 H    0.976
                           100 H    0.975
    36   6 C    3.997 --    37 C    1.008    35 C    1.008   103 H    0.975
                           102 H    0.974
    37   6 C    3.997 --    38 C    1.008    36 C    1.008   105 H    0.975
                           104 H    0.975
    38   6 C    3.998 --    37 C    1.008    39 C    1.008   107 H    0.975
                           106 H    0.975
    39   6 C    3.998 --    40 C    1.008    38 C    1.008   109 H    0.975
                           108 H    0.975
    40   6 C    3.998 --    41 C    1.008    39 C    1.008   111 H    0.975
                           110 H    0.975
    41   6 C    3.998 --    40 C    1.008    42 C    1.008   112 H    0.975
                           113 H    0.975
    42   6 C    3.998 --    43 C    1.008    41 C    1.008   114 H    0.977
                           115 H    0.976
    43   6 C    3.998 --    44 C    1.020    42 C    1.008   116 H    0.978
                           117 H    0.976
    44   6 C    3.997 --    43 C    1.020   118 H    0.988   119 H    0.987
                           120 H    0.986
    45   6 C    3.929 --   123 H    0.977   122 H    0.972   121 H    0.967
                             4 N    0.959
    46   1 H    0.994 --     1 C    0.970
    47   1 H    0.994 --     1 C    0.973
    48   1 H    0.998 --     2 C    0.962
    49   1 H    0.987 --     3 C    0.942
    50   1 H    0.985 --     3 C    0.942
    51   1 H    0.991 --     5 C    0.965
    52   1 H    0.990 --     5 C    0.962
    53   1 H    0.991 --     6 C    0.957
    54   1 H    0.992 --     6 C    0.954
    55   1 H    0.993 --    10 C    0.959
    56   1 H    0.991 --    10 C    0.927
    57   1 H    0.996 --    11 C    0.972
    58   1 H    0.997 --    11 C    0.975
    59   1 H    0.997 --    12 C    0.973
    60   1 H    1.000 --    12 C    0.975
    61   1 H    0.999 --    13 C    0.974
    62   1 H    1.000 --    13 C    0.976
    63   1 H    0.998 --    14 C    0.974
    64   1 H    0.999 --    14 C    0.975
    65   1 H    0.998 --    15 C    0.974
    66   1 H    0.999 --    15 C    0.975
    67   1 H    0.999 --    16 C    0.975
    68   1 H    1.000 --    16 C    0.976
    69   1 H    0.999 --    17 C    0.975
    70   1 H    1.000 --    17 C    0.976
    71   1 H    0.999 --    18 C    0.975
    72   1 H    0.999 --    18 C    0.975
    73   1 H    0.999 --    19 C    0.975
    74   1 H    0.999 --    19 C    0.975
    75   1 H    0.999 --    20 C    0.975
    76   1 H    0.999 --    20 C    0.975
    77   1 H    0.999 --    21 C    0.976
    78   1 H    0.999 --    21 C    0.976
    79   1 H    0.999 --    22 C    0.977
    80   1 H    0.999 --    22 C    0.976
    81   1 H    0.999 --    23 C    0.978
    82   1 H    0.999 --    23 C    0.976
    83   1 H    0.999 --    24 C    0.988
    84   1 H    0.999 --    24 C    0.987
    85   1 H    0.999 --    24 C    0.986
    86   1 H    0.991 --    25 C    0.964
    87   1 H    0.990 --    25 C    0.957
    88   1 H    0.991 --    26 C    0.955
    89   1 H    0.993 --    26 C    0.957
    90   1 H    0.993 --    30 C    0.966
    91   1 H    0.995 --    30 C    0.958
    92   1 H    0.996 --    31 C    0.970
    93   1 H    0.998 --    31 C    0.978
    94   1 H    0.998 --    32 C    0.972
    95   1 H    1.000 --    32 C    0.977
    96   1 H    0.998 --    33 C    0.973
    97   1 H    0.999 --    33 C    0.975
    98   1 H    0.999 --    34 C    0.974
    99   1 H    0.999 --    34 C    0.975
   100   1 H    0.999 --    35 C    0.975
   101   1 H    0.999 --    35 C    0.976
   102   1 H    0.999 --    36 C    0.974
   103   1 H    0.999 --    36 C    0.975
   104   1 H    0.999 --    37 C    0.975
   105   1 H    0.999 --    37 C    0.975
   106   1 H    0.999 --    38 C    0.975
   107   1 H    0.999 --    38 C    0.975
   108   1 H    0.999 --    39 C    0.975
   109   1 H    0.999 --    39 C    0.975
   110   1 H    0.999 --    40 C    0.975
   111   1 H    0.999 --    40 C    0.975
   112   1 H    0.999 --    41 C    0.975
   113   1 H    0.999 --    41 C    0.975
   114   1 H    0.999 --    42 C    0.977
   115   1 H    0.999 --    42 C    0.976
   116   1 H    0.999 --    43 C    0.978
   117   1 H    0.999 --    43 C    0.976
   118   1 H    0.999 --    44 C    0.988
   119   1 H    0.999 --    44 C    0.987
   120   1 H    0.999 --    44 C    0.986
   121   1 H    0.989 --    45 C    0.967
   122   1 H    0.991 --    45 C    0.972
   123   1 H    0.992 --    45 C    0.977
 ---------------------------------------------------------------------------

molecular dipole:
                 x           y           z       tot (Debye)
 q only:       -2.996      -4.199      -2.692
   full:       -2.847      -4.448      -2.578      14.937

           -------------------------------------------------
          | TOTAL ENERGY             -144.287336278758 Eh   |
          | GRADIENT NORM               0.000543654160 Eh/α |
          | HOMO-LUMO GAP               2.464702474803 eV   |
           -------------------------------------------------

 * finished run on 2024/12/20 at 02:06:39.816
