   * xtb version 6.7.1 (edcfbbe) compiled by 'conda@3ef47c1a292c' on 2024-11-25

   ID    Z sym.   atoms
    1    6 C      1-14, 16-26
    2    7 N      15
    3    1 H      27-72

          program call               : xtb C0104.xyz --opt --namespace C0104 --charge +1
          :  Hamiltonian                  GFN2-xTB          :
 * total energy  :   -79.5615370 Eh     change       -0.6747314E-10 Eh
 * total energy  :   -79.5655095 Eh     change       -0.3972549E-02 Eh
 * total energy  :   -79.5662154 Eh     change       -0.7058659E-03 Eh
 * total energy  :   -79.5663490 Eh     change       -0.1335652E-03 Eh
 * total energy  :   -79.5664852 Eh     change       -0.1361990E-03 Eh
 * total energy  :   -79.5665498 Eh     change       -0.6458924E-04 Eh
 * total energy  :   -79.5666137 Eh     change       -0.6391686E-04 Eh
 * total energy  :   -79.5666643 Eh     change       -0.5065674E-04 Eh
 * total energy  :   -79.5667206 Eh     change       -0.5624479E-04 Eh
 * total energy  :   -79.5667598 Eh     change       -0.3922087E-04 Eh
 * total energy  :   -79.5672531 Eh     change       -0.1205958E-04 Eh
 * total energy  :   -79.5672640 Eh     change       -0.1086544E-04 Eh
 * total energy  :   -79.5672760 Eh     change       -0.1200201E-04 Eh
 * total energy  :   -79.5672879 Eh     change       -0.1183765E-04 Eh
 * total energy  :   -79.5672993 Eh     change       -0.1149177E-04 Eh
 * total energy  :   -79.5673125 Eh     change       -0.1314726E-04 Eh
 * total energy  :   -79.5673234 Eh     change       -0.1086750E-04 Eh
 * total energy  :   -79.5673291 Eh     change       -0.5709181E-05 Eh
 * total energy  :   -79.5673325 Eh     change       -0.3412030E-05 Eh
   *** GEOMETRY OPTIMIZATION CONVERGED AFTER 42 ITERATIONS ***

 final structure:
================
72
 xtb: 6.7.1 (edcfbbe)
C            1.22121232469544        0.24952678994347       -0.64273976462611
C            0.88687164981717       -1.22393916333578       -0.84159195203187
C            1.29854148174118       -2.10085530480050        0.34187740375248
C            0.59854192629508       -1.77316909652702        1.66265402107073
C           -0.92787124012378       -1.87238242837213        1.62817138809713
C           -1.47765456655833       -3.24004362218059        1.21839336196685
C           -1.02712295397543       -4.40668788818664        2.09944398134184
C           -1.38744833814673       -4.27278708392669        3.58022254715446
C           -2.88424043939942       -4.14533672068237        3.87081439969120
C           -3.73876080152155       -5.31492202466685        3.37783876980964
C           -3.32511334988119       -6.68797489726297        3.91359255534002
C           -3.29828069253241       -6.79940266933388        5.44003289019882
C           -4.64763487604319       -6.57832453261451        6.12316589066415
C           -5.67225521015413       -7.68875350346918        5.84854411930981
N           -5.21746117966715       -8.94409776366165        6.41608801075022
C           -5.38424645065138       -9.17801530759571        7.72442551158311
C           -4.86804971445496      -10.30150736062812        8.32326273406090
C           -4.14399730149728      -11.23384688467363        7.57277496777357
C           -4.00930915462146      -10.96827027210182        6.20571859216680
C           -4.54591015327197       -9.82553822524841        5.66334688297468
C           -3.52185409061440      -12.43128008248417        8.19092939282973
C           -1.98559984278143      -12.40274254438214        8.06644308172728
C           -1.34118289310790      -11.16338107425453        8.68763445092338
C           -1.58994245656520      -10.98155463714515       10.18681814265796
C           -1.12713514566456      -12.14807634993874       11.06159075707631
C            0.36970644208783      -12.41611017409048       10.96200083614010
H            0.64345104345969        0.67734590671882        0.17247887847950
H            0.99644204109225        0.81152736144369       -1.54623602228306
H            2.27839908111845        0.37245432370517       -0.41781808278405
H           -0.18254029104378       -1.33218792632358       -1.03084024116552
H            1.41097378220013       -1.58674251213579       -1.72923872645922
H            1.11388923598455       -3.14592613966481        0.08334204864133
H            2.37531078552350       -1.99244069996832        0.49592544512422
H            0.98804634213255       -2.44517722180594        2.43099104777761
H            0.86526584779191       -0.75886035807260        1.96509266437254
H           -1.30987972087173       -1.60919021416944        2.61741929414007
H           -1.31872497568995       -1.12888403886506        0.93119842817045
H           -2.56889349583597       -3.18483995747650        1.21843174768428
H           -1.17170626373168       -3.45453486071215        0.19288114937067
H           -1.46181485615108       -5.32618806296589        1.69960908560857
H            0.05670279043473       -4.51089780230611        2.02502760181818
H           -0.98308514247163       -5.13790403804022        4.11201460640944
H           -0.89012498763091       -3.39161854537562        3.98816621053012
H           -3.01785832374237       -4.02118241500117        4.94841178091029
H           -3.26073411239587       -3.23596588443121        3.40094489223944
H           -4.78145830359405       -5.11526806983032        3.63791064703832
H           -3.68953132721385       -5.35535992974935        2.28898263624028
H           -4.00106072526505       -7.43567010057575        3.48903341132296
H           -2.32562963593465       -6.92247700727757        3.54593475546575
H           -2.89759871533188       -7.77957584877022        5.71934771731834
H           -2.60301983323104       -6.05594678851309        5.82877632564501
H           -4.49487761715069       -6.49816414157747        7.20186707873799
H           -5.07809373704396       -5.63855852355819        5.78059012936272
H           -6.63050864808307       -7.42373918960612        6.29943496632297
H           -5.81309480452240       -7.81121622020629        4.77451526402198
H           -5.93978251056723       -8.44287396580002        8.28766084777861
H           -5.02573354221993      -10.45482256007775        9.37901140535953
H           -3.47977905657806      -11.65647581803144        5.56648586069833
H           -4.44784103128027       -9.60310125540718        4.61153291945343
H           -3.80394958951106      -12.50411445358281        9.24036655219328
H           -3.88139000584981      -13.32577190572849        7.67598443636552
H           -1.59417110499799      -13.29862662672798        8.54586576408654
H           -1.70673957424577      -12.44777550034440        7.01214595215898
H           -0.26614065893798      -11.22556220721968        8.51655180501855
H           -1.69826019345107      -10.26952733474407        8.16597317162935
H           -1.05903154944493      -10.08104917053957       10.50339842693361
H           -2.65334395654121      -10.80494079494055       10.36642354869094
H           -1.37212419926984      -11.90507337099598       12.09766617140509
H           -1.67841021029464      -13.05487405048598       10.80520566412591
H            0.93312369116921      -11.50665537166712       11.15791276887470
H            0.66404301923908      -13.16279415175508       11.69464466556960
H            0.64318206657315      -12.78677973523592        9.97718232734978

          :  Hamiltonian                  GFN2-xTB          :
         :: total energy             -79.567332482594 Eh    ::
         :: gradient norm              0.000389997969 Eh/a0 ::
         :: HOMO-LUMO gap              0.546323602631 eV    ::
         :: SCC energy               -80.801814640227 Eh    ::
         :: -> dispersion             -0.062943631357 Eh    ::
         :: repulsion energy           1.234482157633 Eh    ::

    * Orbital Energies and Occupations

         #    Occupation            Energy/Eh            Energy/eV
      -------------------------------------------------------------
         1        2.0000           -0.8638520             -23.5066
       ...           ...                  ...                  ...
        63        2.0000           -0.5158505             -14.0370
        64        2.0000           -0.5122341             -13.9386
        65        2.0000           -0.5105728             -13.8934
        66        2.0000           -0.5071672             -13.8007
        67        2.0000           -0.5032213             -13.6933
        68        2.0000           -0.4991373             -13.5822
        69        2.0000           -0.4935851             -13.4311
        70        2.0000           -0.4841448             -13.1742
        71        2.0000           -0.4815291             -13.1031
        72        2.0000           -0.4777376             -12.9999
        73        2.0000           -0.4659233             -12.6784
        74        2.0000           -0.4613603             -12.5543
        75        2.0000           -0.4595250             -12.5043 (HOMO)
        76        0.0001           -0.4394480             -11.9580 (LUMO)
        77                         -0.4110691             -11.1858
        78                         -0.2934059              -7.9840
        79                         -0.1556983              -4.2368
        80                         -0.0735338              -2.0010
        81                         -0.0569353              -1.5493
        82                         -0.0465905              -1.2678
        83                         -0.0315822              -0.8594
        84                         -0.0291522              -0.7933
        85                         -0.0233981              -0.6367
        86                         -0.0175516              -0.4776
       ...                                ...                  ...
       150                          0.4524593              12.3120
      -------------------------------------------------------------
                  HL-Gap            0.0200770 Eh            0.5463 eV

     #   Z          covCN         q      C6AA      α(0)
     1   6 C        3.751    -0.102    22.512     6.766
     2   6 C        3.799    -0.052    21.512     6.604
     3   6 C        3.800    -0.057    21.602     6.617
     4   6 C        3.800    -0.057    21.600     6.617
     5   6 C        3.800    -0.057    21.599     6.617
     6   6 C        3.800    -0.057    21.605     6.618
     7   6 C        3.800    -0.057    21.603     6.618
     8   6 C        3.800    -0.058    21.621     6.620
     9   6 C        3.800    -0.060    21.658     6.626
    10   6 C        3.800    -0.061    21.673     6.628
    11   6 C        3.800    -0.061    21.667     6.627
    12   6 C        3.800    -0.064    21.733     6.638
    13   6 C        3.802    -0.068    21.810     6.649
    14   6 C        3.758    -0.032    21.200     6.564
    15   7 N        2.750     0.097    19.569     6.570
    16   6 C        2.891     0.029    27.343     8.573
    17   6 C        2.921    -0.025    28.637     8.775
    18   6 C        2.972     0.069    26.447     8.435
    19   6 C        2.921    -0.026    28.650     8.778
    20   6 C        2.889     0.030    27.325     8.570
    21   6 C        3.807    -0.073    21.897     6.661
    22   6 C        3.802    -0.059    21.626     6.621
    23   6 C        3.800    -0.060    21.660     6.626
    24   6 C        3.800    -0.060    21.656     6.626
    25   6 C        3.799    -0.055    21.572     6.613
    26   6 C        3.752    -0.107    22.611     6.781
    27   1 H        0.925     0.034     2.528     2.487
    28   1 H        0.925     0.033     2.544     2.494
    29   1 H        0.925     0.035     2.523     2.484
    30   1 H        0.924     0.030     2.586     2.515
    31   1 H        0.924     0.028     2.618     2.530
    32   1 H        0.924     0.027     2.634     2.538
    33   1 H        0.924     0.030     2.591     2.517
    34   1 H        0.924     0.026     2.648     2.545
    35   1 H        0.924     0.034     2.536     2.490
    36   1 H        0.924     0.026     2.650     2.546
    37   1 H        0.924     0.035     2.523     2.484
    38   1 H        0.924     0.025     2.653     2.547
    39   1 H        0.924     0.035     2.518     2.481
    40   1 H        0.924     0.023     2.686     2.563
    41   1 H        0.924     0.036     2.508     2.476
    42   1 H        0.924     0.022     2.707     2.573
    43   1 H        0.924     0.039     2.462     2.454
    44   1 H        0.924     0.024     2.675     2.558
    45   1 H        0.924     0.043     2.407     2.426
    46   1 H        0.924     0.025     2.664     2.552
    47   1 H        0.924     0.046     2.371     2.408
    48   1 H        0.924     0.017     2.779     2.607
    49   1 H        0.924     0.049     2.332     2.388
    50   1 H        0.924     0.019     2.744     2.590
    51   1 H        0.925     0.064     2.149     2.293
    52   1 H        0.924     0.048     2.340     2.392
    53   1 H        0.925     0.081     1.964     2.192
    54   1 H        0.924     0.084     1.941     2.179
    55   1 H        0.925     0.091     1.871     2.139
    56   1 H        0.926     0.100     1.784     2.089
    57   1 H        0.926     0.095     1.828     2.114
    58   1 H        0.926     0.097     1.810     2.104
    59   1 H        0.926     0.103     1.762     2.076
    60   1 H        0.925     0.074     2.047     2.238
    61   1 H        0.924     0.082     1.960     2.189
    62   1 H        0.925     0.068     2.110     2.271
    63   1 H        0.924     0.042     2.424     2.435
    64   1 H        0.924     0.055     2.257     2.349
    65   1 H        0.924     0.014     2.826     2.629
    66   1 H        0.924     0.041     2.440     2.443
    67   1 H        0.924     0.020     2.738     2.588
    68   1 H        0.924     0.038     2.475     2.460
    69   1 H        0.924     0.031     2.575     2.509
    70   1 H        0.925     0.040     2.445     2.445
    71   1 H        0.925     0.043     2.403     2.424
    72   1 H        0.925     0.035     2.512     2.479

Wiberg/Mayer (AO) data.
largest (>0.10) Wiberg bond orders for each atom

     #   Z sym  total        # sym  WBO       # sym  WBO       # sym  WBO
 ---------------------------------------------------------------------------
     1   6 C    3.997 --     2 C    1.020    29 H    0.988    28 H    0.987
                            27 H    0.986
     2   6 C    3.998 --     1 C    1.020     3 C    1.008    31 H    0.978
                            30 H    0.976
     3   6 C    3.998 --     2 C    1.008     4 C    1.008    33 H    0.977
                            32 H    0.976
     4   6 C    3.997 --     5 C    1.008     3 C    1.008    34 H    0.975
                            35 H    0.975
     5   6 C    3.997 --     4 C    1.008     6 C    1.008    36 H    0.975
                            37 H    0.975
     6   6 C    3.997 --     5 C    1.008     7 C    1.008    38 H    0.975
                            39 H    0.975
     7   6 C    3.997 --     6 C    1.008     8 C    1.008    40 H    0.975
                            41 H    0.974
     8   6 C    3.997 --     7 C    1.008     9 C    1.008    42 H    0.975
                            43 H    0.974
     9   6 C    3.996 --     8 C    1.008    10 C    1.008    44 H    0.975
                            45 H    0.973
    10   6 C    3.995 --     9 C    1.008    11 C    1.007    46 H    0.975
                            47 H    0.973
    11   6 C    3.995 --    12 C    1.007    10 C    1.007    48 H    0.973
                            49 H    0.973
    12   6 C    3.993 --    13 C    1.009    11 C    1.007    50 H    0.972
                            51 H    0.967
    13   6 C    3.981 --    12 C    1.009    14 C    0.975    52 H    0.974
                            53 H    0.961
    14   6 C    3.936 --    13 C    0.975    15 N    0.966    54 H    0.963
                            55 H    0.962
    15   7 N    3.752 --    16 C    1.309    20 C    1.306    14 C    0.966
    16   6 C    3.960 --    17 C    1.493    15 N    1.309    56 H    0.956
    17   6 C    3.984 --    16 C    1.493    18 C    1.361    57 H    0.959
    18   6 C    3.965 --    19 C    1.362    17 C    1.361    21 C    1.047
    19   6 C    3.984 --    20 C    1.490    18 C    1.362    58 H    0.959
    20   6 C    3.959 --    19 C    1.490    15 N    1.306    59 H    0.953
    21   6 C    3.986 --    18 C    1.047    60 H    0.969    22 C    0.962
                            61 H    0.940
    22   6 C    3.986 --    23 C    1.009    63 H    0.975    62 H    0.969
                            21 C    0.962
    23   6 C    3.995 --    22 C    1.009    24 C    1.007    65 H    0.977
                            64 H    0.971
    24   6 C    3.996 --    25 C    1.007    23 C    1.007    66 H    0.976
                            67 H    0.975
    25   6 C    3.997 --    26 C    1.020    24 C    1.007    68 H    0.977
                            69 H    0.976
    26   6 C    3.995 --    25 C    1.020    70 H    0.987    71 H    0.986
                            72 H    0.986
    27   1 H    0.999 --     1 C    0.986
    28   1 H    0.999 --     1 C    0.987
    29   1 H    0.999 --     1 C    0.988
    30   1 H    0.999 --     2 C    0.976
    31   1 H    0.999 --     2 C    0.978
    32   1 H    0.999 --     3 C    0.976
    33   1 H    0.999 --     3 C    0.977
    34   1 H    0.999 --     4 C    0.975
    35   1 H    0.999 --     4 C    0.975
    36   1 H    0.999 --     5 C    0.975
    37   1 H    0.999 --     5 C    0.975
    38   1 H    0.999 --     6 C    0.975
    39   1 H    0.999 --     6 C    0.975
    40   1 H    0.999 --     7 C    0.975
    41   1 H    0.999 --     7 C    0.974
    42   1 H    0.999 --     8 C    0.975
    43   1 H    0.998 --     8 C    0.974
    44   1 H    0.999 --     9 C    0.975
    45   1 H    0.998 --     9 C    0.973
    46   1 H    0.999 --    10 C    0.975
    47   1 H    0.998 --    10 C    0.973
    48   1 H    1.000 --    11 C    0.973
    49   1 H    0.998 --    11 C    0.973
    50   1 H    1.000 --    12 C    0.972
    51   1 H    0.995 --    12 C    0.967
    52   1 H    0.998 --    13 C    0.974
    53   1 H    0.992 --    13 C    0.961
    54   1 H    0.992 --    14 C    0.963
    55   1 H    0.991 --    14 C    0.962
    56   1 H    0.990 --    16 C    0.956
    57   1 H    0.991 --    17 C    0.959
    58   1 H    0.990 --    19 C    0.959
    59   1 H    0.989 --    20 C    0.953
    60   1 H    0.994 --    21 C    0.969
    61   1 H    0.992 --    21 C    0.940
    62   1 H    0.994 --    22 C    0.969
    63   1 H    0.998 --    22 C    0.975
    64   1 H    0.996 --    23 C    0.971
    65   1 H    1.000 --    23 C    0.977
    66   1 H    0.998 --    24 C    0.976
    67   1 H    1.000 --    24 C    0.975
    68   1 H    0.998 --    25 C    0.977
    69   1 H    0.999 --    25 C    0.976
    70   1 H    0.998 --    26 C    0.987
    71   1 H    0.998 --    26 C    0.986
    72   1 H    0.999 --    26 C    0.986
 ---------------------------------------------------------------------------

molecular dipole:
                 x           y           z       tot (Debye)
 q only:       -8.200     -17.821      12.747
   full:       -8.376     -17.831      12.723      59.607

           -------------------------------------------------
          | TOTAL ENERGY              -79.567332482594 Eh   |
          | GRADIENT NORM               0.000389997969 Eh/α |
          | HOMO-LUMO GAP               0.546323602631 eV   |
           -------------------------------------------------

 * finished run on 2024/12/20 at 02:06:43.469
