   * xtb version 6.7.1 (edcfbbe) compiled by 'conda@3ef47c1a292c' on 2024-11-25

   ID    Z sym.   atoms
    1    8 O      1, 3
    2    6 C      2, 4-8, 10-12
    3    7 N      9
    4    1 H      13-32

          program call               : xtb C0114.xyz --opt --namespace C0114 --charge +1
          :  Hamiltonian                  GFN2-xTB          :
 * total energy  :   -40.1280608 Eh     change       -0.3412453E-09 Eh
 * total energy  :   -40.1349459 Eh     change       -0.6885173E-02 Eh
 * total energy  :   -40.1367715 Eh     change       -0.1825522E-02 Eh
 * total energy  :   -40.1369702 Eh     change       -0.1987175E-03 Eh
 * total energy  :   -40.1371426 Eh     change       -0.1724449E-03 Eh
 * total energy  :   -40.1372338 Eh     change       -0.9120918E-04 Eh
 * total energy  :   -40.1373466 Eh     change       -0.1127676E-03 Eh
 * total energy  :   -40.1374765 Eh     change       -0.1298807E-03 Eh
 * total energy  :   -40.1376283 Eh     change       -0.1518502E-03 Eh
 * total energy  :   -40.1377799 Eh     change       -0.1516195E-03 Eh
 * total energy  :   -40.1408048 Eh     change       -0.1555522E-04 Eh
 * total energy  :   -40.1408166 Eh     change       -0.1177762E-04 Eh
 * total energy  :   -40.1408238 Eh     change       -0.7234085E-05 Eh
 * total energy  :   -40.1408370 Eh     change       -0.1322164E-04 Eh
 * total energy  :   -40.1408476 Eh     change       -0.1056651E-04 Eh
 * total energy  :   -40.1408645 Eh     change       -0.1689331E-04 Eh
 * total energy  :   -40.1408708 Eh     change       -0.6330390E-05 Eh
 * total energy  :   -40.1408765 Eh     change       -0.5724533E-05 Eh
 * total energy  :   -40.1408808 Eh     change       -0.4240169E-05 Eh
   *** GEOMETRY OPTIMIZATION CONVERGED AFTER 67 ITERATIONS ***

 final structure:
================
32
 xtb: 6.7.1 (edcfbbe)
O            1.78296594603388       -1.05840142422711        1.75444753046301
C            0.97961391717813       -0.07375578270980        1.35647106419032
O            1.36976384746477        1.03366382354631        1.10273928913624
C           -0.45423252285315       -0.54955907447681        1.26162503286489
C           -1.44739165594150        0.59176415927533        1.05066854084341
C           -1.29629556377995        1.30074429065138       -0.29865038071645
C           -1.81260395213795        0.48621538605720       -1.48991268528302
C           -3.34359470994129        0.42474624604534       -1.57748617171000
N           -3.98706437084598        1.34273856415008       -2.57043455329920
C           -3.64137908260916        0.94458466222908       -3.94715278804631
C           -5.45066119756085        1.24035221090817       -2.40755716449385
C           -3.58433881378117        2.74204089521510       -2.34549723233864
H            2.70266527232321       -0.75574714114569        1.82449784794305
H           -0.50106135183384       -1.28542573714826        0.45656688996206
H           -0.68124090708499       -1.07935444009309        2.18788931082228
H           -2.45973526009956        0.19906610060651        1.16922859401389
H           -1.28299810144782        1.32934561590129        1.83646178833912
H           -1.81102356191910        2.26043929990155       -0.24526362235452
H           -0.23824367767411        1.51294213967407       -0.44451431998022
H           -1.38262953926084        0.88408799809405       -2.40834394296992
H           -1.43872162153721       -0.53337142574885       -1.39857653156713
H           -3.66274480033960       -0.58597031184662       -1.83828797464273
H           -3.75899256338605        0.66434401561986       -0.59656942016302
H           -3.94728385328634       -0.08417580416018       -4.12885734387707
H           -4.14913971387865        1.59107455454655       -4.66078283234754
H           -2.56999100182741        1.02295221772247       -4.11541976188927
H           -5.74368338276778        1.54803597017465       -1.40526544829419
H           -5.95432999382749        1.88289136668064       -3.12762775612101
H           -5.77986475586016        0.21519017179970       -2.56738375198168
H           -3.84669198219792        3.04768633085281       -1.33451929005878
H           -2.51230208084374        2.86025935757783       -2.48268929631307
H           -4.09799896447193        3.39425576432726       -3.04997362012541

          :  Hamiltonian                  GFN2-xTB          :
         :: total energy             -40.140880767101 Eh    ::
         :: gradient norm              0.000445968474 Eh/a0 ::
         :: HOMO-LUMO gap              5.115751617251 eV    ::
         :: SCC energy               -40.635000325606 Eh    ::
         :: -> dispersion             -0.022568934640 Eh    ::
         :: repulsion energy           0.494119558505 Eh    ::

    * Orbital Energies and Occupations

         #    Occupation            Energy/Eh            Energy/eV
      -------------------------------------------------------------
         1        2.0000           -0.8713929             -23.7118
       ...           ...                  ...                  ...
        24        2.0000           -0.6474984             -17.6193
        25        2.0000           -0.6451946             -17.5566
        26        2.0000           -0.6359719             -17.3057
        27        2.0000           -0.6266962             -17.0533
        28        2.0000           -0.6060802             -16.4923
        29        2.0000           -0.5960267             -16.2187
        30        2.0000           -0.5900485             -16.0560
        31        2.0000           -0.5789221             -15.7533
        32        2.0000           -0.5634235             -15.3315
        33        2.0000           -0.5543253             -15.0840
        34        2.0000           -0.5537354             -15.0679
        35        2.0000           -0.5464454             -14.8695
        36        2.0000           -0.5054499             -13.7540 (HOMO)
        37                         -0.3174495              -8.6382 (LUMO)
        38                         -0.2315216              -6.3000
        39                         -0.1646319              -4.4799
        40                         -0.1526363              -4.1534
        41                         -0.1470459              -4.0013
        42                         -0.0722731              -1.9667
        43                         -0.0670700              -1.8251
        44                         -0.0477141              -1.2984
        45                         -0.0375591              -1.0220
        46                         -0.0312867              -0.8514
        47                         -0.0057743              -0.1571
       ...                                ...                  ...
        68                          0.5661460              15.4056
      -------------------------------------------------------------
                  HL-Gap            0.1880004 Eh            5.1158 eV

     #   Z          covCN         q      C6AA      α(0)
     1   8 O        1.660    -0.370    20.274     6.078
     2   6 C        2.688     0.362    20.858     7.474
     3   8 O        0.856    -0.408    21.837     6.265
     4   6 C        3.803    -0.097    22.341     6.729
     5   6 C        3.802    -0.063    21.703     6.633
     6   6 C        3.801    -0.079    22.017     6.681
     7   6 C        3.799    -0.075    21.933     6.668
     8   6 C        3.760    -0.045    21.419     6.598
     9   7 N        3.622     0.145    18.781     6.437
    10   6 C        3.722    -0.097    22.476     6.771
    11   6 C        3.730    -0.099    22.488     6.769
    12   6 C        3.721    -0.098    22.487     6.773
    13   1 H        0.804     0.340     0.612     1.229
    14   1 H        0.924     0.070     2.091     2.261
    15   1 H        0.924     0.081     1.964     2.191
    16   1 H        0.924     0.035     2.511     2.478
    17   1 H        0.925     0.064     2.154     2.295
    18   1 H        0.924     0.041     2.434     2.440
    19   1 H        0.925     0.084     1.937     2.176
    20   1 H        0.925     0.053     2.277     2.360
    21   1 H        0.925     0.073     2.053     2.241
    22   1 H        0.924     0.082     1.963     2.191
    23   1 H        0.924     0.092     1.857     2.131
    24   1 H        0.925     0.099     1.794     2.095
    25   1 H        0.925     0.100     1.789     2.092
    26   1 H        0.925     0.102     1.765     2.078
    27   1 H        0.925     0.100     1.787     2.091
    28   1 H        0.925     0.101     1.773     2.082
    29   1 H        0.925     0.099     1.794     2.094
    30   1 H        0.925     0.100     1.784     2.089
    31   1 H        0.925     0.108     1.712     2.046
    32   1 H        0.925     0.098     1.803     2.100

Wiberg/Mayer (AO) data.
largest (>0.10) Wiberg bond orders for each atom

     #   Z sym  total        # sym  WBO       # sym  WBO       # sym  WBO
 ---------------------------------------------------------------------------
     1   8 O    2.213 --     2 C    1.150    13 H    0.859     3 O    0.176
     2   6 C    3.915 --     3 O    1.761     1 O    1.150     4 C    0.972
     3   8 O    2.044 --     2 C    1.761     1 O    0.176
     4   6 C    3.994 --     5 C    1.010     2 C    0.972    15 H    0.956
                            14 H    0.948
     5   6 C    3.994 --     4 C    1.010     6 C    1.008    17 H    0.974
                            16 H    0.974
     6   6 C    3.988 --     5 C    1.008     7 C    1.006    18 H    0.974
                            19 H    0.966
     7   6 C    3.983 --     6 C    1.006     8 C    1.003    21 H    0.965
                            20 H    0.965
     8   6 C    3.924 --     7 C    1.003    22 H    0.970    23 H    0.963
                             9 N    0.921
     9   7 N    3.816 --    10 C    0.959    11 C    0.958    12 C    0.958
                             8 C    0.921
    10   6 C    3.927 --    24 H    0.975    25 H    0.974    26 H    0.969
                             9 N    0.959
    11   6 C    3.927 --    29 H    0.975    27 H    0.975    28 H    0.974
                             9 N    0.958
    12   6 C    3.925 --    32 H    0.974    30 H    0.974    31 H    0.970
                             9 N    0.958
    13   1 H    0.884 --     1 O    0.859
    14   1 H    0.995 --     4 C    0.948
    15   1 H    0.993 --     4 C    0.956
    16   1 H    0.999 --     5 C    0.974
    17   1 H    0.996 --     5 C    0.974
    18   1 H    0.998 --     6 C    0.974
    19   1 H    0.993 --     6 C    0.966
    20   1 H    0.997 --     7 C    0.965
    21   1 H    0.994 --     7 C    0.965
    22   1 H    0.993 --     8 C    0.970
    23   1 H    0.991 --     8 C    0.963
    24   1 H    0.990 --    10 C    0.975
    25   1 H    0.990 --    10 C    0.974
    26   1 H    0.990 --    10 C    0.969
    27   1 H    0.990 --    11 C    0.975
    28   1 H    0.989 --    11 C    0.974
    29   1 H    0.990 --    11 C    0.975
    30   1 H    0.990 --    12 C    0.974
    31   1 H    0.988 --    12 C    0.970
    32   1 H    0.990 --    12 C    0.974
 ---------------------------------------------------------------------------

molecular dipole:
                 x           y           z       tot (Debye)
 q only:       -7.197       1.854      -4.367
   full:       -7.165       1.746      -4.361      21.778

           -------------------------------------------------
          | TOTAL ENERGY              -40.140880767101 Eh   |
          | GRADIENT NORM               0.000445968474 Eh/α |
          | HOMO-LUMO GAP               5.115751617251 eV   |
           -------------------------------------------------

 * finished run on 2024/12/20 at 02:07:06.915
