   * xtb version 6.7.1 (edcfbbe) compiled by 'conda@3ef47c1a292c' on 2024-11-25

   ID    Z sym.   atoms
    1    6 C      1, 2, 4, 6, 8-10
    2    8 O      3, 5
    3    7 N      7
    4    1 H      11-26

          program call               : xtb C0116.xyz --opt --namespace C0116 --charge +1
          :  Hamiltonian                  GFN2-xTB          :
 * total energy  :   -33.7931257 Eh     change       -0.2317151E-09 Eh
 * total energy  :   -33.8023817 Eh     change       -0.9255937E-02 Eh
 * total energy  :   -33.8045269 Eh     change       -0.2145206E-02 Eh
 * total energy  :   -33.8048852 Eh     change       -0.3583706E-03 Eh
 * total energy  :   -33.8049818 Eh     change       -0.9658685E-04 Eh
 * total energy  :   -33.8050570 Eh     change       -0.7515208E-04 Eh
 * total energy  :   -33.8051127 Eh     change       -0.5570487E-04 Eh
 * total energy  :   -33.8051732 Eh     change       -0.6055775E-04 Eh
 * total energy  :   -33.8052439 Eh     change       -0.7063653E-04 Eh
 * total energy  :   -33.8053270 Eh     change       -0.8309252E-04 Eh
 * total energy  :   -33.8104108 Eh     change       -0.1673953E-04 Eh
 * total energy  :   -33.8104310 Eh     change       -0.2019775E-04 Eh
 * total energy  :   -33.8104544 Eh     change       -0.2344488E-04 Eh
 * total energy  :   -33.8104812 Eh     change       -0.2672347E-04 Eh
 * total energy  :   -33.8104888 Eh     change       -0.7601172E-05 Eh
 * total energy  :   -33.8105002 Eh     change       -0.1145590E-04 Eh
 * total energy  :   -33.8105057 Eh     change       -0.5490822E-05 Eh
 * total energy  :   -33.8105107 Eh     change       -0.5001074E-05 Eh
 * total energy  :   -33.8105133 Eh     change       -0.2591375E-05 Eh
   *** GEOMETRY OPTIMIZATION CONVERGED AFTER 62 ITERATIONS ***

 final structure:
================
26
 xtb: 6.7.1 (edcfbbe)
C           -0.03572526267947       -1.07493260458752        0.71326479993452
C            1.45287511592608       -1.05558495568388        1.00952298119371
O            1.74668930004948       -0.20624754536133        2.14217055573309
C            1.90482334757229        1.07375131997693        1.93009161352260
O            1.85955296831275        1.65039797163674        0.87738292446799
C            2.18682665302512        1.76670407342686        3.28405847554447
N            2.40739682317231        3.23013598815909        3.21413831945285
C            1.20970509278085        3.90399478135162        2.67358782546498
C            2.66871836060873        3.73027452361665        4.57787550530769
C            3.57088258024913        3.53636434862313        2.35742028391226
H           -0.59449470665544       -1.38308551065394        1.59348829239933
H           -0.22813401795073       -1.78226597139464       -0.08733148572966
H           -0.37761933871834       -0.09219262202069        0.39670206248292
H            1.81120709718682       -2.04049441609125        1.30980028952472
H            2.01716620010547       -0.69449649333660        0.14561129734716
H            1.33615898087532        1.55585539023155        3.93690853025175
H            3.06592474967585        1.28305562731487        3.71699279716000
H            0.34161365159021        3.68394888089568        3.29242584265765
H            1.36594035041604        4.98074776991333        2.65876265872400
H            1.02061969137980        3.56280089561541        1.65713603349969
H            3.55057528102581        3.24928189550491        4.99748529210665
H            2.83945757833878        4.80502988143900        4.55254625830277
H            1.81826815292503        3.52958157945895        5.22737752411834
H            4.46328809888100        3.04786054682904        2.74428693299088
H            3.38475126565095        3.18992910631235        1.34227148477116
H            3.74048198625566        4.61095553881240        2.33522290486448

          :  Hamiltonian                  GFN2-xTB          :
         :: total energy             -33.810513299448 Eh    ::
         :: gradient norm              0.000702302456 Eh/a0 ::
         :: HOMO-LUMO gap              4.853583377241 eV    ::
         :: SCC energy               -34.207273074134 Eh    ::
         :: -> dispersion             -0.016807042871 Eh    ::
         :: repulsion energy           0.396759774686 Eh    ::

    * Orbital Energies and Occupations

         #    Occupation            Energy/Eh            Energy/eV
      -------------------------------------------------------------
         1        2.0000           -0.8965343             -24.3959
       ...           ...                  ...                  ...
        18        2.0000           -0.6671653             -18.1545
        19        2.0000           -0.6575014             -17.8915
        20        2.0000           -0.6552296             -17.8297
        21        2.0000           -0.6519919             -17.7416
        22        2.0000           -0.6469471             -17.6043
        23        2.0000           -0.6448979             -17.5486
        24        2.0000           -0.6421190             -17.4729
        25        2.0000           -0.6331525             -17.2290
        26        2.0000           -0.6171547             -16.7936
        27        2.0000           -0.5831712             -15.8689
        28        2.0000           -0.5768285             -15.6963
        29        2.0000           -0.5701670             -15.5150
        30        2.0000           -0.5600326             -15.2393 (HOMO)
        31                         -0.3816667             -10.3857 (LUMO)
        32                         -0.2370299              -6.4499
        33                         -0.1795349              -4.8854
        34                         -0.1563560              -4.2547
        35                         -0.1509404              -4.1073
        36                         -0.1190815              -3.2404
        37                         -0.0666325              -1.8132
        38                         -0.0434135              -1.1813
        39                          0.0006597               0.0180
        40                          0.0067649               0.1841
        41                          0.0169853               0.4622
       ...                                ...                  ...
        56                          0.5191497              14.1268
      -------------------------------------------------------------
                  HL-Gap            0.1783659 Eh            4.8536 eV

     #   Z          covCN         q      C6AA      α(0)
     1   6 C        3.751    -0.123    22.913     6.827
     2   6 C        3.696     0.068    19.601     6.333
     3   8 O        1.703    -0.235    17.899     5.712
     4   6 C        2.710     0.363    20.838     7.472
     5   8 O        0.856    -0.396    21.592     6.230
     6   6 C        3.768    -0.073    21.930     6.674
     7   7 N        3.623     0.156    18.603     6.406
     8   6 C        3.721    -0.106    22.637     6.795
     9   6 C        3.728    -0.102    22.558     6.781
    10   6 C        3.721    -0.106    22.644     6.796
    11   1 H        0.925     0.066     2.129     2.282
    12   1 H        0.925     0.076     2.016     2.220
    13   1 H        0.925     0.063     2.162     2.299
    14   1 H        0.924     0.085     1.929     2.172
    15   1 H        0.924     0.075     2.033     2.230
    16   1 H        0.924     0.113     1.674     2.024
    17   1 H        0.924     0.113     1.674     2.024
    18   1 H        0.925     0.097     1.817     2.108
    19   1 H        0.925     0.104     1.753     2.071
    20   1 H        0.925     0.125     1.570     1.959
    21   1 H        0.925     0.101     1.774     2.083
    22   1 H        0.925     0.107     1.720     2.051
    23   1 H        0.925     0.101     1.774     2.083
    24   1 H        0.925     0.097     1.814     2.106
    25   1 H        0.925     0.126     1.566     1.957
    26   1 H        0.925     0.104     1.753     2.071

Wiberg/Mayer (AO) data.
largest (>0.10) Wiberg bond orders for each atom

     #   Z sym  total        # sym  WBO       # sym  WBO       # sym  WBO
 ---------------------------------------------------------------------------
     1   6 C    3.985 --     2 C    1.014    13 H    0.984    11 H    0.984
                            12 H    0.977
     2   6 C    3.891 --     1 C    1.014    15 H    0.969    14 H    0.968
                             3 O    0.898
     3   8 O    2.366 --     4 C    1.218     2 C    0.898     5 O    0.195
     4   6 C    3.939 --     5 O    1.732     3 O    1.218     6 C    0.933
     5   8 O    2.061 --     4 C    1.732     3 O    0.195
     6   6 C    3.940 --     7 N    0.953    17 H    0.952    16 H    0.952
                             4 C    0.933
     7   7 N    3.821 --     9 C    0.955     6 C    0.953     8 C    0.950
                            10 C    0.950
     8   6 C    3.914 --    18 H    0.976    19 H    0.974    20 H    0.965
                             7 N    0.950
     9   6 C    3.923 --    23 H    0.975    21 H    0.975    22 H    0.973
                             7 N    0.955
    10   6 C    3.914 --    24 H    0.976    26 H    0.974    25 H    0.964
                             7 N    0.950
    11   1 H    0.996 --     1 C    0.984
    12   1 H    0.993 --     1 C    0.977
    13   1 H    0.996 --     1 C    0.984
    14   1 H    0.992 --     2 C    0.968
    15   1 H    0.994 --     2 C    0.969
    16   1 H    0.987 --     6 C    0.952
    17   1 H    0.987 --     6 C    0.952
    18   1 H    0.991 --     8 C    0.976
    19   1 H    0.989 --     8 C    0.974
    20   1 H    0.984 --     8 C    0.965
    21   1 H    0.990 --     9 C    0.975
    22   1 H    0.988 --     9 C    0.973
    23   1 H    0.990 --     9 C    0.975
    24   1 H    0.991 --    10 C    0.976
    25   1 H    0.984 --    10 C    0.964
    26   1 H    0.989 --    10 C    0.974
 ---------------------------------------------------------------------------

molecular dipole:
                 x           y           z       tot (Debye)
 q only:        4.163       4.930       6.053
   full:        4.236       4.888       6.252      22.865

           -------------------------------------------------
          | TOTAL ENERGY              -33.810513299448 Eh   |
          | GRADIENT NORM               0.000702302456 Eh/α |
          | HOMO-LUMO GAP               4.853583377241 eV   |
           -------------------------------------------------

 * finished run on 2024/12/20 at 02:07:08.444
