   * xtb version 6.7.1 (edcfbbe) compiled by 'conda@3ef47c1a292c' on 2024-11-25

   ID    Z sym.   atoms
    1   17 Cl     1
    2    6 C      2-8, 10, 11, 13-30
    3    7 N      9, 12, 32
    4    8 O      31
    5    1 H      33-59

          program call               : xtb C0119.xyz --opt --namespace C0119 --charge +1
          :  Hamiltonian                  GFN2-xTB          :
 * total energy  :   -88.6132668 Eh     change       -0.2773817E-08 Eh
 * total energy  :   -88.6257609 Eh     change       -0.1249409E-01 Eh
 * total energy  :   -88.6297074 Eh     change       -0.3946487E-02 Eh
 * total energy  :   -88.6307242 Eh     change       -0.1016872E-02 Eh
 * total energy  :   -88.6312538 Eh     change       -0.5295392E-03 Eh
 * total energy  :   -88.6314835 Eh     change       -0.2296786E-03 Eh
 * total energy  :   -88.6316299 Eh     change       -0.1464730E-03 Eh
 * total energy  :   -88.6317469 Eh     change       -0.1169796E-03 Eh
 * total energy  :   -88.6318671 Eh     change       -0.1202113E-03 Eh
 * total energy  :   -88.6320237 Eh     change       -0.1565443E-03 Eh
 * total energy  :   -88.6343313 Eh     change       -0.1494874E-04 Eh
 * total energy  :   -88.6343437 Eh     change       -0.1242588E-04 Eh
 * total energy  :   -88.6343536 Eh     change       -0.9870889E-05 Eh
 * total energy  :   -88.6343592 Eh     change       -0.5642787E-05 Eh
 * total energy  :   -88.6343657 Eh     change       -0.6460547E-05 Eh
 * total energy  :   -88.6343709 Eh     change       -0.5238731E-05 Eh
 * total energy  :   -88.6343766 Eh     change       -0.5682613E-05 Eh
 * total energy  :   -88.6343825 Eh     change       -0.5929620E-05 Eh
 * total energy  :   -88.6343867 Eh     change       -0.4168210E-05 Eh
   *** GEOMETRY OPTIMIZATION CONVERGED AFTER 49 ITERATIONS ***

 final structure:
================
59
 xtb: 6.7.1 (edcfbbe)
Cl          -1.36841663026321       -0.41792556234174       -0.43235101571655
C            0.25857068613377       -0.26463017846269        0.15107776386953
C            0.88462111212052       -1.39275023257187        0.65969828992493
C            2.18066093008079       -1.30600923477187        1.13460832894101
C            2.85141327240256       -0.09462902124651        1.10141354639604
C            2.22378797417332        1.02428261868910        0.58578529628138
C            0.92160481020026        0.95894412165682        0.10134922030859
C            0.27608593220726        2.19710563944949       -0.47451197787878
N            0.25481295477752        3.28583774614923        0.47494844825379
C            0.97870438140491        4.43723847319135        0.37447118901967
C            0.65459671467699        5.20570256772071        1.44191439846859
N           -0.25909630307636        4.51182764705949        2.18565619152665
C           -0.49705651258362        3.34461432112306        1.57959248650537
C           -1.36789460468891        2.24579344393554        2.03536689498857
C           -0.93477145576088        5.09470081852882        3.32157616469099
C           -1.88448242779561        6.22974184961520        2.90338217045411
C           -3.32529651273326        5.82316828258649        2.49493143991313
C           -3.85659648452531        4.78291417580796        3.46827182763248
C           -3.86285543243417        5.07629119492437        4.83130316569570
C           -4.32997619529577        4.15711004986587        5.75203559989927
C           -4.79852544121241        2.92343939166237        5.32967692770061
C           -4.80053107155572        2.62267010493126        3.97994275199271
C           -4.33380007462395        3.54504468376545        3.05561253053723
C           -4.20412235760361        7.07508872554253        2.49662884196743
C           -3.77104521953379        8.22470718943203        1.84187827564656
C           -4.56152149184777        9.35911952966408        1.80474431157922
C           -5.80604506894694        9.36334253785880        2.41109364618481
C           -6.25760870020137        8.21830677778307        3.04189865241638
C           -5.46711965094889        7.08163457574569        3.07919568137828
C           -3.33367773341807        5.28088933787291        1.05256986423451
O           -2.33691465173525        4.86578844878152        0.49060658890030
N           -4.53738180124090        5.29267989431273        0.46015256695064
H            0.35628992122176       -2.33274563160789        0.68006900421686
H            2.66545572759554       -2.18606655123618        1.52603620826055
H            3.86332120455754       -0.02374762440322        1.46725131499033
H            2.75177591013287        1.96607108534485        0.54876488895339
H            0.83766145352912        2.53228492190041       -1.34977670043438
H           -0.74780350740715        1.97325822768321       -0.78298557299944
H            1.64859972825614        4.62772726720319       -0.43831777843021
H            1.00319710106385        6.17675307669704        1.72645648821918
H           -1.99493050254568        1.90680724848861        1.21231819995225
H           -0.76180164112678        1.39752184969505        2.35644787409864
H           -2.01084020285943        2.55354457518109        2.85384009913498
H           -1.47156125306293        4.32025369953598        3.86909458955975
H           -0.16608507262534        5.51005068395261        3.97896150625293
H           -1.96335237751047        6.92347842913011        3.74053824953283
H           -1.42498459296485        6.76337188298542        2.07159921762622
H           -3.52036660253552        6.04079796556899        5.17409671068889
H           -4.33373488099749        4.40781599154938        6.80160292353625
H           -5.16587289303785        2.20677583951995        6.04719937343217
H           -5.17016583114589        1.66816800462490        3.63723339397026
H           -4.35335018868118        3.28973847259545        2.00688383164763
H           -2.81395986643245        8.24111611074767        1.34319839982493
H           -4.20358862076593       10.24129425816314        1.29650613130584
H           -6.42102658954175       10.24910277348526        2.38473450728091
H           -7.23095296757863        8.20270973774805        3.50776206981226
H           -5.84400846413802        6.19819443481547        3.57261856808561
H           -5.34456079052829        5.68731177098784        0.91284505314395
H           -4.61512714707849        4.99813158133426       -0.50001862026311

          :  Hamiltonian                  GFN2-xTB          :
         :: total energy             -88.634386693395 Eh    ::
         :: gradient norm              0.000503579572 Eh/a0 ::
         :: HOMO-LUMO gap              3.352265356023 eV    ::
         :: SCC energy               -90.061477907535 Eh    ::
         :: -> dispersion             -0.076899153876 Eh    ::
         :: repulsion energy           1.427091214140 Eh    ::

    * Orbital Energies and Occupations

         #    Occupation            Energy/Eh            Energy/eV
      -------------------------------------------------------------
         1        2.0000           -1.1538803             -31.3987
       ...           ...                  ...                  ...
        69        2.0000           -0.5276311             -14.3576
        70        2.0000           -0.5223987             -14.2152
        71        2.0000           -0.5196020             -14.1391
        72        2.0000           -0.5178959             -14.0927
        73        2.0000           -0.5161496             -14.0451
        74        2.0000           -0.5145596             -14.0019
        75        2.0000           -0.5069974             -13.7961
        76        2.0000           -0.5052544             -13.7487
        77        2.0000           -0.5016219             -13.6498
        78        2.0000           -0.4999118             -13.6033
        79        2.0000           -0.4942283             -13.4486
        80        2.0000           -0.4921872             -13.3931
        81        2.0000           -0.4839603             -13.1692 (HOMO)
        82                         -0.3607668              -9.8170 (LUMO)
        83                         -0.3444338              -9.3725
        84                         -0.3391962              -9.2300
        85                         -0.3304769              -8.9927
        86                         -0.3229823              -8.7888
        87                         -0.3208270              -8.7301
        88                         -0.3182167              -8.6591
        89                         -0.3125210              -8.5041
        90                         -0.3087365              -8.4011
        91                         -0.2376032              -6.4655
        92                         -0.2162975              -5.8858
       ...                                ...                  ...
       160                          0.5755477              15.6614
      -------------------------------------------------------------
                  HL-Gap            0.1231935 Eh            3.3523 eV

     #   Z          covCN         q      C6AA      α(0)
     1  17 Cl       0.961    -0.166   104.360    15.629
     2   6 C        2.889     0.089    26.010     8.361
     3   6 C        2.959    -0.034    28.852     8.810
     4   6 C        2.922    -0.021    28.540     8.761
     5   6 C        2.917    -0.028    28.697     8.785
     6   6 C        2.926    -0.036    28.899     8.816
     7   6 C        2.995    -0.007    28.176     8.707
     8   6 C        3.748    -0.030    21.183     6.565
     9   7 N        2.881     0.052    20.326     6.696
    10   6 C        3.047    -0.008    28.168     8.705
    11   6 C        3.061    -0.008    28.150     8.701
    12   7 N        2.872     0.050    20.372     6.704
    13   6 C        3.104     0.126    25.123     8.213
    14   6 C        3.755    -0.132    23.089     6.851
    15   6 C        3.741    -0.018    20.965     6.533
    16   6 C        3.807    -0.061    21.676     6.628
    17   6 C        3.910    -0.020    20.877     6.494
    18   6 C        2.973     0.002    27.973     8.675
    19   6 C        2.925    -0.037    28.931     8.821
    20   6 C        2.919    -0.028    28.696     8.784
    21   6 C        2.919    -0.028    28.699     8.785
    22   6 C        2.919    -0.031    28.769     8.796
    23   6 C        2.922    -0.047    29.175     8.858
    24   6 C        2.977    -0.003    28.100     8.695
    25   6 C        2.924    -0.040    28.999     8.831
    26   6 C        2.919    -0.026    28.652     8.778
    27   6 C        2.919    -0.026    28.649     8.777
    28   6 C        2.920    -0.027    28.682     8.782
    29   6 C        2.923    -0.042    29.040     8.837
    30   6 C        2.751     0.290    22.086     7.695
    31   8 O        0.859    -0.469    23.110     6.445
    32   7 N        2.638    -0.259    26.717     7.677
    33   1 H        0.926     0.073     2.048     2.238
    34   1 H        0.926     0.069     2.095     2.264
    35   1 H        0.926     0.063     2.159     2.298
    36   1 H        0.926     0.049     2.331     2.388
    37   1 H        0.924     0.094     1.841     2.122
    38   1 H        0.924     0.104     1.747     2.067
    39   1 H        0.926     0.094     1.838     2.120
    40   1 H        0.927     0.093     1.848     2.126
    41   1 H        0.925     0.106     1.733     2.059
    42   1 H        0.924     0.091     1.867     2.137
    43   1 H        0.925     0.087     1.912     2.163
    44   1 H        0.925     0.078     1.997     2.210
    45   1 H        0.924     0.078     2.000     2.212
    46   1 H        0.925     0.066     2.134     2.284
    47   1 H        0.925     0.064     2.147     2.292
    48   1 H        0.926     0.039     2.463     2.454
    49   1 H        0.926     0.047     2.360     2.402
    50   1 H        0.926     0.048     2.349     2.397
    51   1 H        0.926     0.042     2.416     2.431
    52   1 H        0.926     0.030     2.592     2.518
    53   1 H        0.926     0.030     2.593     2.518
    54   1 H        0.926     0.046     2.371     2.408
    55   1 H        0.926     0.049     2.333     2.389
    56   1 H        0.926     0.046     2.371     2.408
    57   1 H        0.926     0.036     2.509     2.477
    58   1 H        0.860     0.198     1.115     1.654
    59   1 H        0.860     0.203     1.089     1.634

Wiberg/Mayer (AO) data.
largest (>0.10) Wiberg bond orders for each atom

     #   Z sym  total        # sym  WBO       # sym  WBO       # sym  WBO
 ---------------------------------------------------------------------------
     1  17 Cl   1.128 --     2 C    0.975
     2   6 C    3.918 --     3 C    1.405     7 C    1.379     1 Cl   0.975
     3   6 C    3.987 --     4 C    1.443     2 C    1.405    33 H    0.965
                             6 C    0.109
     4   6 C    3.988 --     3 C    1.443     5 C    1.430    34 H    0.967
                             7 C    0.107
     5   6 C    3.990 --     6 C    1.447     4 C    1.430    35 H    0.968
     6   6 C    3.990 --     5 C    1.447     7 C    1.410    36 H    0.967
                             3 C    0.109
     7   6 C    3.983 --     6 C    1.410     2 C    1.379     8 C    0.991
                             4 C    0.107
     8   6 C    3.944 --     7 C    0.991     9 N    0.971    37 H    0.956
                            38 H    0.947
     9   7 N    3.695 --    13 C    1.326    10 C    1.205     8 C    0.971
    10   6 C    3.949 --    11 C    1.615     9 N    1.205    39 H    0.963
    11   6 C    3.949 --    10 C    1.615    12 N    1.201    40 H    0.963
    12   7 N    3.692 --    13 C    1.330    11 C    1.201    15 C    0.975
    13   6 C    3.954 --    12 N    1.330     9 N    1.326    14 C    1.047
    14   6 C    3.979 --    13 C    1.047    43 H    0.964    41 H    0.950
                            42 H    0.948
    15   6 C    3.948 --    16 C    0.988    12 N    0.975    45 H    0.963
                            44 H    0.959
    16   6 C    3.987 --    15 C    0.988    46 H    0.969    17 C    0.968
                            47 H    0.967
    17   6 C    3.988 --    18 C    0.973    16 C    0.968    24 C    0.960
                            30 C    0.925
    18   6 C    3.986 --    23 C    1.419    19 C    1.396    17 C    0.973
                            21 C    0.110
    19   6 C    3.991 --    20 C    1.453    18 C    1.396    48 H    0.967
                            22 C    0.112
    20   6 C    3.990 --    19 C    1.453    21 C    1.430    49 H    0.970
                            23 C    0.108
    21   6 C    3.990 --    22 C    1.447    20 C    1.430    50 H    0.970
                            18 C    0.110
    22   6 C    3.991 --    21 C    1.447    23 C    1.431    51 H    0.970
                            19 C    0.112
    23   6 C    3.991 --    22 C    1.431    18 C    1.419    52 H    0.965
                            20 C    0.108
    24   6 C    3.983 --    29 C    1.414    25 C    1.407    17 C    0.960
                            27 C    0.109
    25   6 C    3.991 --    26 C    1.449    24 C    1.407    53 H    0.967
                            28 C    0.112
    26   6 C    3.991 --    25 C    1.449    27 C    1.434    54 H    0.970
                            29 C    0.110
    27   6 C    3.989 --    28 C    1.443    26 C    1.434    55 H    0.970
                            24 C    0.109
    28   6 C    3.991 --    27 C    1.443    29 C    1.437    56 H    0.970
                            25 C    0.112
    29   6 C    3.991 --    28 C    1.437    24 C    1.414    57 H    0.965
                            26 C    0.110
    30   6 C    3.941 --    31 O    1.661    32 N    1.294    17 C    0.925
    31   8 O    1.975 --    30 C    1.661    32 N    0.197
    32   7 N    3.406 --    30 C    1.294    59 H    0.937    58 H    0.934
                            31 O    0.197
    33   1 H    0.994 --     3 C    0.965
    34   1 H    0.995 --     4 C    0.967
    35   1 H    0.995 --     5 C    0.968
    36   1 H    0.998 --     6 C    0.967
    37   1 H    0.991 --     8 C    0.956
    38   1 H    0.989 --     8 C    0.947
    39   1 H    0.990 --    10 C    0.963
    40   1 H    0.991 --    11 C    0.963
    41   1 H    0.989 --    14 C    0.950
    42   1 H    0.992 --    14 C    0.948
    43   1 H    0.992 --    14 C    0.964
    44   1 H    0.993 --    15 C    0.959
    45   1 H    0.993 --    15 C    0.963
    46   1 H    0.995 --    16 C    0.969
    47   1 H    0.995 --    16 C    0.967
    48   1 H    0.998 --    19 C    0.967
    49   1 H    0.997 --    20 C    0.970
    50   1 H    0.997 --    21 C    0.970
    51   1 H    0.998 --    22 C    0.970
    52   1 H    0.999 --    23 C    0.965
    53   1 H    0.999 --    25 C    0.967
    54   1 H    0.997 --    26 C    0.970
    55   1 H    0.997 --    27 C    0.970
    56   1 H    0.997 --    28 C    0.970
    57   1 H    0.999 --    29 C    0.965
    58   1 H    0.961 --    32 N    0.934
    59   1 H    0.958 --    32 N    0.937
 ---------------------------------------------------------------------------

molecular dipole:
                 x           y           z       tot (Debye)
 q only:       -1.590       7.317       3.667
   full:       -2.076       7.250       3.458      21.087

           -------------------------------------------------
          | TOTAL ENERGY              -88.634386693395 Eh   |
          | GRADIENT NORM               0.000503579572 Eh/α |
          | HOMO-LUMO GAP               3.352265356023 eV   |
           -------------------------------------------------

 * finished run on 2024/12/20 at 02:07:16.990
