   * xtb version 6.7.1 (edcfbbe) compiled by 'conda@3ef47c1a292c' on 2024-11-25

   ID    Z sym.   atoms
    1    6 C      1, 3, 5, 7, 8, 10-17, 19-24
    2    8 O      2, 4, 18
    3    7 N      6, 9
    4   35 Br     25
    5    1 H      26-43

          program call               : xtb C0117.xyz --opt --namespace C0117 --charge +1
          :  Hamiltonian                  GFN2-xTB          :
 * total energy  :   -71.6147595 Eh     change       -0.1673499E-08 Eh
 * total energy  :   -71.6267970 Eh     change       -0.1203755E-01 Eh
 * total energy  :   -71.6296548 Eh     change       -0.2857742E-02 Eh
 * total energy  :   -71.6303389 Eh     change       -0.6841221E-03 Eh
 * total energy  :   -71.6310912 Eh     change       -0.7523065E-03 Eh
 * total energy  :   -71.6317179 Eh     change       -0.6266331E-03 Eh
 * total energy  :   -71.6324702 Eh     change       -0.7523591E-03 Eh
 * total energy  :   -71.6332398 Eh     change       -0.7695434E-03 Eh
 * total energy  :   -71.6338477 Eh     change       -0.6079681E-03 Eh
 * total energy  :   -71.6342844 Eh     change       -0.4366569E-03 Eh
 * total energy  :   -71.6401302 Eh     change       -0.1306321E-04 Eh
 * total energy  :   -71.6401435 Eh     change       -0.1326106E-04 Eh
 * total energy  :   -71.6401532 Eh     change       -0.9714758E-05 Eh
 * total energy  :   -71.6401792 Eh     change       -0.2598901E-04 Eh
 * total energy  :   -71.6401919 Eh     change       -0.1266082E-04 Eh
 * total energy  :   -71.6402049 Eh     change       -0.1307968E-04 Eh
 * total energy  :   -71.6402170 Eh     change       -0.1207768E-04 Eh
 * total energy  :   -71.6402231 Eh     change       -0.6048230E-05 Eh
 * total energy  :   -71.6402271 Eh     change       -0.3999526E-05 Eh
   *** GEOMETRY OPTIMIZATION CONVERGED AFTER 52 ITERATIONS ***

 final structure:
================
43
 xtb: 6.7.1 (edcfbbe)
C            2.44703654574827       -1.86996099977416       -0.85191683701124
O            1.30064657471072       -1.93203126287273        0.00337035563393
C            1.48890494972375       -2.03467684797409        1.29674848991845
O            2.53459845648362       -2.06414219533483        1.88640343628793
C            0.13521932794959       -2.12032561867547        2.03594951876758
N            0.33337766069050       -1.81088585294361        3.42388835811181
C            0.87709244073939       -2.62975123159966        4.33670222607503
C            1.23097347301755       -4.03486615128209        4.07093466820698
N            1.06370695517775       -1.96589303882665        5.48466972199482
C            0.67498556097642       -0.64905609796420        5.29926534615885
C            0.20723284401673       -0.55088833452631        3.97847224337259
C           -0.25372832707738        0.65121719583158        3.45980364142523
C           -0.22484217021154        1.74792173828940        4.29743780563228
C            0.25649086101475        1.65743827589254        5.60445262355761
C            0.71616783040801        0.46564218361052        6.12814859748202
C            1.60341476452267       -2.51144204181950        6.70855591648029
C            0.71972461951659       -3.64376516174039        7.29910726394204
O            1.02371878270025       -4.79005274673292        7.06200057795091
C           -0.43026302079956       -3.28008094757938        8.12933682225074
C           -0.97037621010213       -1.99221345271116        8.20055815722786
C           -2.06278881016919       -1.73754878645724        9.00212871972008
C           -2.62483824559493       -2.76490466751863        9.75258220114440
C           -2.10636660851128       -4.05339730443845        9.69264391576777
C           -1.02241972575561       -4.30467957669956        8.88110885626987
Br          -4.11693636690091       -2.39924044452449       10.85971189781666
H            2.26905580069041       -1.07135047219166       -1.56904769978890
H            2.54283906506061       -2.82188527377248       -1.37370887354412
H            3.34515294283396       -1.67086521532309       -0.26688855758144
H           -0.57165964918718       -1.41885032107269        1.59264944835672
H           -0.25837019188211       -3.13331552404888        1.91785600544626
H            0.38568142165380       -4.57100816759093        3.64051728648795
H            2.05059498936649       -4.06673513975784        3.35118739103753
H            1.53691884467063       -4.55467009717613        4.97412287180489
H           -0.60959236635078        0.73696739256053        2.44640519219150
H           -0.57046926608441        2.70114834856494        3.93127984414753
H            0.27687399350945        2.54375718266858        6.21798911034369
H            1.10605236190610        0.42427927557496        7.13278136644980
H            2.58676437853403       -2.94931862638838        6.50823602564866
H            1.71785969689257       -1.70513891854605        7.43170095982754
H           -0.56425014807952       -1.18215753797663        7.61703260870588
H           -2.48344384529872       -0.74543864824730        9.05268375905729
H           -2.55069365684654       -4.84402597380563       10.27619140828846
H           -0.60305653365529       -5.29724891512214        8.81868732897709

          :  Hamiltonian                  GFN2-xTB          :
         :: total energy             -71.640227068804 Eh    ::
         :: gradient norm              0.000503259432 Eh/a0 ::
         :: HOMO-LUMO gap              2.307234553625 eV    ::
         :: SCC energy               -72.641865460085 Eh    ::
         :: -> dispersion             -0.048568780137 Eh    ::
         :: repulsion energy           1.001638391280 Eh    ::

    * Orbital Energies and Occupations

         #    Occupation            Energy/Eh            Energy/eV
      -------------------------------------------------------------
         1        2.0000           -0.9263970             -25.2085
       ...           ...                  ...                  ...
        52        2.0000           -0.5798477             -15.7785
        53        2.0000           -0.5731265             -15.5956
        54        2.0000           -0.5668347             -15.4244
        55        2.0000           -0.5650546             -15.3759
        56        2.0000           -0.5598389             -15.2340
        57        2.0000           -0.5534039             -15.0589
        58        2.0000           -0.5508419             -14.9892
        59        2.0000           -0.5465241             -14.8717
        60        2.0000           -0.5428768             -14.7724
        61        2.0000           -0.5366420             -14.6028
        62        2.0000           -0.5251959             -14.2913
        63        2.0000           -0.5027152             -13.6796
        64        2.0000           -0.4990700             -13.5804 (HOMO)
        65                         -0.4142807             -11.2732 (LUMO)
        66                         -0.4063135             -11.0564
        67                         -0.3627976              -9.8722
        68                         -0.3617578              -9.8439
        69                         -0.3537342              -9.6256
        70                         -0.3531217              -9.6089
        71                         -0.3288969              -8.9497
        72                         -0.2950301              -8.0282
        73                         -0.2370618              -6.4508
        74                         -0.2217390              -6.0338
        75                         -0.1759404              -4.7876
       ...                                ...                  ...
       123                          0.5468451              14.8804
      -------------------------------------------------------------
                  HL-Gap            0.0847893 Eh            2.3072 eV

     #   Z          covCN         q      C6AA      α(0)
     1   6 C        3.650     0.013    20.677     6.532
     2   8 O        1.704    -0.228    17.784     5.694
     3   6 C        2.715     0.360    20.895     7.483
     4   8 O        0.856    -0.399    21.662     6.240
     5   6 C        3.742    -0.048    21.504     6.616
     6   7 N        2.834     0.015    20.992     6.805
     7   6 C        3.065     0.133    25.026     8.203
     8   6 C        3.755    -0.145    23.360     6.892
     9   7 N        2.828     0.015    20.988     6.804
    10   6 C        3.092     0.039    27.015     8.519
    11   6 C        3.090     0.040    26.995     8.516
    12   6 C        2.909    -0.033    28.829     8.804
    13   6 C        2.926    -0.019    28.475     8.751
    14   6 C        2.925    -0.020    28.507     8.756
    15   6 C        2.910    -0.035    28.870     8.810
    16   6 C        3.738    -0.045    21.454     6.609
    17   6 C        2.819     0.224    23.299     7.909
    18   8 O        0.858    -0.338    20.477     6.067
    19   6 C        2.969    -0.019    28.481     8.754
    20   6 C        2.921    -0.030    28.745     8.792
    21   6 C        2.992    -0.031    28.767     8.798
    22   6 C        2.916     0.100    25.786     8.327
    23   6 C        2.987    -0.027    28.656     8.781
    24   6 C        2.929    -0.010    28.274     8.720
    25  35 Br       1.069    -0.100   187.774    22.094
    26   1 H        0.925     0.092     1.858     2.131
    27   1 H        0.925     0.087     1.904     2.158
    28   1 H        0.925     0.088     1.894     2.152
    29   1 H        0.925     0.109     1.707     2.043
    30   1 H        0.924     0.105     1.741     2.064
    31   1 H        0.925     0.093     1.846     2.125
    32   1 H        0.924     0.117     1.640     2.003
    33   1 H        0.925     0.120     1.613     1.986
    34   1 H        0.926     0.067     2.122     2.278
    35   1 H        0.926     0.079     1.984     2.203
    36   1 H        0.926     0.079     1.990     2.206
    37   1 H        0.926     0.066     2.132     2.283
    38   1 H        0.924     0.102     1.770     2.081
    39   1 H        0.925     0.093     1.851     2.128
    40   1 H        0.926     0.048     2.347     2.395
    41   1 H        0.926     0.073     2.055     2.242
    42   1 H        0.926     0.082     1.954     2.186
    43   1 H        0.926     0.087     1.910     2.161

Wiberg/Mayer (AO) data.
largest (>0.10) Wiberg bond orders for each atom

     #   Z sym  total        # sym  WBO       # sym  WBO       # sym  WBO
 ---------------------------------------------------------------------------
     1   6 C    3.891 --    28 H    0.976    26 H    0.974    27 H    0.972
                             2 O    0.930
     2   8 O    2.363 --     3 C    1.202     1 C    0.930     4 O    0.193
     3   6 C    3.933 --     4 O    1.742     2 O    1.202     5 C    0.919
     4   8 O    2.057 --     3 C    1.742     2 O    0.193
     5   6 C    3.955 --     6 N    0.996    29 H    0.954    30 H    0.943
                             3 C    0.919
     6   7 N    3.652 --     7 C    1.314    11 C    1.111     5 C    0.996
     7   6 C    3.950 --     9 N    1.330     6 N    1.314     8 C    1.054
     8   6 C    3.968 --     7 C    1.054    33 H    0.958    31 H    0.949
                            32 H    0.935
     9   7 N    3.657 --     7 C    1.330    10 C    1.110    16 C    0.977
    10   6 C    3.952 --    15 C    1.345    11 C    1.280     9 N    1.110
    11   6 C    3.951 --    12 C    1.348    10 C    1.280     6 N    1.111
    12   6 C    3.985 --    13 C    1.485    11 C    1.348    34 H    0.963
                            15 C    0.117
    13   6 C    3.983 --    12 C    1.485    14 C    1.387    35 H    0.966
    14   6 C    3.983 --    15 C    1.484    13 C    1.387    36 H    0.966
    15   6 C    3.984 --    14 C    1.484    10 C    1.345    37 H    0.960
                            12 C    0.117
    16   6 C    3.942 --     9 N    0.977    39 H    0.959    38 H    0.955
                            17 C    0.927
    17   6 C    3.921 --    18 O    1.821    19 C    1.074    16 C    0.927
    18   8 O    2.085 --    17 C    1.821
    19   6 C    3.987 --    20 C    1.355    24 C    1.346    17 C    1.074
    20   6 C    3.990 --    21 C    1.477    19 C    1.355    40 H    0.960
    21   6 C    3.988 --    20 C    1.477    22 C    1.379    41 H    0.965
    22   6 C    3.948 --    23 C    1.384    21 C    1.379    25 Br   1.035
    23   6 C    3.986 --    24 C    1.474    22 C    1.384    42 H    0.963
    24   6 C    3.982 --    23 C    1.474    19 C    1.346    43 H    0.961
    25  35 Br   1.191 --    22 C    1.035
    26   1 H    0.991 --     1 C    0.974
    27   1 H    0.992 --     1 C    0.972
    28   1 H    0.992 --     1 C    0.976
    29   1 H    0.988 --     5 C    0.954
    30   1 H    0.988 --     5 C    0.943
    31   1 H    0.989 --     8 C    0.949
    32   1 H    0.983 --     8 C    0.935
    33   1 H    0.985 --     8 C    0.958
    34   1 H    0.995 --    12 C    0.963
    35   1 H    0.993 --    13 C    0.966
    36   1 H    0.993 --    14 C    0.966
    37   1 H    0.995 --    15 C    0.960
    38   1 H    0.989 --    16 C    0.955
    39   1 H    0.991 --    16 C    0.959
    40   1 H    0.998 --    20 C    0.960
    41   1 H    0.994 --    21 C    0.965
    42   1 H    0.993 --    23 C    0.963
    43   1 H    0.992 --    24 C    0.961
 ---------------------------------------------------------------------------

molecular dipole:
                 x           y           z       tot (Debye)
 q only:        0.658      -2.867       7.972
   full:        0.739      -2.845       7.790      21.162

           -------------------------------------------------
          | TOTAL ENERGY              -71.640227068804 Eh   |
          | GRADIENT NORM               0.000503259432 Eh/α |
          | HOMO-LUMO GAP               2.307234553625 eV   |
           -------------------------------------------------

 * finished run on 2024/12/20 at 02:07:10.836
