   * xtb version 6.7.1 (edcfbbe) compiled by 'conda@3ef47c1a292c' on 2024-11-25

   ID    Z sym.   atoms
    1    6 C      1, 3-9, 11, 13, 14, 16-22
    2    8 O      2, 10
    3    7 N      12, 15
    4    1 H      23-39

          program call               : xtb C0112.xyz --opt --namespace C0112 --charge +1
          :  Hamiltonian                  GFN2-xTB          :
 * total energy  :   -60.7802506 Eh     change       -0.7619931E-09 Eh
 * total energy  :   -60.7876199 Eh     change       -0.7369350E-02 Eh
 * total energy  :   -60.7898652 Eh     change       -0.2245305E-02 Eh
 * total energy  :   -60.7902520 Eh     change       -0.3867725E-03 Eh
 * total energy  :   -60.7905733 Eh     change       -0.3212829E-03 Eh
 * total energy  :   -60.7908358 Eh     change       -0.2625324E-03 Eh
 * total energy  :   -60.7912042 Eh     change       -0.3683586E-03 Eh
 * total energy  :   -60.7916664 Eh     change       -0.4622604E-03 Eh
 * total energy  :   -60.7921721 Eh     change       -0.5056890E-03 Eh
 * total energy  :   -60.7925703 Eh     change       -0.3982034E-03 Eh
 * total energy  :   -60.8004468 Eh     change       -0.7552657E-05 Eh
 * total energy  :   -60.8004547 Eh     change       -0.7971869E-05 Eh
 * total energy  :   -60.8004632 Eh     change       -0.8468603E-05 Eh
 * total energy  :   -60.8004722 Eh     change       -0.9001900E-05 Eh
 * total energy  :   -60.8004817 Eh     change       -0.9489343E-05 Eh
 * total energy  :   -60.8004916 Eh     change       -0.9889912E-05 Eh
 * total energy  :   -60.8005017 Eh     change       -0.1014572E-04 Eh
 * total energy  :   -60.8005119 Eh     change       -0.1020255E-04 Eh
 * total energy  :   -60.8005163 Eh     change       -0.4359844E-05 Eh
   *** GEOMETRY OPTIMIZATION CONVERGED AFTER 152 ITERATIONS ***

 final structure:
================
39
 xtb: 6.7.1 (edcfbbe)
C            0.54228651813508       -3.80576588374749       -0.04274063910372
O           -0.07655622775088       -3.75104986798474       -1.30849886328545
C            0.30447204810364       -2.81581455744189       -2.19846605159138
C           -0.39175406814004       -2.82307610540570       -3.41734074454410
C           -0.09233758114628       -1.90913566508154       -4.40473884880616
C            0.89980515225221       -0.96750000502172       -4.20129059526650
C            1.60492286539743       -0.94348246298977       -2.99383603902792
C            1.30668478409400       -1.87626536736652       -1.99075094742691
C            2.63349608846525        0.07850822167578       -2.85623926995820
O            2.93337883080789        0.87338922069897       -3.71892062778498
C            3.41792031242208        0.14126349652907       -1.50938429274733
N            4.14126605833583        1.37638977788587       -1.47999454477177
C            3.91938439271368        2.43185327832272       -0.64391970682486
C            4.63961002320452        3.48314587857719       -1.11634895888712
N            5.27758094157514        3.06308254696778       -2.24881511421585
C            4.95627651075884        1.78590774435355       -2.45338440890719
C            6.08975538812862        3.86172612177539       -3.09159752149923
C            5.98508308039139        3.71891955001761       -4.47039119831590
C            6.76579516488423        4.51136263357020       -5.29277200306143
C            7.64046964479510        5.43640088290343       -4.74494117469668
C            7.73861943296228        5.57275524498522       -3.36945499854611
C            6.96372350461692        4.78705972774927       -2.53472078682846
H            0.05122948075011       -4.61986513654385        0.48634833931949
H            0.39599941329609       -2.87520765395273        0.51445017411469
H            1.61106385790366       -4.02482902560365       -0.12695916955738
H           -1.16344181460425       -3.56393865028739       -3.55181772038593
H           -0.63454905894967       -1.92817604060260       -5.33668037371594
H            1.14524344827731       -0.24202560843887       -4.96045199573702
H            1.85490094588643       -1.87691927877434       -1.06345629418689
H            2.74243801486883        0.10195530666624       -0.65586902148885
H            4.10068558059749       -0.71304143427492       -1.48102340967055
H            3.28179063815612        2.36454612239679        0.21349726864597
H            4.72010865565185        4.48476303784830       -0.74760178997638
H            5.33661950137059        1.17497007420160       -3.24713895920990
H            5.27998083135211        3.01787857805197       -4.89004087073377
H            6.68393473526509        4.41011849136879       -6.36327010415511
H            8.24420519293880        6.05401263942809       -5.39069135535996
H            8.42042720398889        6.29105677406639       -2.94270151506143
H            7.05092050826881        4.87882739334261       -1.46297586678914

          :  Hamiltonian                  GFN2-xTB          :
         :: total energy             -60.800516284750 Eh    ::
         :: gradient norm              0.000174233393 Eh/a0 ::
         :: HOMO-LUMO gap              2.261036994184 eV    ::
         :: SCC energy               -61.765115092464 Eh    ::
         :: -> dispersion             -0.038810700002 Eh    ::
         :: repulsion energy           0.964598807714 Eh    ::

    * Orbital Energies and Occupations

         #    Occupation            Energy/Eh            Energy/eV
      -------------------------------------------------------------
         1        2.0000           -0.8748432             -23.8057
       ...           ...                  ...                  ...
        43        2.0000           -0.5888461             -16.0233
        44        2.0000           -0.5693520             -15.4929
        45        2.0000           -0.5601093             -15.2413
        46        2.0000           -0.5563168             -15.1381
        47        2.0000           -0.5526257             -15.0377
        48        2.0000           -0.5486597             -14.9298
        49        2.0000           -0.5455257             -14.8445
        50        2.0000           -0.5444986             -14.8166
        51        2.0000           -0.5313185             -14.4579
        52        2.0000           -0.5309858             -14.4489
        53        2.0000           -0.5235716             -14.2471
        54        2.0000           -0.5219182             -14.2021
        55        2.0000           -0.4895053             -13.3201 (HOMO)
        56                         -0.4064137             -11.0591 (LUMO)
        57                         -0.3952024             -10.7540
        58                         -0.3603821              -9.8065
        59                         -0.3486418              -9.4870
        60                         -0.3333357              -9.0705
        61                         -0.3271879              -8.9032
        62                         -0.3058478              -8.3225
        63                         -0.2171801              -5.9098
        64                         -0.1960765              -5.3355
        65                         -0.1591057              -4.3295
        66                         -0.1119811              -3.0472
       ...                                ...                  ...
       105                          0.5610435              15.2668
      -------------------------------------------------------------
                  HL-Gap            0.0830916 Eh            2.2610 eV

     #   Z          covCN         q      C6AA      α(0)
     1   6 C        3.643     0.027    20.458     6.502
     2   8 O        1.706    -0.242    18.002     5.728
     3   6 C        2.861     0.158    24.579     8.126
     4   6 C        2.921    -0.033    28.810     8.802
     5   6 C        2.914    -0.019    28.485     8.752
     6   6 C        2.927    -0.021    28.532     8.760
     7   6 C        2.970    -0.018    28.454     8.750
     8   6 C        2.916    -0.071    29.762     8.946
     9   6 C        2.824     0.227    23.235     7.898
    10   8 O        0.857    -0.359    20.887     6.127
    11   6 C        3.743    -0.048    21.505     6.616
    12   7 N        2.869     0.067    20.076     6.655
    13   6 C        3.063    -0.009    28.173     8.704
    14   6 C        3.064    -0.004    28.056     8.686
    15   7 N        2.874     0.063    20.134     6.664
    16   6 C        3.089     0.063    26.496     8.437
    17   6 C        2.920     0.045    26.995     8.520
    18   6 C        2.920    -0.036    28.894     8.815
    19   6 C        2.921    -0.016    28.418     8.742
    20   6 C        2.919    -0.016    28.405     8.740
    21   6 C        2.921    -0.017    28.440     8.745
    22   6 C        2.920    -0.034    28.851     8.808
    23   1 H        0.925     0.083     1.944     2.180
    24   1 H        0.924     0.046     2.368     2.407
    25   1 H        0.924     0.048     2.350     2.398
    26   1 H        0.926     0.082     1.958     2.188
    27   1 H        0.926     0.071     2.071     2.250
    28   1 H        0.926     0.076     2.025     2.225
    29   1 H        0.926     0.042     2.423     2.434
    30   1 H        0.925     0.097     1.810     2.104
    31   1 H        0.924     0.098     1.799     2.097
    32   1 H        0.926     0.098     1.803     2.100
    33   1 H        0.926     0.104     1.752     2.070
    34   1 H        0.926     0.119     1.622     1.992
    35   1 H        0.926     0.063     2.170     2.303
    36   1 H        0.926     0.070     2.090     2.261
    37   1 H        0.926     0.071     2.080     2.255
    38   1 H        0.926     0.069     2.099     2.265
    39   1 H        0.926     0.056     2.242     2.342

Wiberg/Mayer (AO) data.
largest (>0.10) Wiberg bond orders for each atom

     #   Z sym  total        # sym  WBO       # sym  WBO       # sym  WBO
 ---------------------------------------------------------------------------
     1   6 C    3.935 --    23 H    0.977    24 H    0.976    25 H    0.976
                             2 O    0.975
     2   8 O    2.277 --     3 C    1.104     1 C    0.975
     3   6 C    3.944 --     8 C    1.393     4 C    1.309     2 O    1.104
     4   6 C    3.985 --     5 C    1.470     3 C    1.309    26 H    0.964
     5   6 C    3.988 --     4 C    1.470     6 C    1.430    27 H    0.966
     6   6 C    3.986 --     5 C    1.430     7 C    1.356    28 H    0.964
     7   6 C    3.981 --     6 C    1.356     8 C    1.339     9 C    1.089
     8   6 C    3.988 --     3 C    1.393     7 C    1.339    29 H    0.961
     9   6 C    3.931 --    10 O    1.795     7 C    1.089    11 C    0.918
    10   8 O    2.106 --     9 C    1.795
    11   6 C    3.947 --    12 N    0.998    30 H    0.957    31 H    0.943
                             9 C    0.918
    12   7 N    3.700 --    16 C    1.338    13 C    1.207    11 C    0.998
    13   6 C    3.946 --    14 C    1.605    12 N    1.207    32 H    0.963
    14   6 C    3.949 --    13 C    1.605    15 N    1.205    33 H    0.961
    15   7 N    3.714 --    16 C    1.342    14 C    1.205    17 C    0.990
    16   6 C    3.945 --    15 N    1.342    12 N    1.338    34 H    0.953
    17   6 C    3.935 --    22 C    1.388    18 C    1.385    15 N    0.990
                            20 C    0.102
    18   6 C    3.987 --    19 C    1.447    17 C    1.385    35 H    0.965
                            21 C    0.108
    19   6 C    3.988 --    18 C    1.447    20 C    1.435    36 H    0.967
                            22 C    0.108
    20   6 C    3.983 --    21 C    1.436    19 C    1.435    37 H    0.968
                            17 C    0.102
    21   6 C    3.988 --    22 C    1.446    20 C    1.436    38 H    0.967
                            18 C    0.108
    22   6 C    3.987 --    21 C    1.446    17 C    1.388    39 H    0.966
                            19 C    0.108
    23   1 H    0.993 --     1 C    0.977
    24   1 H    0.998 --     1 C    0.976
    25   1 H    0.998 --     1 C    0.976
    26   1 H    0.993 --     4 C    0.964
    27   1 H    0.993 --     5 C    0.966
    28   1 H    0.994 --     6 C    0.964
    29   1 H    0.998 --     8 C    0.961
    30   1 H    0.990 --    11 C    0.957
    31   1 H    0.989 --    11 C    0.943
    32   1 H    0.990 --    13 C    0.963
    33   1 H    0.989 --    14 C    0.961
    34   1 H    0.986 --    16 C    0.953
    35   1 H    0.996 --    18 C    0.965
    36   1 H    0.994 --    19 C    0.967
    37   1 H    0.995 --    20 C    0.968
    38   1 H    0.995 --    21 C    0.967
    39   1 H    0.997 --    22 C    0.966
 ---------------------------------------------------------------------------

molecular dipole:
                 x           y           z       tot (Debye)
 q only:        8.036       2.844      -3.686
   full:        8.105       2.722      -3.382      23.371

           -------------------------------------------------
          | TOTAL ENERGY              -60.800516284750 Eh   |
          | GRADIENT NORM               0.000174233393 Eh/α |
          | HOMO-LUMO GAP               2.261036994184 eV   |
           -------------------------------------------------

 * finished run on 2024/12/20 at 02:07:04.248
