   * xtb version 6.7.1 (edcfbbe) compiled by 'conda@3ef47c1a292c' on 2024-11-25

   ID    Z sym.   atoms
    1    6 C      1, 3, 4, 6, 8, 9, 11-14, 16, 17
    2    8 O      2, 15
    3    7 N      5, 7, 10
    4    1 H      18-45

          program call               : xtb C0113.xyz --opt --namespace C0113 --charge +1
          :  Hamiltonian                  GFN2-xTB          :
 * total energy  :   -56.4937006 Eh     change       -0.6116352E-10 Eh
 * total energy  :   -56.5062254 Eh     change       -0.1252483E-01 Eh
 * total energy  :   -56.5091348 Eh     change       -0.2909375E-02 Eh
 * total energy  :   -56.5096045 Eh     change       -0.4697233E-03 Eh
 * total energy  :   -56.5100830 Eh     change       -0.4784204E-03 Eh
 * total energy  :   -56.5102266 Eh     change       -0.1436814E-03 Eh
 * total energy  :   -56.5103423 Eh     change       -0.1157090E-03 Eh
 * total energy  :   -56.5104118 Eh     change       -0.6944192E-04 Eh
 * total energy  :   -56.5104618 Eh     change       -0.5004126E-04 Eh
 * total energy  :   -56.5104890 Eh     change       -0.2719811E-04 Eh
 * total energy  :   -56.5105811 Eh     change       -0.1128395E-04 Eh
 * total energy  :   -56.5105948 Eh     change       -0.1368410E-04 Eh
 * total energy  :   -56.5106070 Eh     change       -0.1223808E-04 Eh
 * total energy  :   -56.5106148 Eh     change       -0.7757770E-05 Eh
 * total energy  :   -56.5106217 Eh     change       -0.6911821E-05 Eh
 * total energy  :   -56.5106298 Eh     change       -0.8134005E-05 Eh
 * total energy  :   -56.5106380 Eh     change       -0.8165026E-05 Eh
 * total energy  :   -56.5106446 Eh     change       -0.6617495E-05 Eh
 * total energy  :   -56.5106467 Eh     change       -0.2105398E-05 Eh
   *** GEOMETRY OPTIMIZATION CONVERGED AFTER 22 ITERATIONS ***

 final structure:
================
45
 xtb: 6.7.1 (edcfbbe)
C            2.50043231005238       -2.09490495289325       -0.06949534232228
O            1.83177006790303       -0.94136927462986       -0.52942922648210
C            2.66908401601482       -0.05604180252816       -1.22695481313196
C            1.83809767347143        1.08348163961898       -1.83142625272791
N            1.26444953166721        1.92148226814014       -0.79367653090224
C            1.61776615777596        3.21129654828736       -0.65473592217953
N            1.73375166196070        3.74396498432491        0.57280114975711
C            1.41836829014749        5.12786442134601        0.85943418236061
C            2.10553269245730        2.95548154100144        1.72607137420504
N            1.87843989872737        3.96626663805484       -1.73277791555167
C            1.16375284092390        3.79951337554637       -2.98154973581657
C            2.87757649103628        5.01374142906572       -1.73938734381593
C            0.18710459923225        1.32841052518414       -0.00962877781623
C           -0.99910326754424        2.28722426302778        0.12849993235076
O           -1.24916426574197        2.85427151721194       -1.13811530854073
C           -2.48663103469839        3.53750534784962       -1.25727862322914
C           -2.52844856968303        4.87048755739151       -0.51736947363992
H            2.91910528536675       -2.66770468962314       -0.90328666430937
H            1.75574676662826       -2.69494926002111        0.44713148561103
H            3.30818926494959       -1.83414135885315        0.62350096899918
H            3.44068837273910        0.35353961663851       -0.55344753460000
H            3.18255633867338       -0.58051183420282       -2.04675224799261
H            2.50470016188912        1.67603604582212       -2.45458945618445
H            1.04635547415965        0.65250527781503       -2.44863152215072
H            0.77224298492988        5.16371739429407        1.73835887251005
H            2.31367800731709        5.71366798085233        1.07567168701481
H            0.88495656968516        5.57302317057472        0.02478784793025
H            1.24866972064654        2.74146187006598        2.36967870479212
H            2.56256444507542        2.02109448137022        1.41092720179752
H            2.83502396995864        3.51990374475801        2.30913322649380
H            0.81539326841922        4.78044480403612       -3.30965028829146
H            1.80052460572537        3.38802868275289       -3.76687701739193
H            0.29911798204164        3.16014247359864       -2.82529235247837
H            2.42912979232255        6.00853258690966       -1.76991599975131
H            3.52073633705115        4.93232681952263       -0.86784713707885
H            3.49354933682701        4.89573838877791       -2.63282435905603
H           -0.13137605393790        0.44275186108122       -0.55798278131139
H            0.51675024143925        0.99883277381038        0.97785886932465
H           -1.87134067713813        1.71792758453826        0.47710483051148
H           -0.79159592864553        3.07380876176696        0.86682830891396
H           -2.60352571345423        3.70321270523847       -2.33073598868196
H           -3.30157557397423        2.88932317880512       -0.91046416201064
H           -1.69779696788834        5.50144521761360       -0.82587398623051
H           -3.45662903799360        5.38018388616751       -0.75625040505716
H           -2.48636806651961        4.72816180988595        0.55976852615371

          :  Hamiltonian                  GFN2-xTB          :
         :: total energy             -56.510646736915 Eh    ::
         :: gradient norm              0.000193189781 Eh/a0 ::
         :: HOMO-LUMO gap              3.568322535429 eV    ::
         :: SCC energy               -57.189232295550 Eh    ::
         :: -> dispersion             -0.039681879000 Eh    ::
         :: repulsion energy           0.678585558635 Eh    ::

    * Orbital Energies and Occupations

         #    Occupation            Energy/Eh            Energy/eV
      -------------------------------------------------------------
         1        2.0000           -0.8401264             -22.8610
       ...           ...                  ...                  ...
        39        2.0000           -0.5969472             -16.2438
        40        2.0000           -0.5901846             -16.0597
        41        2.0000           -0.5844060             -15.9025
        42        2.0000           -0.5806795             -15.8011
        43        2.0000           -0.5775099             -15.7148
        44        2.0000           -0.5738575             -15.6155
        45        2.0000           -0.5621969             -15.2982
        46        2.0000           -0.5555665             -15.1177
        47        2.0000           -0.5417382             -14.7414
        48        2.0000           -0.5225257             -14.2186
        49        2.0000           -0.5178634             -14.0918
        50        2.0000           -0.5126455             -13.9498
        51        2.0000           -0.5079179             -13.8211 (HOMO)
        52                         -0.3767845             -10.2528 (LUMO)
        53                         -0.1809330              -4.9234
        54                         -0.1378999              -3.7524
        55                         -0.1287910              -3.5046
        56                         -0.0978644              -2.6630
        57                         -0.0839275              -2.2838
        58                         -0.0600996              -1.6354
        59                         -0.0472903              -1.2868
        60                         -0.0289751              -0.7885
        61                         -0.0263885              -0.7181
        62                         -0.0140361              -0.3819
       ...                                ...                  ...
        96                          0.3283865               8.9359
      -------------------------------------------------------------
                  HL-Gap            0.1311334 Eh            3.5683 eV

     #   Z          covCN         q      C6AA      α(0)
     1   6 C        3.653     0.030    20.366     6.480
     2   8 O        1.701    -0.314    19.236     5.921
     3   6 C        3.704     0.077    19.440     6.304
     4   6 C        3.747    -0.023    21.054     6.545
     5   7 N        2.743    -0.057    22.344     7.020
     6   6 C        2.783     0.186    24.014     8.027
     7   7 N        2.741    -0.050    22.215     7.000
     8   6 C        3.699    -0.067    21.948     6.700
     9   6 C        3.700    -0.067    21.961     6.702
    10   7 N        2.740    -0.052    22.256     7.007
    11   6 C        3.700    -0.075    22.107     6.724
    12   6 C        3.699    -0.069    21.997     6.708
    13   6 C        3.745    -0.026    21.101     6.552
    14   6 C        3.693     0.076    19.480     6.315
    15   8 O        1.700    -0.332    19.568     5.972
    16   6 C        3.692     0.075    19.496     6.318
    17   6 C        3.750    -0.119    22.853     6.818
    18   1 H        0.924     0.044     2.398     2.422
    19   1 H        0.925     0.074     2.046     2.237
    20   1 H        0.924     0.036     2.498     2.472
    21   1 H        0.923     0.027     2.632     2.537
    22   1 H        0.923     0.048     2.351     2.398
    23   1 H        0.925     0.070     2.085     2.258
    24   1 H        0.924     0.085     1.927     2.171
    25   1 H        0.924     0.079     1.985     2.203
    26   1 H        0.924     0.073     2.052     2.240
    27   1 H        0.925     0.076     2.020     2.222
    28   1 H        0.924     0.071     2.078     2.254
    29   1 H        0.925     0.075     2.036     2.231
    30   1 H        0.924     0.083     1.948     2.183
    31   1 H        0.924     0.081     1.972     2.196
    32   1 H        0.924     0.068     2.112     2.273
    33   1 H        0.925     0.097     1.809     2.104
    34   1 H        0.924     0.074     2.041     2.234
    35   1 H        0.925     0.073     2.055     2.242
    36   1 H        0.924     0.081     1.966     2.193
    37   1 H        0.925     0.105     1.741     2.063
    38   1 H        0.924     0.074     2.048     2.238
    39   1 H        0.923     0.048     2.351     2.398
    40   1 H        0.923     0.028     2.616     2.529
    41   1 H        0.924     0.059     2.216     2.328
    42   1 H        0.924     0.036     2.502     2.474
    43   1 H        0.925     0.043     2.413     2.429
    44   1 H        0.925     0.059     2.209     2.324
    45   1 H        0.925     0.044     2.396     2.421

Wiberg/Mayer (AO) data.
largest (>0.10) Wiberg bond orders for each atom

     #   Z sym  total        # sym  WBO       # sym  WBO       # sym  WBO
 ---------------------------------------------------------------------------
     1   6 C    3.940 --     2 O    0.983    20 H    0.978    19 H    0.978
                            18 H    0.977
     2   8 O    2.070 --     3 C    0.997     1 C    0.983
     3   6 C    3.962 --     2 O    0.997     4 C    0.988    21 H    0.964
                            22 H    0.961
     4   6 C    3.963 --     3 C    0.988     5 N    0.982    23 H    0.967
                            24 H    0.962
     5   7 N    3.501 --     6 C    1.261     4 C    0.982    13 C    0.971
     6   6 C    3.975 --    10 N    1.278     7 N    1.273     5 N    1.261
     7   7 N    3.521 --     6 C    1.273     9 C    0.994     8 C    0.989
     8   6 C    3.955 --     7 N    0.989    27 H    0.978    26 H    0.972
                            25 H    0.971
     9   6 C    3.956 --     7 N    0.994    29 H    0.978    30 H    0.971
                            28 H    0.968
    10   7 N    3.520 --     6 C    1.278    12 C    0.991    11 C    0.987
    11   6 C    3.949 --    10 N    0.987    32 H    0.971    33 H    0.971
                            31 H    0.970
    12   6 C    3.956 --    10 N    0.991    35 H    0.979    34 H    0.971
                            36 H    0.971
    13   6 C    3.955 --    14 C    0.995     5 N    0.971    37 H    0.960
                            38 H    0.958
    14   6 C    3.960 --    13 C    0.995    15 O    0.990    40 H    0.965
                            39 H    0.963
    15   8 O    2.067 --    14 C    0.990    16 C    0.967
    16   6 C    3.943 --    17 C    1.012    41 H    0.970    42 H    0.969
                            15 O    0.967
    17   6 C    3.994 --    16 C    1.012    43 H    0.986    45 H    0.986
                            44 H    0.983
    18   1 H    0.998 --     1 C    0.977
    19   1 H    0.994 --     1 C    0.978
    20   1 H    0.999 --     1 C    0.978
    21   1 H    0.999 --     3 C    0.964
    22   1 H    0.997 --     3 C    0.961
    23   1 H    0.995 --     4 C    0.967
    24   1 H    0.992 --     4 C    0.962
    25   1 H    0.993 --     8 C    0.971
    26   1 H    0.994 --     8 C    0.972
    27   1 H    0.994 --     8 C    0.978
    28   1 H    0.994 --     9 C    0.968
    29   1 H    0.994 --     9 C    0.978
    30   1 H    0.993 --     9 C    0.971
    31   1 H    0.993 --    11 C    0.970
    32   1 H    0.994 --    11 C    0.971
    33   1 H    0.991 --    11 C    0.971
    34   1 H    0.993 --    12 C    0.971
    35   1 H    0.995 --    12 C    0.979
    36   1 H    0.993 --    12 C    0.971
    37   1 H    0.989 --    13 C    0.960
    38   1 H    0.994 --    13 C    0.958
    39   1 H    0.998 --    14 C    0.963
    40   1 H    0.999 --    14 C    0.965
    41   1 H    0.997 --    16 C    0.970
    42   1 H    0.999 --    16 C    0.969
    43   1 H    0.998 --    17 C    0.986
    44   1 H    0.996 --    17 C    0.983
    45   1 H    0.998 --    17 C    0.986
 ---------------------------------------------------------------------------

molecular dipole:
                 x           y           z       tot (Debye)
 q only:        2.877       5.953      -1.018
   full:        2.940       5.929      -0.916      16.983

           -------------------------------------------------
          | TOTAL ENERGY              -56.510646736915 Eh   |
          | GRADIENT NORM               0.000193189781 Eh/α |
          | HOMO-LUMO GAP               3.568322535429 eV   |
           -------------------------------------------------

 * finished run on 2024/12/20 at 02:07:05.541
