   * xtb version 6.7.1 (edcfbbe) compiled by 'conda@3ef47c1a292c' on 2024-11-25

   ID    Z sym.   atoms
    1    6 C      1-4, 6-11
    2    7 N      5
    3    8 O      12, 13
    4    1 H      14-27

          program call               : xtb C0110.xyz --opt --namespace C0110 --charge +1
          :  Hamiltonian                  GFN2-xTB          :
 * total energy  :   -39.2056970 Eh     change       -0.3196732E-09 Eh
 * total energy  :   -39.2094944 Eh     change       -0.3797448E-02 Eh
 * total energy  :   -39.2105719 Eh     change       -0.1077495E-02 Eh
 * total energy  :   -39.2107730 Eh     change       -0.2010453E-03 Eh
 * total energy  :   -39.2108594 Eh     change       -0.8646555E-04 Eh
 * total energy  :   -39.2108925 Eh     change       -0.3302703E-04 Eh
 * total energy  :   -39.2109314 Eh     change       -0.3891143E-04 Eh
 * total energy  :   -39.2109853 Eh     change       -0.5396163E-04 Eh
 * total energy  :   -39.2110497 Eh     change       -0.6432179E-04 Eh
 * total energy  :   -39.2111098 Eh     change       -0.6012285E-04 Eh
 * total energy  :   -39.2113968 Eh     change       -0.6039885E-04 Eh
 * total energy  :   -39.2114652 Eh     change       -0.6841597E-04 Eh
 * total energy  :   -39.2115117 Eh     change       -0.4643953E-04 Eh
 * total energy  :   -39.2115286 Eh     change       -0.1696272E-04 Eh
 * total energy  :   -39.2115349 Eh     change       -0.6286992E-05 Eh
 * total energy  :   -39.2115413 Eh     change       -0.6365425E-05 Eh
 * total energy  :   -39.2115511 Eh     change       -0.9769791E-05 Eh
 * total energy  :   -39.2115596 Eh     change       -0.8584520E-05 Eh
 * total energy  :   -39.2115641 Eh     change       -0.4449688E-05 Eh
   *** GEOMETRY OPTIMIZATION CONVERGED AFTER 22 ITERATIONS ***

 final structure:
================
27
 xtb: 6.7.1 (edcfbbe)
C            1.39971924947086        0.12970761085543        0.01323567811725
C            0.52976324487805       -1.11924798884910       -0.06740481071636
C            0.82134081882078       -2.13134766424345        1.03995871473431
C            0.39587406325388       -1.66327129247985        2.44139381112706
N           -1.04850135380008       -1.55460286312082        2.51854927433648
C           -1.77973962927164       -2.64739130362263        2.77473386581455
C           -3.15874090966740       -2.60793308317451        2.76690001674273
C           -3.80042247516172       -1.41112329775819        2.47895233915422
C           -3.02355489558878       -0.28490092935496        2.21641073012892
C           -1.64265055682545       -0.39079177160440        2.24354678940029
C           -3.70702673139972        1.02339246714761        1.90816860207446
O           -4.89581378782931        1.12744037654674        1.84613316301378
O           -2.83670592061715        2.00703909164182        1.72090914952262
H            1.23066914633472        0.69585348467056        0.92658106719244
H            1.18566239981585        0.78439951578845       -0.82642643389257
H            2.45176122787283       -0.13887755724026       -0.03002753835160
H           -0.52875504433979       -0.84153724120500       -0.06125301541407
H            0.72124100949001       -1.61063785144682       -1.02206143963252
H            0.32116978901355       -3.07548301702513        0.81448279164032
H            1.89410920785693       -2.32268024186986        1.07288765484114
H            0.73860857993916       -2.38352052669739        3.18613175395423
H            0.84216776246493       -0.69302431470242        2.65978460748205
H           -1.24238912026979       -3.55968553086528        2.99034950077512
H           -3.72145630765665       -3.50225747006749        2.98225061943103
H           -4.87716459535718       -1.32641024084501        2.45503331189730
H           -1.02097157233313        0.47232855093595        2.05375663753651
H           -3.28993359909170        2.84558308858763        1.52739315909084

          :  Hamiltonian                  GFN2-xTB          :
         :: total energy             -39.211564084635 Eh    ::
         :: gradient norm              0.000388143873 Eh/a0 ::
         :: HOMO-LUMO gap              2.492879517625 eV    ::
         :: SCC energy               -39.762786135102 Eh    ::
         :: -> dispersion             -0.021730257796 Eh    ::
         :: repulsion energy           0.551222050467 Eh    ::

    * Orbital Energies and Occupations

         #    Occupation            Energy/Eh            Energy/eV
      -------------------------------------------------------------
         1        2.0000           -0.8908220             -24.2405
       ...           ...                  ...                  ...
        23        2.0000           -0.6564451             -17.8628
        24        2.0000           -0.6372635             -17.3408
        25        2.0000           -0.6357957             -17.3009
        26        2.0000           -0.6290109             -17.1163
        27        2.0000           -0.6263916             -17.0450
        28        2.0000           -0.6235212             -16.9669
        29        2.0000           -0.6172539             -16.7963
        30        2.0000           -0.6126730             -16.6717
        31        2.0000           -0.6016252             -16.3711
        32        2.0000           -0.5758315             -15.6692
        33        2.0000           -0.5725404             -15.5796
        34        2.0000           -0.5658213             -15.3968
        35        2.0000           -0.5600406             -15.2395 (HOMO)
        36                         -0.4684290             -12.7466 (LUMO)
        37                         -0.4511522             -12.2765
        38                         -0.3698519             -10.0642
        39                         -0.2916714              -7.9368
        40                         -0.1785689              -4.8591
        41                         -0.1050804              -2.8594
        42                         -0.0887551              -2.4151
        43                         -0.0693154              -1.8862
        44                         -0.0537464              -1.4625
        45                         -0.0382290              -1.0403
        46                         -0.0241495              -0.6571
       ...                                ...                  ...
        66                          0.5589134              15.2088
      -------------------------------------------------------------
                  HL-Gap            0.0916116 Eh            2.4929 eV

     #   Z          covCN         q      C6AA      α(0)
     1   6 C        3.752    -0.116    22.779     6.806
     2   6 C        3.800    -0.062    21.701     6.633
     3   6 C        3.802    -0.071    21.860     6.657
     4   6 C        3.760    -0.039    21.325     6.583
     5   7 N        2.750     0.118    19.215     6.510
     6   6 C        2.893     0.034    27.247     8.558
     7   6 C        2.915    -0.008    28.222     8.711
     8   6 C        2.926     0.016    27.654     8.624
     9   6 C        2.968     0.007    27.850     8.656
    10   6 C        2.893     0.035    27.208     8.552
    11   6 C        2.693     0.362    20.853     7.474
    12   8 O        0.857    -0.347    20.652     6.093
    13   8 O        1.660    -0.356    20.022     6.040
    14   1 H        0.925     0.032     2.552     2.498
    15   1 H        0.925     0.058     2.221     2.331
    16   1 H        0.925     0.056     2.244     2.343
    17   1 H        0.924     0.028     2.612     2.527
    18   1 H        0.924     0.066     2.130     2.282
    19   1 H        0.924     0.055     2.261     2.352
    20   1 H        0.925     0.086     1.921     2.167
    21   1 H        0.924     0.093     1.847     2.125
    22   1 H        0.925     0.100     1.781     2.087
    23   1 H        0.926     0.115     1.655     2.012
    24   1 H        0.926     0.116     1.647     2.007
    25   1 H        0.926     0.129     1.545     1.944
    26   1 H        0.926     0.131     1.529     1.934
    27   1 H        0.804     0.362     0.562     1.177

Wiberg/Mayer (AO) data.
largest (>0.10) Wiberg bond orders for each atom

     #   Z sym  total        # sym  WBO       # sym  WBO       # sym  WBO
 ---------------------------------------------------------------------------
     1   6 C    3.992 --     2 C    1.021    16 H    0.985    15 H    0.984
                            14 H    0.983
     2   6 C    3.993 --     1 C    1.021     3 C    1.010    17 H    0.971
                            18 H    0.969
     3   6 C    3.980 --     2 C    1.010    19 H    0.974     4 C    0.970
                            20 H    0.962
     4   6 C    3.929 --     3 C    0.970     5 N    0.964    21 H    0.962
                            22 H    0.959
     5   7 N    3.770 --    10 C    1.336     6 C    1.319     4 C    0.964
     6   6 C    3.957 --     7 C    1.466     5 N    1.319    23 H    0.953
     7   6 C    3.978 --     6 C    1.466     8 C    1.419    24 H    0.957
     8   6 C    3.959 --     7 C    1.419     9 C    1.393    25 H    0.953
     9   6 C    3.987 --    10 C    1.420     8 C    1.393    11 C    0.959
    10   6 C    3.953 --     9 C    1.420     5 N    1.336    26 H    0.945
    11   6 C    3.936 --    12 O    1.784    13 O    1.160     9 C    0.959
    12   8 O    2.096 --    11 C    1.784    13 O    0.193
    13   8 O    2.229 --    11 C    1.160    27 H    0.845    12 O    0.193
    14   1 H    0.999 --     1 C    0.983
    15   1 H    0.997 --     1 C    0.984
    16   1 H    0.997 --     1 C    0.985
    17   1 H    0.999 --     2 C    0.971
    18   1 H    0.994 --     2 C    0.969
    19   1 H    0.997 --     3 C    0.974
    20   1 H    0.991 --     3 C    0.962
    21   1 H    0.991 --     4 C    0.962
    22   1 H    0.990 --     4 C    0.959
    23   1 H    0.986 --     6 C    0.953
    24   1 H    0.986 --     7 C    0.957
    25   1 H    0.983 --     8 C    0.953
    26   1 H    0.983 --    10 C    0.945
    27   1 H    0.869 --    13 O    0.845
 ---------------------------------------------------------------------------

molecular dipole:
                 x           y           z       tot (Debye)
 q only:       -2.106      -2.605       4.182
   full:       -2.111      -2.534       4.246      13.664

           -------------------------------------------------
          | TOTAL ENERGY              -39.211564084635 Eh   |
          | GRADIENT NORM               0.000388143873 Eh/α |
          | HOMO-LUMO GAP               2.492879517625 eV   |
           -------------------------------------------------

 * finished run on 2024/12/20 at 02:06:59.825
