   * xtb version 6.7.1 (edcfbbe) compiled by 'conda@3ef47c1a292c' on 2024-11-25

   ID    Z sym.   atoms
    1    8 O      1
    2    6 C      2, 3, 5-10, 12, 14-20, 22-27
    3    7 N      4, 11, 13, 21
    4    1 H      28-48

          program call               : xtb C0118.xyz --opt --namespace C0118 --charge +1
          :  Hamiltonian                  GFN2-xTB          :
 * total energy  :   -73.2323089 Eh     change       -0.2921183E-09 Eh
 * total energy  :   -73.2406361 Eh     change       -0.8327242E-02 Eh
 * total energy  :   -73.2423757 Eh     change       -0.1739573E-02 Eh
 * total energy  :   -73.2428515 Eh     change       -0.4758603E-03 Eh
 * total energy  :   -73.2432319 Eh     change       -0.3804139E-03 Eh
 * total energy  :   -73.2433906 Eh     change       -0.1586933E-03 Eh
 * total energy  :   -73.2435454 Eh     change       -0.1547713E-03 Eh
 * total energy  :   -73.2436544 Eh     change       -0.1089597E-03 Eh
 * total energy  :   -73.2437555 Eh     change       -0.1011357E-03 Eh
 * total energy  :   -73.2438640 Eh     change       -0.1084854E-03 Eh
 * total energy  :   -73.2451116 Eh     change       -0.4090731E-04 Eh
 * total energy  :   -73.2451488 Eh     change       -0.3725686E-04 Eh
 * total energy  :   -73.2451689 Eh     change       -0.2004769E-04 Eh
 * total energy  :   -73.2452033 Eh     change       -0.3442125E-04 Eh
 * total energy  :   -73.2452202 Eh     change       -0.1693801E-04 Eh
 * total energy  :   -73.2452351 Eh     change       -0.1482936E-04 Eh
 * total energy  :   -73.2452472 Eh     change       -0.1216791E-04 Eh
 * total energy  :   -73.2452543 Eh     change       -0.7049854E-05 Eh
 * total energy  :   -73.2452591 Eh     change       -0.4785342E-05 Eh
   *** GEOMETRY OPTIMIZATION CONVERGED AFTER 36 ITERATIONS ***

 final structure:
================
48
 xtb: 6.7.1 (edcfbbe)
O            1.56941047888028       -0.47861069132035       -0.41161852008176
C            2.53934337254243        0.26482128588768       -0.36578350176033
C            3.90561596720568       -0.31007003541033        0.06240549804862
N            4.40647865069127       -1.27397882432292       -0.89618399708205
C            5.61903008098774       -1.19595019379940       -1.57314129662988
C            6.58268018890569       -0.20533454240960       -1.64528957453148
C            7.70099196183662       -0.46680050634261       -2.41788683933039
C            7.85656951026581       -1.67389207520726       -3.09257337261284
C            6.89693742398838       -2.66842252149581       -3.02609430500739
C            5.77409049834521       -2.40817762726378       -2.26082434153497
N            4.64460120275807       -3.17278311672853       -1.99817490438258
C            3.84913928282515       -2.47730887425927       -1.16833804790967
N            2.70142642482839       -2.88568996231548       -0.63623671269980
C            4.44899839796693       -4.52294878310471       -2.48443154807306
C            5.30785792730561       -5.50723292087830       -1.72233355057665
C            5.26896636669425       -5.53659672500107       -0.33355149747497
C            6.05914435973713       -6.43002194715175        0.36698726083257
C            6.89025821420788       -7.30361216941554       -0.31437341243252
C            6.92924693067472       -7.28097631201127       -1.69795263077460
C            6.14451727287921       -6.38229851489651       -2.40007947872125
N            2.54202550957421        1.56721022357233       -0.66001964282195
C            1.46066646149728        2.39154008431589       -1.05001010075951
C            0.15254006235817        1.93457923344015       -1.14451936883225
C           -0.84649866406714        2.81116862434323       -1.53186245284075
C           -0.55366148987073        4.13161559367660       -1.82586760054568
C            0.75229392477176        4.58457669859352       -1.72955165636879
C            1.75766182179628        3.71984182524855       -1.34218037843252
H            4.65992569827462        0.46697188184776        0.17866460118124
H            3.76267936750716       -0.80947546477738        1.02868940932049
H            6.48354987665346        0.73359297279734       -1.12521100577380
H            8.47190045344877        0.28286797062777       -2.49496399668712
H            8.74637400519156       -1.83810381014621       -3.67847151704733
H            7.02556444846001       -3.60531422027998       -3.54108101309415
H            2.04954163086330       -2.14773142615653       -0.33072960601400
H            2.30505433276661       -3.76350187658551       -0.92910720872916
H            3.39086118625520       -4.78442675268016       -2.39088924521820
H            4.70691411892593       -4.54023107572834       -3.54646333576213
H            4.61836332210038       -4.86187442862070        0.20581688890288
H            6.02134077005678       -6.44690989942809        1.44501194700074
H            7.50376616102315       -8.00207624061243        0.23259014607386
H            7.57286733329381       -7.96138988463763       -2.23350626225076
H            6.17553845501637       -6.37079007740400       -3.47993103955473
H            3.41610209206117        2.07246004948768       -0.58901028988434
H           -0.08461229686611        0.91002663433485       -0.91492735710313
H           -1.86197000941924        2.45376779727469       -1.60167365477590
H           -1.33857649716504        4.80702943793529       -2.12734212551693
H            0.98983447006532        5.61252002055826       -1.95470369555190
H            2.77602894190897        4.07513116644496       -1.26483566617179

          :  Hamiltonian                  GFN2-xTB          :
         :: total energy             -73.245259058201 Eh    ::
         :: gradient norm              0.000687162783 Eh/a0 ::
         :: HOMO-LUMO gap              3.105688580059 eV    ::
         :: SCC energy               -74.474235131896 Eh    ::
         :: -> dispersion             -0.053204345555 Eh    ::
         :: repulsion energy           1.228976073695 Eh    ::

    * Orbital Energies and Occupations

         #    Occupation            Energy/Eh            Energy/eV
      -------------------------------------------------------------
         1        2.0000           -0.8636032             -23.4998
       ...           ...                  ...                  ...
        55        2.0000           -0.5571416             -15.1606
        56        2.0000           -0.5532481             -15.0546
        57        2.0000           -0.5432106             -14.7815
        58        2.0000           -0.5304930             -14.4355
        59        2.0000           -0.5245931             -14.2749
        60        2.0000           -0.5228643             -14.2279
        61        2.0000           -0.5202773             -14.1575
        62        2.0000           -0.5159980             -14.0410
        63        2.0000           -0.5076925             -13.8150
        64        2.0000           -0.5063522             -13.7785
        65        2.0000           -0.5045999             -13.7309
        66        2.0000           -0.4989182             -13.5763
        67        2.0000           -0.4883501             -13.2887 (HOMO)
        68                         -0.3742182             -10.1830 (LUMO)
        69                         -0.3624277              -9.8622
        70                         -0.3441113              -9.3637
        71                         -0.3328849              -9.0583
        72                         -0.3268430              -8.8939
        73                         -0.3243763              -8.8267
        74                         -0.3168820              -8.6228
        75                         -0.2996524              -8.1540
        76                         -0.2186343              -5.9493
        77                         -0.2015061              -5.4833
        78                         -0.1820262              -4.9532
       ...                                ...                  ...
       129                          0.5785759              15.7439
      -------------------------------------------------------------
                  HL-Gap            0.1141320 Eh            3.1057 eV

     #   Z          covCN         q      C6AA      α(0)
     1   8 O        0.858    -0.426    22.209     6.318
     2   6 C        2.746     0.266    22.513     7.769
     3   6 C        3.740    -0.042    21.407     6.601
     4   7 N        2.821    -0.037    21.952     6.959
     5   6 C        3.075     0.036    27.109     8.537
     6   6 C        2.911    -0.040    28.991     8.829
     7   6 C        2.926    -0.024    28.607     8.771
     8   6 C        2.926    -0.024    28.606     8.771
     9   6 C        2.911    -0.035    28.883     8.813
    10   6 C        3.088     0.040    27.003     8.518
    11   7 N        2.819    -0.028    21.789     6.933
    12   6 C        2.980     0.201    23.730     7.991
    13   7 N        2.636    -0.261    26.780     7.686
    14   6 C        3.745    -0.012    20.852     6.514
    15   6 C        2.971    -0.002    28.066     8.690
    16   6 C        2.923    -0.038    28.952     8.824
    17   6 C        2.919    -0.024    28.603     8.770
    18   6 C        2.920    -0.022    28.556     8.763
    19   6 C        2.920    -0.022    28.553     8.763
    20   6 C        2.923    -0.034    28.855     8.809
    21   7 N        2.694    -0.134    23.909     7.262
    22   6 C        2.909     0.068    26.487     8.439
    23   6 C        2.919    -0.041    29.009     8.832
    24   6 C        2.922    -0.022    28.558     8.763
    25   6 C        2.919    -0.024    28.611     8.772
    26   6 C        2.920    -0.022    28.546     8.762
    27   6 C        2.925    -0.047    29.174     8.858
    28   1 H        0.925     0.080     1.974     2.197
    29   1 H        0.924     0.092     1.861     2.133
    30   1 H        0.926     0.052     2.289     2.366
    31   1 H        0.926     0.071     2.076     2.253
    32   1 H        0.926     0.072     2.062     2.246
    33   1 H        0.926     0.067     2.122     2.278
    34   1 H        0.859     0.268     0.817     1.416
    35   1 H        0.860     0.211     1.054     1.608
    36   1 H        0.924     0.065     2.140     2.288
    37   1 H        0.924     0.079     1.986     2.204
    38   1 H        0.925     0.025     2.658     2.550
    39   1 H        0.926     0.049     2.326     2.385
    40   1 H        0.926     0.055     2.256     2.349
    41   1 H        0.926     0.055     2.261     2.351
    42   1 H        0.926     0.040     2.443     2.444
    43   1 H        0.860     0.191     1.155     1.684
    44   1 H        0.926     0.074     2.040     2.233
    45   1 H        0.926     0.056     2.241     2.341
    46   1 H        0.926     0.056     2.240     2.341
    47   1 H        0.926     0.055     2.262     2.352
    48   1 H        0.925     0.037     2.496     2.470

Wiberg/Mayer (AO) data.
largest (>0.10) Wiberg bond orders for each atom

     #   Z sym  total        # sym  WBO       # sym  WBO       # sym  WBO
 ---------------------------------------------------------------------------
     1   8 O    2.050 --     2 C    1.621    21 N    0.187
     2   6 C    3.961 --     1 O    1.621    21 N    1.307     3 C    0.935
     3   6 C    3.954 --     4 N    0.979    28 H    0.965    29 H    0.952
                             2 C    0.935
     4   7 N    3.575 --    12 C    1.232     5 C    1.085     3 C    0.979
     5   6 C    3.949 --     6 C    1.371    10 C    1.285     4 N    1.085
     6   6 C    3.987 --     7 C    1.459     5 C    1.371    30 H    0.964
                             9 C    0.113
     7   6 C    3.981 --     6 C    1.459     8 C    1.412    31 H    0.967
     8   6 C    3.982 --     9 C    1.461     7 C    1.412    32 H    0.967
     9   6 C    3.986 --     8 C    1.461    10 C    1.371    33 H    0.964
                             6 C    0.113
    10   6 C    3.952 --     9 C    1.371     5 C    1.285    11 N    1.089
    11   7 N    3.601 --    12 C    1.265    10 C    1.089    14 C    0.966
    12   6 C    3.970 --    13 N    1.310    11 N    1.265     4 N    1.232
    13   7 N    3.359 --    12 C    1.310    35 H    0.927    34 H    0.839
    14   6 C    3.946 --    15 C    0.985    11 N    0.966    37 H    0.962
                            36 H    0.955
    15   6 C    3.981 --    20 C    1.418    16 C    1.413    14 C    0.985
                            18 C    0.110
    16   6 C    3.992 --    17 C    1.447    15 C    1.413    38 H    0.969
                            19 C    0.112
    17   6 C    3.991 --    16 C    1.447    18 C    1.437    39 H    0.970
                            20 C    0.111
    18   6 C    3.990 --    19 C    1.442    17 C    1.437    40 H    0.969
                            15 C    0.110
    19   6 C    3.990 --    18 C    1.442    20 C    1.440    41 H    0.969
                            16 C    0.112
    20   6 C    3.991 --    19 C    1.440    15 C    1.418    42 H    0.968
                            17 C    0.111
    21   7 N    3.542 --     2 C    1.307    22 C    1.026    43 H    0.927
                             1 O    0.187
    22   6 C    3.944 --    23 C    1.386    27 C    1.373    21 N    1.026
    23   6 C    3.986 --    24 C    1.442    22 C    1.386    44 H    0.961
                            26 C    0.107
    24   6 C    3.990 --    23 C    1.442    25 C    1.440    45 H    0.969
                            27 C    0.109
    25   6 C    3.990 --    24 C    1.440    26 C    1.429    46 H    0.969
    26   6 C    3.990 --    27 C    1.456    25 C    1.429    47 H    0.969
                            23 C    0.107
    27   6 C    3.988 --    26 C    1.456    22 C    1.373    48 H    0.965
                            24 C    0.109
    28   1 H    0.993 --     3 C    0.965
    29   1 H    0.990 --     3 C    0.952
    30   1 H    0.997 --     6 C    0.964
    31   1 H    0.995 --     7 C    0.967
    32   1 H    0.994 --     8 C    0.967
    33   1 H    0.995 --     9 C    0.964
    34   1 H    0.927 --    13 N    0.839
    35   1 H    0.955 --    13 N    0.927
    36   1 H    0.995 --    14 C    0.955
    37   1 H    0.993 --    14 C    0.962
    38   1 H    0.999 --    16 C    0.969
    39   1 H    0.997 --    17 C    0.970
    40   1 H    0.996 --    18 C    0.969
    41   1 H    0.997 --    19 C    0.969
    42   1 H    0.998 --    20 C    0.968
    43   1 H    0.963 --    21 N    0.927
    44   1 H    0.994 --    23 C    0.961
    45   1 H    0.996 --    24 C    0.969
    46   1 H    0.997 --    25 C    0.969
    47   1 H    0.997 --    26 C    0.969
    48   1 H    0.999 --    27 C    0.965
 ---------------------------------------------------------------------------

molecular dipole:
                 x           y           z       tot (Debye)
 q only:        8.377      -2.915      -2.659
   full:        8.456      -2.819      -2.619      23.614

           -------------------------------------------------
          | TOTAL ENERGY              -73.245259058201 Eh   |
          | GRADIENT NORM               0.000687162783 Eh/α |
          | HOMO-LUMO GAP               3.105688580059 eV   |
           -------------------------------------------------

 * finished run on 2024/12/20 at 02:07:13.031
