   * xtb version 6.7.1 (edcfbbe) compiled by 'conda@3ef47c1a292c' on 2024-11-25

   ID    Z sym.   atoms
    1    6 C      1, 3, 4, 6-9
    2    8 O      2
    3    7 N      5
    4    1 H      10-27

          program call               : xtb C0115.xyz --opt --namespace C0115 --charge +1
          :  Hamiltonian                  GFN2-xTB          :
 * total energy  :   -30.7393715 Eh     change       -0.6228973E-10 Eh
 * total energy  :   -30.7459739 Eh     change       -0.6602408E-02 Eh
 * total energy  :   -30.7476777 Eh     change       -0.1703851E-02 Eh
 * total energy  :   -30.7478053 Eh     change       -0.1275992E-03 Eh
 * total energy  :   -30.7479857 Eh     change       -0.1803905E-03 Eh
 * total energy  :   -30.7480741 Eh     change       -0.8841570E-04 Eh
 * total energy  :   -30.7482352 Eh     change       -0.1610883E-03 Eh
 * total energy  :   -30.7482979 Eh     change       -0.6266812E-04 Eh
 * total energy  :   -30.7483343 Eh     change       -0.3644998E-04 Eh
 * total energy  :   -30.7483597 Eh     change       -0.2539290E-04 Eh
 * total energy  :   -30.7485492 Eh     change       -0.3823327E-04 Eh
 * total energy  :   -30.7485905 Eh     change       -0.4137312E-04 Eh
 * total energy  :   -30.7486327 Eh     change       -0.4220515E-04 Eh
 * total energy  :   -30.7486757 Eh     change       -0.4293974E-04 Eh
 * total energy  :   -30.7486882 Eh     change       -0.1255760E-04 Eh
 * total energy  :   -30.7486962 Eh     change       -0.7926232E-05 Eh
 * total energy  :   -30.7487029 Eh     change       -0.6778295E-05 Eh
 * total energy  :   -30.7487093 Eh     change       -0.6356194E-05 Eh
 * total energy  :   -30.7487116 Eh     change       -0.2283470E-05 Eh
   *** GEOMETRY OPTIMIZATION CONVERGED AFTER 26 ITERATIONS ***

 final structure:
================
27
 xtb: 6.7.1 (edcfbbe)
C            1.25456278987190        0.73750507310433        1.56096529595372
O            0.94910437740146       -0.18213718069696        0.52993329903810
C            1.05756464945969       -1.52620795049488        0.93078919931663
C            0.44229970682477       -2.45897865562780       -0.11664830257992
N            0.98053234778288       -2.35411643362092       -1.50591784562283
C            2.47287687507346       -2.29457896691587       -1.53947986375687
C            3.18764082575634       -3.50267907561551       -0.95337019065797
C            0.49714579493588       -3.51502534497785       -2.27773771250585
C            0.46052230235264       -1.12758081952500       -2.14694094577849
H            0.56896110682617        0.62005083377447        2.40480048243430
H            1.13651379573610        1.72819728377582        1.12946876231666
H            2.28327769578839        0.60754253506015        1.91117584802472
H            2.10866803507926       -1.77835083638262        1.13538151129423
H            0.49680654177500       -1.69117676533558        1.86362453461942
H            0.57766668049979       -3.48323024252193        0.23370171389966
H           -0.62790172097290       -2.25095562322062       -0.17335768234279
H            2.76814961857760       -2.18509664065674       -2.58516915220210
H            2.77066558866628       -1.38728758948591       -1.01272452192121
H            3.03134162425891       -4.39987305552030       -1.54554688629894
H            4.25499119793817       -3.29509547235041       -0.96127036935724
H            2.90076222126782       -3.70257366322741        0.07478342308193
H           -0.59117263645613       -3.52154702868646       -2.29858614614161
H            0.86433763795077       -3.45819411710279       -3.30095907005804
H            0.83854479863081       -4.44623781201615       -1.83234219862951
H           -0.62478324538622       -1.17175275318012       -2.21038369911008
H            0.73688644868136       -0.25841937718206       -1.55399233993205
H            0.86510494168308       -1.03042032137090       -3.15227714308276

          :  Hamiltonian                  GFN2-xTB          :
         :: total energy             -30.748711579077 Eh    ::
         :: gradient norm              0.000342764449 Eh/a0 ::
         :: HOMO-LUMO gap              8.340366748440 eV    ::
         :: SCC energy               -31.128555861995 Eh    ::
         :: -> dispersion             -0.017900239650 Eh    ::
         :: repulsion energy           0.379844282919 Eh    ::

    * Orbital Energies and Occupations

         #    Occupation            Energy/Eh            Energy/eV
      -------------------------------------------------------------
         1        2.0000           -0.8640729             -23.5126
       ...           ...                  ...                  ...
        16        2.0000           -0.6668306             -18.1454
        17        2.0000           -0.6592121             -17.9381
        18        2.0000           -0.6531734             -17.7738
        19        2.0000           -0.6486273             -17.6500
        20        2.0000           -0.6381742             -17.3656
        21        2.0000           -0.6364830             -17.3196
        22        2.0000           -0.6292034             -17.1215
        23        2.0000           -0.6178295             -16.8120
        24        2.0000           -0.6080451             -16.5457
        25        2.0000           -0.6064308             -16.5018
        26        2.0000           -0.6018394             -16.3769
        27        2.0000           -0.5818033             -15.8317
        28        2.0000           -0.5381055             -14.6426 (HOMO)
        29                         -0.2316027              -6.3022 (LUMO)
        30                         -0.1698560              -4.6220
        31                         -0.1523233              -4.1449
        32                         -0.1460564              -3.9744
        33                         -0.1180581              -3.2125
        34                         -0.0635192              -1.7284
        35                         -0.0501544              -1.3648
        36                         -0.0420070              -1.1431
        37                         -0.0265708              -0.7230
        38                         -0.0107898              -0.2936
        39                          0.0027476               0.0748
       ...                                ...                  ...
        54                          0.1362263               3.7069
      -------------------------------------------------------------
                  HL-Gap            0.3065028 Eh            8.3404 eV

     #   Z          covCN         q      C6AA      α(0)
     1   6 C        3.651     0.026    20.455     6.496
     2   8 O        1.700    -0.319    19.329     5.936
     3   6 C        3.700     0.072    19.526     6.319
     4   6 C        3.760    -0.043    21.387     6.593
     5   7 N        3.621     0.136    18.931     6.462
     6   6 C        3.759    -0.037    21.282     6.577
     7   6 C        3.751    -0.130    23.051     6.847
     8   6 C        3.724    -0.098    22.478     6.770
     9   6 C        3.726    -0.106    22.626     6.792
    10   1 H        0.924     0.050     2.321     2.383
    11   1 H        0.925     0.079     1.989     2.206
    12   1 H        0.924     0.045     2.386     2.415
    13   1 H        0.923     0.048     2.343     2.394
    14   1 H        0.923     0.063     2.166     2.302
    15   1 H        0.924     0.092     1.858     2.131
    16   1 H        0.924     0.100     1.787     2.090
    17   1 H        0.924     0.087     1.908     2.160
    18   1 H        0.924     0.098     1.804     2.100
    19   1 H        0.925     0.068     2.108     2.270
    20   1 H        0.925     0.087     1.913     2.163
    21   1 H        0.925     0.063     2.169     2.303
    22   1 H        0.925     0.097     1.809     2.103
    23   1 H        0.925     0.101     1.775     2.083
    24   1 H        0.925     0.100     1.782     2.088
    25   1 H        0.925     0.097     1.814     2.106
    26   1 H        0.925     0.129     1.543     1.942
    27   1 H        0.925     0.094     1.837     2.120

Wiberg/Mayer (AO) data.
largest (>0.10) Wiberg bond orders for each atom

     #   Z sym  total        # sym  WBO       # sym  WBO       # sym  WBO
 ---------------------------------------------------------------------------
     1   6 C    3.933 --    12 H    0.979    10 H    0.978    11 H    0.977
                             2 O    0.974
     2   8 O    2.070 --     3 C    0.995     1 C    0.974
     3   6 C    3.959 --     4 C    1.003     2 O    0.995    13 H    0.960
                            14 H    0.957
     4   6 C    3.941 --     3 C    1.003    15 H    0.965    16 H    0.965
                             5 N    0.937
     5   7 N    3.812 --     8 C    0.959     9 C    0.953     4 C    0.937
                             6 C    0.925
     6   6 C    3.930 --     7 C    1.023    17 H    0.967    18 H    0.964
                             5 N    0.925
     7   6 C    3.982 --     6 C    1.023    19 H    0.981    21 H    0.980
                            20 H    0.973
     8   6 C    3.928 --    22 H    0.975    23 H    0.974    24 H    0.972
                             5 N    0.959
     9   6 C    3.916 --    27 H    0.975    25 H    0.975    26 H    0.960
                             5 N    0.953
    10   1 H    0.998 --     1 C    0.978
    11   1 H    0.993 --     1 C    0.977
    12   1 H    0.998 --     1 C    0.979
    13   1 H    0.998 --     3 C    0.960
    14   1 H    0.996 --     3 C    0.957
    15   1 H    0.991 --     4 C    0.965
    16   1 H    0.990 --     4 C    0.965
    17   1 H    0.992 --     6 C    0.967
    18   1 H    0.990 --     6 C    0.964
    19   1 H    0.995 --     7 C    0.981
    20   1 H    0.992 --     7 C    0.973
    21   1 H    0.996 --     7 C    0.980
    22   1 H    0.991 --     8 C    0.975
    23   1 H    0.989 --     8 C    0.974
    24   1 H    0.990 --     8 C    0.972
    25   1 H    0.990 --     9 C    0.975
    26   1 H    0.983 --     9 C    0.960
    27   1 H    0.991 --     9 C    0.975
 ---------------------------------------------------------------------------

molecular dipole:
                 x           y           z       tot (Debye)
 q only:        2.194      -4.374      -2.120
   full:        2.190      -4.443      -1.982      13.561

           -------------------------------------------------
          | TOTAL ENERGY              -30.748711579077 Eh   |
          | GRADIENT NORM               0.000342764449 Eh/α |
          | HOMO-LUMO GAP               8.340366748440 eV   |
           -------------------------------------------------

 * finished run on 2024/12/20 at 02:07:07.530
