   * xtb version 6.7.1 (edcfbbe) compiled by 'conda@3ef47c1a292c' on 2024-11-25

   ID    Z sym.   atoms
    1    6 C      1-4, 6, 8, 9, 11, 12
    2   16 S      5
    3    7 N      7, 10
    4    1 H      13-33

          program call               : xtb C0111.xyz --opt --namespace C0111 --charge +1
          :  Hamiltonian                  GFN2-xTB          :
 * total energy  :   -38.6729384 Eh     change       -0.1767049E-09 Eh
 * total energy  :   -38.6797227 Eh     change       -0.6784276E-02 Eh
 * total energy  :   -38.6817290 Eh     change       -0.2006337E-02 Eh
 * total energy  :   -38.6825941 Eh     change       -0.8651026E-03 Eh
 * total energy  :   -38.6839011 Eh     change       -0.1306970E-02 Eh
 * total energy  :   -38.6850427 Eh     change       -0.1141624E-02 Eh
 * total energy  :   -38.6862855 Eh     change       -0.1242793E-02 Eh
 * total energy  :   -38.6873760 Eh     change       -0.1090506E-02 Eh
 * total energy  :   -38.6881630 Eh     change       -0.7869455E-03 Eh
 * total energy  :   -38.6885727 Eh     change       -0.4097748E-03 Eh
 * total energy  :   -38.6906475 Eh     change       -0.5166930E-04 Eh
 * total energy  :   -38.6906788 Eh     change       -0.3130366E-04 Eh
 * total energy  :   -38.6906966 Eh     change       -0.1777409E-04 Eh
 * total energy  :   -38.6907152 Eh     change       -0.1858865E-04 Eh
 * total energy  :   -38.6907277 Eh     change       -0.1255064E-04 Eh
 * total energy  :   -38.6907406 Eh     change       -0.1289209E-04 Eh
 * total energy  :   -38.6907498 Eh     change       -0.9141499E-05 Eh
 * total energy  :   -38.6907590 Eh     change       -0.9267527E-05 Eh
 * total energy  :   -38.6907634 Eh     change       -0.4429032E-05 Eh
   *** GEOMETRY OPTIMIZATION CONVERGED AFTER 34 ITERATIONS ***

 final structure:
================
33
 xtb: 6.7.1 (edcfbbe)
C            1.04662456058877       -0.14402405704492        0.42549401947249
C           -0.24993294226638       -0.82709037621361        0.82774622344747
C           -0.26664366426970       -1.30872002885183        2.27606458260768
C           -1.58123451504169       -2.00077118191808        2.61520759279460
S            1.19378410844579        1.53453975637438        1.15647959598121
C            1.72423178084333        1.27294859070052        2.81271654158398
N            2.72934788726943        0.43929699439217        3.08206187215382
C            2.84298302588741       -0.29833241743170        4.32488801280556
C            3.80538156260089        0.18175157774838        2.14934877801527
N            1.11749412623585        1.99350445229040        3.74846190888209
C           -0.16734151575751        2.62277669161089        3.52673348320482
C            1.75269196320769        2.38304055788245        4.99225721992449
H            1.06060886943934        0.05628268509885       -0.64561913401795
H            1.91600515290797       -0.73799054417368        0.68956752718872
H           -1.08975435568671       -0.15190444215746        0.65219620509450
H           -0.38133440782297       -1.68808976775359        0.16864523634774
H            0.56105574355114       -2.00400156144564        2.43715498125186
H           -0.12872156306944       -0.45900421155716        2.95163596810976
H           -1.73150929221514       -2.86670214259663        1.97620972597632
H           -1.58065012106161       -2.33538073885975        3.64892116160019
H           -2.41936189342519       -1.32252305294295        2.47393458887397
H            3.04009561509663       -1.34406725795529        4.08137692129160
H            3.66953771668268        0.06195287744078        4.93928887746548
H            1.91709064165228       -0.25121031014634        4.88949594945852
H            3.81973095839053       -0.86381122953233        1.83513058239515
H            3.72610991451249        0.82784034091834        1.27850818854761
H            4.75390107764295        0.39107482103010        2.64882954300215
H           -0.71163759867684        2.64244131638913        4.46997555269594
H           -0.04609688777696        3.64679314581462        3.16911399374942
H           -0.74843732667555        2.06836198344272        2.79350137980450
H            1.33896675421613        1.84035737043698        5.84335734829232
H            2.82647367026740        2.22988332282586        4.94555175890435
H            1.56811095430769        3.44629683618391        5.14733381309404

          :  Hamiltonian                  GFN2-xTB          :
         :: total energy             -38.690763449497 Eh    ::
         :: gradient norm              0.000718875047 Eh/a0 ::
         :: HOMO-LUMO gap              2.981371440911 eV    ::
         :: SCC energy               -39.206769703713 Eh    ::
         :: -> dispersion             -0.028014673746 Eh    ::
         :: repulsion energy           0.516006254216 Eh    ::

    * Orbital Energies and Occupations

         #    Occupation            Energy/Eh            Energy/eV
      -------------------------------------------------------------
         1        2.0000           -0.8775884             -23.8804
       ...           ...                  ...                  ...
        24        2.0000           -0.6267623             -17.0551
        25        2.0000           -0.6228160             -16.9477
        26        2.0000           -0.6201155             -16.8742
        27        2.0000           -0.6177139             -16.8089
        28        2.0000           -0.6120257             -16.6541
        29        2.0000           -0.5994815             -16.3127
        30        2.0000           -0.5862029             -15.9514
        31        2.0000           -0.5694041             -15.4943
        32        2.0000           -0.5675492             -15.4438
        33        2.0000           -0.5519314             -15.0188
        34        2.0000           -0.5455782             -14.8459
        35        2.0000           -0.5400624             -14.6958
        36        2.0000           -0.5266770             -14.3316 (HOMO)
        37                         -0.4171136             -11.3502 (LUMO)
        38                         -0.3402880              -9.2597
        39                         -0.3032550              -8.2520
        40                         -0.1775399              -4.8311
        41                         -0.1725082              -4.6942
        42                         -0.1498887              -4.0787
        43                         -0.1233381              -3.3562
        44                         -0.1168679              -3.1801
        45                         -0.0617470              -1.6802
        46                         -0.0551385              -1.5004
        47                         -0.0406726              -1.1068
       ...                                ...                  ...
        74                          0.3437818               9.3548
      -------------------------------------------------------------
                  HL-Gap            0.1095634 Eh            2.9814 eV

     #   Z          covCN         q      C6AA      α(0)
     1   6 C        3.794    -0.024    21.007     6.527
     2   6 C        3.829    -0.068    21.775     6.640
     3   6 C        3.800    -0.051    21.486     6.600
     4   6 C        3.753    -0.112    22.696     6.793
     5  16 S        2.067    -0.064   143.705    20.176
     6   6 C        2.831     0.146    24.810     8.162
     7   7 N        2.765    -0.030    21.823     6.938
     8   6 C        3.701    -0.072    22.034     6.712
     9   6 C        3.702    -0.068    21.963     6.701
    10   7 N        2.792    -0.011    21.461     6.880
    11   6 C        3.708    -0.078    22.143     6.726
    12   6 C        3.702    -0.077    22.133     6.727
    13   1 H        0.925     0.082     1.955     2.187
    14   1 H        0.925     0.068     2.108     2.271
    15   1 H        0.924     0.059     2.212     2.326
    16   1 H        0.924     0.069     2.093     2.262
    17   1 H        0.924     0.033     2.547     2.496
    18   1 H        0.924     0.017     2.775     2.605
    19   1 H        0.925     0.051     2.307     2.375
    20   1 H        0.925     0.048     2.349     2.397
    21   1 H        0.925     0.046     2.375     2.410
    22   1 H        0.924     0.089     1.893     2.151
    23   1 H        0.924     0.080     1.976     2.198
    24   1 H        0.925     0.080     1.983     2.202
    25   1 H        0.924     0.077     2.013     2.219
    26   1 H        0.925     0.085     1.926     2.170
    27   1 H        0.924     0.086     1.914     2.164
    28   1 H        0.925     0.092     1.859     2.132
    29   1 H        0.924     0.089     1.884     2.146
    30   1 H        0.925     0.091     1.868     2.137
    31   1 H        0.924     0.085     1.931     2.173
    32   1 H        0.925     0.082     1.956     2.187
    33   1 H        0.924     0.097     1.809     2.104

Wiberg/Mayer (AO) data.
largest (>0.10) Wiberg bond orders for each atom

     #   Z sym  total        # sym  WBO       # sym  WBO       # sym  WBO
 ---------------------------------------------------------------------------
     1   6 C    3.953 --     2 C    1.013    14 H    0.964    13 H    0.963
                             5 S    0.957
     2   6 C    3.989 --     1 C    1.013     3 C    1.009    15 H    0.972
                            16 H    0.957
     3   6 C    3.998 --     4 C    1.017     2 C    1.009    17 H    0.978
                            18 H    0.970
     4   6 C    3.993 --     3 C    1.017    21 H    0.987    19 H    0.986
                            20 H    0.986
     5  16 S    2.372 --     6 C    1.108     1 C    0.957
     6   6 C    3.968 --    10 N    1.367     7 N    1.327     5 S    1.108
     7   7 N    3.555 --     6 C    1.327     9 C    0.990     8 C    0.982
                            10 N    0.123
     8   6 C    3.950 --     7 N    0.982    24 H    0.977    23 H    0.968
                            22 H    0.967
     9   6 C    3.950 --     7 N    0.990    26 H    0.975    25 H    0.967
                            27 H    0.965
    10   7 N    3.597 --     6 C    1.367    11 C    0.989    12 C    0.982
                             7 N    0.123
    11   6 C    3.944 --    10 N    0.989    28 H    0.971    30 H    0.970
                            29 H    0.965
    12   6 C    3.947 --    10 N    0.982    32 H    0.976    31 H    0.967
                            33 H    0.966
    13   1 H    0.992 --     1 C    0.963
    14   1 H    0.995 --     1 C    0.964
    15   1 H    0.996 --     2 C    0.972
    16   1 H    0.993 --     2 C    0.957
    17   1 H    0.999 --     3 C    0.978
    18   1 H    1.000 --     3 C    0.970
    19   1 H    0.997 --     4 C    0.986
    20   1 H    0.997 --     4 C    0.986
    21   1 H    0.998 --     4 C    0.987
    22   1 H    0.992 --     8 C    0.967
    23   1 H    0.993 --     8 C    0.968
    24   1 H    0.994 --     8 C    0.977
    25   1 H    0.993 --     9 C    0.967
    26   1 H    0.993 --     9 C    0.975
    27   1 H    0.992 --     9 C    0.965
    28   1 H    0.991 --    11 C    0.971
    29   1 H    0.991 --    11 C    0.965
    30   1 H    0.992 --    11 C    0.970
    31   1 H    0.992 --    12 C    0.967
    32   1 H    0.993 --    12 C    0.976
    33   1 H    0.990 --    12 C    0.966
 ---------------------------------------------------------------------------

molecular dipole:
                 x           y           z       tot (Debye)
 q only:        3.116       1.508       5.967
   full:        3.241       1.303       5.923      17.477

           -------------------------------------------------
          | TOTAL ENERGY              -38.690763449497 Eh   |
          | GRADIENT NORM               0.000718875047 Eh/α |
          | HOMO-LUMO GAP               2.981371440911 eV   |
           -------------------------------------------------

 * finished run on 2024/12/20 at 02:07:00.776
