   * xtb version 6.7.1 (edcfbbe) compiled by 'conda@3ef47c1a292c' on 2024-11-25

   ID    Z sym.   atoms
    1    6 C      1-9, 11-16
    2   15 P      10
    3    1 H      17-50

          program call               : xtb C0121.xyz --opt --namespace C0121 --charge +1
          :  Hamiltonian                  GFN2-xTB          :
 * total energy  :   -51.5951967 Eh     change       -0.2726068E-09 Eh
 * total energy  :   -51.6006473 Eh     change       -0.5450618E-02 Eh
 * total energy  :   -51.6021923 Eh     change       -0.1544975E-02 Eh
 * total energy  :   -51.6024285 Eh     change       -0.2362404E-03 Eh
 * total energy  :   -51.6026054 Eh     change       -0.1769438E-03 Eh
 * total energy  :   -51.6028031 Eh     change       -0.1976758E-03 Eh
 * total energy  :   -51.6031060 Eh     change       -0.3028469E-03 Eh
 * total energy  :   -51.6035419 Eh     change       -0.4359014E-03 Eh
 * total energy  :   -51.6040624 Eh     change       -0.5205843E-03 Eh
 * total energy  :   -51.6046089 Eh     change       -0.5464537E-03 Eh
 * total energy  :   -51.6073241 Eh     change       -0.1027094E-04 Eh
 * total energy  :   -51.6073338 Eh     change       -0.9764519E-05 Eh
 * total energy  :   -51.6073420 Eh     change       -0.8152808E-05 Eh
 * total energy  :   -51.6073504 Eh     change       -0.8440449E-05 Eh
 * total energy  :   -51.6073616 Eh     change       -0.1119048E-04 Eh
 * total energy  :   -51.6073743 Eh     change       -0.1264215E-04 Eh
 * total energy  :   -51.6073802 Eh     change       -0.5985623E-05 Eh
 * total energy  :   -51.6073901 Eh     change       -0.9858112E-05 Eh
 * total energy  :   -51.6073941 Eh     change       -0.3955495E-05 Eh
   *** GEOMETRY OPTIMIZATION CONVERGED AFTER 46 ITERATIONS ***

 final structure:
================
50
 xtb: 6.7.1 (edcfbbe)
C            0.77745157865682        1.51623903935516        0.08883349911002
C            0.19037793090551        0.32497055607717        0.85023082244421
C            0.66471600464326        0.29775660061455        2.30746567337610
C            0.29528645126575        1.53623888557344        3.12677402473540
C           -1.20943053481215        1.78433143963850        3.21195995470201
C           -1.57031971939826        2.95946841850703        4.12253236793349
C           -1.01082209328318        4.31533100518337        3.68247801244509
C           -1.37183672870867        4.73633352892222        2.25655956163832
C           -2.87272650043902        4.86261376560097        2.02450650854688
P            0.28767381955984        1.61849002615158       -1.66461072904313
C            1.22226721846415        0.44817640681307       -2.71644715316352
C            0.84732203877637       -1.02209820066430       -2.56725115333795
C           -1.49650700022590        1.28841573493945       -1.87260191089715
C           -2.38836769814102        2.34469463973773       -1.22766112583293
C            0.70883346094359        3.27438170642961       -2.33164610030093
C            0.60444247092653        4.42800116180486       -1.33824628150271
H            1.87151745376255        1.48993505376376        0.11968685932902
H            0.45092695682793        2.44650269936388        0.56027848832426
H           -0.89875766624568        0.37038905177539        0.83134177219055
H            0.49248327200402       -0.61030780359209        0.37729555054849
H            0.22728298056962       -0.58191262511746        2.78272176407902
H            1.74986345835321        0.17519176777782        2.32621173635008
H            0.67864466377152        1.39256469339844        4.13821270360671
H            0.79767372515122        2.41493695306074        2.72007387043922
H           -1.62296653209886        1.96710119946037        2.21844219868923
H           -1.69119500208578        0.88556929295601        3.60336995010501
H           -2.65744394987301        3.02513598040987        4.18656901489237
H           -1.20000372139985        2.75220145948522        5.12828244809975
H           -1.38872569299358        5.07287440565665        4.37134319009190
H            0.07696398259605        4.30890610015780        3.78066247646696
H           -0.90143423631716        5.70239288284458        2.05876451591328
H           -0.95022292698261        4.02249123610339        1.54253876309983
H           -3.30637092262020        5.54821375027449        2.74722862645983
H           -3.07478773640566        5.24894882614020        1.02716432555705
H           -3.37119464725121        3.90175789658092        2.12563580368679
H            1.05615915780504        0.77230161557352       -3.74947270440052
H            2.28265684423798        0.59526428447105       -2.48828824127827
H           -0.20647314312076       -1.18842641860193       -2.77558215488934
H            1.42412748495168       -1.61044253981694       -3.27681425132546
H            1.07207504996234       -1.39374728913430       -1.57158202858267
H           -1.68641663786169        1.23267277053530       -2.94906254214205
H           -1.69841840629557        0.30307035769291       -1.44384021491886
H           -2.27188631605081        3.30971352214288       -1.71441550390577
H           -3.43008251967358        2.04841490922202       -1.32433866425667
H           -2.17121291681492        2.45871138885732       -0.16814965871740
H            1.73092940873138        3.21158239892786       -2.71688919252719
H            0.04409625269425        3.44275405504558       -3.18468771284594
H            1.35175550443817        4.34130687090224       -0.55347270460393
H            0.78457016137141        5.36432162757191       -1.86114697716057
H           -0.38001408227222        4.48675491140706       -0.88166747722867

          :  Hamiltonian                  GFN2-xTB          :
         :: total energy             -51.607394052706 Eh    ::
         :: gradient norm              0.000345684647 Eh/a0 ::
         :: HOMO-LUMO gap              5.733716572069 eV    ::
         :: SCC energy               -52.372302439588 Eh    ::
         :: -> dispersion             -0.043011754879 Eh    ::
         :: repulsion energy           0.764908386882 Eh    ::

    * Orbital Energies and Occupations

         #    Occupation            Energy/Eh            Energy/eV
      -------------------------------------------------------------
         1        2.0000           -0.8507857             -23.1511
       ...           ...                  ...                  ...
        37        2.0000           -0.5773942             -15.7117
        38        2.0000           -0.5733793             -15.6024
        39        2.0000           -0.5709602             -15.5366
        40        2.0000           -0.5665139             -15.4156
        41        2.0000           -0.5562994             -15.1377
        42        2.0000           -0.5468397             -14.8803
        43        2.0000           -0.5446446             -14.8205
        44        2.0000           -0.5337821             -14.5250
        45        2.0000           -0.5305506             -14.4370
        46        2.0000           -0.5242549             -14.2657
        47        2.0000           -0.5081554             -13.8276
        48        2.0000           -0.5065348             -13.7835
        49        2.0000           -0.5025892             -13.6761 (HOMO)
        50                         -0.2918790              -7.9424 (LUMO)
        51                         -0.2830375              -7.7018
        52                         -0.2719965              -7.4014
        53                         -0.1956306              -5.3234
        54                         -0.1166425              -3.1740
        55                         -0.0787540              -2.1430
        56                         -0.0550154              -1.4970
        57                         -0.0437161              -1.1896
        58                         -0.0341277              -0.9287
        59                         -0.0289080              -0.7866
        60                         -0.0246268              -0.6701
       ...                                ...                  ...
       103                          0.7526647              20.4810
      -------------------------------------------------------------
                  HL-Gap            0.2107102 Eh            5.7337 eV

     #   Z          covCN         q      C6AA      α(0)
     1   6 C        3.751    -0.071    21.919     6.677
     2   6 C        3.854    -0.060    21.623     6.614
     3   6 C        3.801    -0.066    21.757     6.641
     4   6 C        3.801    -0.065    21.753     6.640
     5   6 C        3.801    -0.058    21.617     6.620
     6   6 C        3.801    -0.062    21.699     6.632
     7   6 C        3.800    -0.062    21.687     6.630
     8   6 C        3.799    -0.048    21.431     6.591
     9   6 C        3.751    -0.106    22.583     6.777
    10  15 P        3.943     0.182   152.401    22.176
    11   6 C        3.749    -0.073    21.966     6.684
    12   6 C        3.797    -0.116    22.723     6.787
    13   6 C        3.749    -0.068    21.861     6.668
    14   6 C        3.816    -0.114    22.665     6.776
    15   6 C        3.749    -0.073    21.968     6.685
    16   6 C        3.797    -0.117    22.748     6.791
    17   1 H        0.927     0.090     1.879     2.143
    18   1 H        0.927     0.103     1.758     2.073
    19   1 H        0.924     0.056     2.243     2.342
    20   1 H        0.924     0.047     2.356     2.400
    21   1 H        0.924     0.054     2.271     2.357
    22   1 H        0.924     0.042     2.424     2.435
    23   1 H        0.924     0.049     2.332     2.388
    24   1 H        0.924     0.032     2.556     2.500
    25   1 H        0.924     0.022     2.705     2.572
    26   1 H        0.924     0.035     2.510     2.478
    27   1 H        0.924     0.041     2.432     2.439
    28   1 H        0.924     0.039     2.467     2.456
    29   1 H        0.924     0.042     2.422     2.434
    30   1 H        0.924     0.030     2.588     2.516
    31   1 H        0.924     0.030     2.588     2.516
    32   1 H        0.924     0.007     2.946     2.684
    33   1 H        0.925     0.046     2.365     2.405
    34   1 H        0.925     0.028     2.618     2.530
    35   1 H        0.925     0.035     2.511     2.478
    36   1 H        0.927     0.089     1.885     2.147
    37   1 H        0.927     0.090     1.876     2.142
    38   1 H        0.925     0.061     2.186     2.312
    39   1 H        0.925     0.077     2.005     2.215
    40   1 H        0.925     0.063     2.169     2.303
    41   1 H        0.927     0.089     1.884     2.147
    42   1 H        0.927     0.094     1.844     2.123
    43   1 H        0.925     0.063     2.166     2.301
    44   1 H        0.925     0.075     2.034     2.230
    45   1 H        0.925     0.065     2.145     2.290
    46   1 H        0.927     0.088     1.899     2.155
    47   1 H        0.927     0.090     1.874     2.141
    48   1 H        0.925     0.062     2.172     2.305
    49   1 H        0.925     0.076     2.020     2.223
    50   1 H        0.925     0.066     2.129     2.282

Wiberg/Mayer (AO) data.
largest (>0.10) Wiberg bond orders for each atom

     #   Z sym  total        # sym  WBO       # sym  WBO       # sym  WBO
 ---------------------------------------------------------------------------
     1   6 C    3.984 --    10 P    1.012     2 C    0.984    17 H    0.931
                            18 H    0.920
     2   6 C    3.988 --     3 C    1.000     1 C    0.984    20 H    0.967
                            19 H    0.966
     3   6 C    3.990 --     4 C    1.007     2 C    1.000    22 H    0.976
                            21 H    0.973
     4   6 C    3.995 --     5 C    1.009     3 C    1.007    23 H    0.974
                            24 H    0.972
     5   6 C    3.998 --     4 C    1.009     6 C    1.006    26 H    0.977
                            25 H    0.970
     6   6 C    3.996 --     7 C    1.007     5 C    1.006    28 H    0.976
                            27 H    0.975
     7   6 C    3.996 --     8 C    1.007     6 C    1.007    29 H    0.976
                            30 H    0.976
     8   6 C    3.999 --     9 C    1.020     7 C    1.007    31 H    0.978
                            32 H    0.970
     9   6 C    3.996 --     8 C    1.020    34 H    0.987    33 H    0.986
                            35 H    0.986
    10  15 P    4.557 --     1 C    1.012    11 C    1.010    13 C    1.009
                            15 C    1.006
    11   6 C    3.989 --    10 P    1.010    12 C    1.004    37 H    0.936
                            36 H    0.934
    12   6 C    3.983 --    11 C    1.004    38 H    0.980    39 H    0.977
                            40 H    0.977
    13   6 C    3.989 --    10 P    1.009    14 C    1.001    41 H    0.935
                            42 H    0.933
    14   6 C    3.985 --    13 C    1.001    43 H    0.979    44 H    0.978
                            45 H    0.975
    15   6 C    3.987 --    10 P    1.006    16 C    1.003    46 H    0.938
                            47 H    0.935
    16   6 C    3.983 --    15 C    1.003    48 H    0.981    49 H    0.977
                            50 H    0.976
    17   1 H    0.992 --     1 C    0.931
    18   1 H    0.989 --     1 C    0.920
    19   1 H    0.997 --     2 C    0.966
    20   1 H    0.997 --     2 C    0.967
    21   1 H    0.996 --     3 C    0.973
    22   1 H    0.998 --     3 C    0.976
    23   1 H    0.997 --     4 C    0.974
    24   1 H    0.999 --     4 C    0.972
    25   1 H    1.000 --     5 C    0.970
    26   1 H    0.999 --     5 C    0.977
    27   1 H    0.998 --     6 C    0.975
    28   1 H    0.998 --     6 C    0.976
    29   1 H    0.998 --     7 C    0.976
    30   1 H    0.999 --     7 C    0.976
    31   1 H    0.999 --     8 C    0.978
    32   1 H    1.000 --     8 C    0.970
    33   1 H    0.998 --     9 C    0.986
    34   1 H    0.999 --     9 C    0.987
    35   1 H    0.999 --     9 C    0.986
    36   1 H    0.992 --    11 C    0.934
    37   1 H    0.991 --    11 C    0.936
    38   1 H    0.996 --    12 C    0.980
    39   1 H    0.993 --    12 C    0.977
    40   1 H    0.996 --    12 C    0.977
    41   1 H    0.992 --    13 C    0.935
    42   1 H    0.991 --    13 C    0.933
    43   1 H    0.996 --    14 C    0.979
    44   1 H    0.994 --    14 C    0.978
    45   1 H    0.996 --    14 C    0.975
    46   1 H    0.992 --    15 C    0.938
    47   1 H    0.991 --    15 C    0.935
    48   1 H    0.996 --    16 C    0.981
    49   1 H    0.994 --    16 C    0.977
    50   1 H    0.996 --    16 C    0.976
 ---------------------------------------------------------------------------

molecular dipole:
                 x           y           z       tot (Debye)
 q only:        0.206       3.168      -2.378
   full:        0.299       3.157      -2.547      10.338

           -------------------------------------------------
          | TOTAL ENERGY              -51.607394052706 Eh   |
          | GRADIENT NORM               0.000345684647 Eh/α |
          | HOMO-LUMO GAP               5.733716572069 eV   |
           -------------------------------------------------

 * finished run on 2024/12/20 at 02:07:19.841
