   * xtb version 6.7.1 (edcfbbe) compiled by 'conda@3ef47c1a292c' on 2024-11-25

   ID    Z sym.   atoms
    1    6 C      1-4, 6-12
    2    7 N      5
    3    1 H      13-28

          program call               : xtb C0120.xyz --opt --namespace C0120 --charge +1
          :  Hamiltonian                  GFN2-xTB          :
 * total energy  :   -34.2074115 Eh     change       -0.2236789E-10 Eh
 * total energy  :   -34.2112864 Eh     change       -0.3874824E-02 Eh
 * total energy  :   -34.2120340 Eh     change       -0.7476725E-03 Eh
 * total energy  :   -34.2122148 Eh     change       -0.1807590E-03 Eh
 * total energy  :   -34.2123481 Eh     change       -0.1333272E-03 Eh
 * total energy  :   -34.2124267 Eh     change       -0.7855063E-04 Eh
 * total energy  :   -34.2125283 Eh     change       -0.1016306E-03 Eh
 * total energy  :   -34.2126868 Eh     change       -0.1585080E-03 Eh
 * total energy  :   -34.2128704 Eh     change       -0.1835654E-03 Eh
 * total energy  :   -34.2130185 Eh     change       -0.1481200E-03 Eh
 * total energy  :   -34.2135234 Eh     change       -0.5145355E-05 Eh
 * total energy  :   -34.2135270 Eh     change       -0.3553067E-05 Eh
 * total energy  :   -34.2135337 Eh     change       -0.6746805E-05 Eh
 * total energy  :   -34.2135394 Eh     change       -0.5653428E-05 Eh
 * total energy  :   -34.2135535 Eh     change       -0.1413502E-04 Eh
 * total energy  :   -34.2135628 Eh     change       -0.9288380E-05 Eh
 * total energy  :   -34.2135720 Eh     change       -0.9146651E-05 Eh
 * total energy  :   -34.2135782 Eh     change       -0.6251994E-05 Eh
 * total energy  :   -34.2135817 Eh     change       -0.3468991E-05 Eh
   *** GEOMETRY OPTIMIZATION CONVERGED AFTER 28 ITERATIONS ***

 final structure:
================
28
 xtb: 6.7.1 (edcfbbe)
C           -0.54685733021575       -2.34153451400310       -6.53064760763070
C           -0.87409395641543       -1.35574820923165       -5.46436278366172
C            0.00436064799440       -0.84638226749347       -4.60575503141195
C           -0.36077181228664        0.17815510857348       -3.54898850848338
N           -0.11269923339528       -0.40227121407136       -2.21442556800811
C            0.53923482952823        0.29310437458832       -1.28015029641692
C            0.76168924152447       -0.23212013393570       -0.02304677107666
C            0.29216367415265       -1.50496681205276        0.27246257515642
C           -0.39147050947004       -2.20807364123524       -0.71170644158809
C           -0.57620979928986       -1.62693878821309       -1.94836424074737
C           -1.79612169643335        0.69734297394688       -3.57771185553216
C            1.45987878568697       -1.23200221692246       -4.60973465791637
H            0.33131469348476       -2.93219787858298       -6.28870474680956
H           -0.35430752772246       -1.81602903371247       -7.46616000596878
H           -1.39029003507216       -3.00623381699747       -6.69979915016264
H           -1.90512006949822       -1.03603485622658       -5.44388122448016
H            0.31830836779698        1.03210661537441       -3.65398693272476
H            0.88724866634482        1.28072291719840       -1.54702998585402
H            1.29674188027801        0.34950000161426        0.71029220756326
H            0.45600322298743       -1.93917964206412        1.24601608541693
H           -0.77484185610122       -3.19823190286965       -0.52454837387546
H           -1.08596912441037       -2.13626808961025       -2.75391033684267
H           -1.94058043397614        1.44172839866871       -2.79738200982709
H           -1.98958328983278        1.17087606420839       -4.53542484251862
H           -2.51531071800632       -0.10359608397905       -3.42812404005543
H            1.58845879999204       -2.28512388418538       -4.36102415146864
H            1.88727962803323       -1.07566810095304       -5.59764656718453
H            2.03478495432016       -0.64290536783713       -3.89868473789095

          :  Hamiltonian                  GFN2-xTB          :
         :: total energy             -34.213581672821 Eh    ::
         :: gradient norm              0.000381582429 Eh/a0 ::
         :: HOMO-LUMO gap              1.634457660355 eV    ::
         :: SCC energy               -34.806689144834 Eh    ::
         :: -> dispersion             -0.023067638894 Eh    ::
         :: repulsion energy           0.593107472013 Eh    ::

    * Orbital Energies and Occupations

         #    Occupation            Energy/Eh            Energy/eV
      -------------------------------------------------------------
         1        2.0000           -0.8739880             -23.7824
       ...           ...                  ...                  ...
        20        2.0000           -0.6242384             -16.9864
        21        2.0000           -0.6225944             -16.9417
        22        2.0000           -0.6206265             -16.8881
        23        2.0000           -0.6148498             -16.7309
        24        2.0000           -0.6092541             -16.5786
        25        2.0000           -0.6059723             -16.4893
        26        2.0000           -0.6010410             -16.3552
        27        2.0000           -0.5936718             -16.1546
        28        2.0000           -0.5860256             -15.9466
        29        2.0000           -0.5852998             -15.9268
        30        2.0000           -0.5674039             -15.4398
        31        2.0000           -0.5508546             -14.9895
        32        2.0000           -0.5144989             -14.0002 (HOMO)
        33                         -0.4544337             -12.3658 (LUMO)
        34                         -0.4250343             -11.5658
        35                         -0.3352062              -9.1214
        36                         -0.3038450              -8.2680
        37                         -0.1692845              -4.6065
        38                         -0.0884657              -2.4073
        39                         -0.0692334              -1.8839
        40                         -0.0442221              -1.2033
        41                         -0.0324573              -0.8832
        42                         -0.0280422              -0.7631
        43                         -0.0094456              -0.2570
       ...                                ...                  ...
        64                          0.5043299              13.7235
      -------------------------------------------------------------
                  HL-Gap            0.0600652 Eh            1.6345 eV

     #   Z          covCN         q      C6AA      α(0)
     1   6 C        3.756    -0.116    22.782     6.806
     2   6 C        2.892    -0.036    28.894     8.813
     3   6 C        2.942    -0.021    28.527     8.760
     4   6 C        3.807     0.013    20.358     6.423
     5   7 N        2.754     0.105    19.437     6.548
     6   6 C        2.889     0.034    27.237     8.556
     7   6 C        2.916    -0.011    28.288     8.722
     8   6 C        2.925     0.013    27.718     8.634
     9   6 C        2.916    -0.011    28.284     8.721
    10   6 C        2.892     0.037    27.163     8.545
    11   6 C        3.754    -0.124    22.943     6.830
    12   6 C        3.758    -0.120    22.858     6.816
    13   1 H        0.925     0.059     2.216     2.328
    14   1 H        0.925     0.074     2.044     2.236
    15   1 H        0.925     0.063     2.163     2.300
    16   1 H        0.926     0.052     2.298     2.371
    17   1 H        0.924     0.081     1.970     2.195
    18   1 H        0.926     0.105     1.742     2.064
    19   1 H        0.926     0.106     1.730     2.057
    20   1 H        0.926     0.105     1.736     2.061
    21   1 H        0.926     0.106     1.734     2.059
    22   1 H        0.926     0.112     1.678     2.026
    23   1 H        0.925     0.061     2.185     2.311
    24   1 H        0.925     0.088     1.903     2.157
    25   1 H        0.925     0.063     2.161     2.299
    26   1 H        0.925     0.054     2.268     2.355
    27   1 H        0.925     0.075     2.032     2.229
    28   1 H        0.925     0.034     2.529     2.487

Wiberg/Mayer (AO) data.
largest (>0.10) Wiberg bond orders for each atom

     #   Z sym  total        # sym  WBO       # sym  WBO       # sym  WBO
 ---------------------------------------------------------------------------
     1   6 C    3.991 --     2 C    1.049    13 H    0.978    15 H    0.975
                            14 H    0.951
     2   6 C    3.988 --     3 C    1.864     1 C    1.049    16 H    0.961
     3   6 C    3.971 --     2 C    1.864    12 C    1.019     4 C    0.977
     4   6 C    3.928 --    11 C    0.989     3 C    0.977    17 H    0.950
                             5 N    0.918
     5   7 N    3.763 --     6 C    1.338    10 C    1.332     4 C    0.918
     6   6 C    3.959 --     7 C    1.456     5 N    1.338    18 H    0.954
     7   6 C    3.981 --     6 C    1.456     8 C    1.426    19 H    0.959
     8   6 C    3.969 --     7 C    1.426     9 C    1.420    20 H    0.962
     9   6 C    3.982 --    10 C    1.463     8 C    1.420    21 H    0.960
    10   6 C    3.957 --     9 C    1.463     5 N    1.332    22 H    0.950
    11   6 C    3.983 --     4 C    0.989    23 H    0.982    25 H    0.981
                            24 H    0.973
    12   6 C    3.993 --     3 C    1.019    28 H    0.986    27 H    0.969
                            26 H    0.969
    13   1 H    0.996 --     1 C    0.978
    14   1 H    0.994 --     1 C    0.951
    15   1 H    0.995 --     1 C    0.975
    16   1 H    0.997 --     2 C    0.961
    17   1 H    0.993 --     4 C    0.950
    18   1 H    0.989 --     6 C    0.954
    19   1 H    0.988 --     7 C    0.959
    20   1 H    0.988 --     8 C    0.962
    21   1 H    0.988 --     9 C    0.960
    22   1 H    0.987 --    10 C    0.950
    23   1 H    0.996 --    11 C    0.982
    24   1 H    0.991 --    11 C    0.973
    25   1 H    0.996 --    11 C    0.981
    26   1 H    0.997 --    12 C    0.969
    27   1 H    0.994 --    12 C    0.969
    28   1 H    0.999 --    12 C    0.986
 ---------------------------------------------------------------------------

molecular dipole:
                 x           y           z       tot (Debye)
 q only:       -0.235      -1.516      -4.048
   full:       -0.183      -1.444      -3.969      10.746

           -------------------------------------------------
          | TOTAL ENERGY              -34.213581672821 Eh   |
          | GRADIENT NORM               0.000381582429 Eh/α |
          | HOMO-LUMO GAP               1.634457660355 eV   |
           -------------------------------------------------

 * finished run on 2024/12/20 at 02:07:17.733
