   * xtb version 6.7.1 (edcfbbe) compiled by 'conda@3ef47c1a292c' on 2024-11-25

   ID    Z sym.   atoms
    1    7 N      1, 5, 8
    2    6 C      2-4, 6, 7, 9-11, 13-18
    3    8 O      12
    4    1 H      19-32

          program call               : xtb C0128.xyz --opt --namespace C0128 --charge +1
          :  Hamiltonian                  GFN2-xTB          :
 * total energy  :   -49.4688637 Eh     change       -0.2026681E-09 Eh
 * total energy  :   -49.5046819 Eh     change       -0.3581828E-01 Eh
 * total energy  :   -49.5078957 Eh     change       -0.3213734E-02 Eh
 * total energy  :   -49.5088373 Eh     change       -0.9416338E-03 Eh
 * total energy  :   -49.5091469 Eh     change       -0.3095592E-03 Eh
 * total energy  :   -49.5094007 Eh     change       -0.2538137E-03 Eh
 * total energy  :   -49.5096244 Eh     change       -0.2237608E-03 Eh
 * total energy  :   -49.5099033 Eh     change       -0.2788547E-03 Eh
 * total energy  :   -49.5102513 Eh     change       -0.3480423E-03 Eh
 * total energy  :   -49.5104960 Eh     change       -0.2446922E-03 Eh
 * total energy  :   -49.5195613 Eh     change       -0.3342884E-04 Eh
 * total energy  :   -49.5195858 Eh     change       -0.2453488E-04 Eh
 * total energy  :   -49.5196028 Eh     change       -0.1698213E-04 Eh
 * total energy  :   -49.5196107 Eh     change       -0.7929807E-05 Eh
 * total energy  :   -49.5196178 Eh     change       -0.7065986E-05 Eh
 * total energy  :   -49.5196250 Eh     change       -0.7199582E-05 Eh
 * total energy  :   -49.5196310 Eh     change       -0.5968900E-05 Eh
 * total energy  :   -49.5196381 Eh     change       -0.7140443E-05 Eh
 * total energy  :   -49.5196418 Eh     change       -0.3732509E-05 Eh
   *** GEOMETRY OPTIMIZATION CONVERGED AFTER 63 ITERATIONS ***

 final structure:
================
32
 xtb: 6.7.1 (edcfbbe)
N            2.66443917368519       -0.89466652483592        1.99258011847742
C            3.16461144109972       -0.42106225906454        1.08272461443702
C            3.81999478835025        0.08970375355402       -0.09905003029391
C            4.81003572820143       -0.95693517200633       -0.64219756597266
N            4.11761558429003       -2.19208942465979       -0.92703682847692
C            3.87394852237351       -3.19424805963667       -0.03387219842447
C            3.07114927548907       -4.10014433723745       -0.65230131767980
N            2.84354127404751       -3.64494451014942       -1.91925578816797
C            3.47303515316891       -2.47895077235504       -2.05712227023541
C            1.85871918549904       -4.12258369313894       -2.84137014937987
C            0.79111096505907       -2.99657088901509       -3.00737551522480
O            1.06398779413106       -1.89379544958718       -2.58809443362797
C           -0.45549755095385       -3.34987710186302       -3.67038385158332
C           -1.46815377520396       -2.38041468134604       -3.68965053358844
C           -2.67554551866994       -2.64158884458890       -4.30335250652402
C           -2.88901913110380       -3.86910217821276       -4.91296447281307
C           -1.89038436993075       -4.83397849592609       -4.90751603256857
C           -0.68088907926641       -4.58499161260130       -4.29057588992060
H            3.05612482947468        0.32268112834395       -0.84635785065192
H            4.35494942948469        1.00724813638297        0.15386929073763
H            5.27431670921144       -0.58582620583697       -1.55825401028985
H            5.58772740771117       -1.15728437680272        0.09870722530411
H            4.26668139055282       -3.19090884247873        0.96223317673569
H            2.66036892546426       -5.01859137540458       -0.28616326548195
H            3.49921497061251       -1.88515682180295       -2.94945864624828
H            2.30156816110479       -4.31533749480267       -3.82276277160011
H            1.40921857542529       -5.03649583569049       -2.45466792630539
H           -1.28286358970281       -1.43168192000851       -3.20909429118892
H           -3.45057969983473       -1.89083616269710       -4.30853150780168
H           -3.83239278402411       -4.07531367884170       -5.39443279945188
H           -2.06013946178499       -5.78489616233636       -5.38701692561308
H            0.08286567603210       -5.34594013536376       -4.30929504659827

          :  Hamiltonian                  GFN2-xTB          :
         :: total energy             -49.519641844855 Eh    ::
         :: gradient norm              0.000983802587 Eh/a0 ::
         :: HOMO-LUMO gap              3.050995101571 eV    ::
         :: SCC energy               -50.342887287939 Eh    ::
         :: -> dispersion             -0.030334881078 Eh    ::
         :: repulsion energy           0.823245443084 Eh    ::

    * Orbital Energies and Occupations

         #    Occupation            Energy/Eh            Energy/eV
      -------------------------------------------------------------
         1        2.0000           -0.8874706             -24.1493
       ...           ...                  ...                  ...
        33        2.0000           -0.6094350             -16.5836
        34        2.0000           -0.6026358             -16.3986
        35        2.0000           -0.5996160             -16.3164
        36        2.0000           -0.5961414             -16.2218
        37        2.0000           -0.5898662             -16.0511
        38        2.0000           -0.5826415             -15.8545
        39        2.0000           -0.5772000             -15.7064
        40        2.0000           -0.5581858             -15.1890
        41        2.0000           -0.5407606             -14.7148
        42        2.0000           -0.5404099             -14.7053
        43        2.0000           -0.5352844             -14.5658
        44        2.0000           -0.5328030             -14.4983
        45        2.0000           -0.5280449             -14.3688 (HOMO)
        46                         -0.4159229             -11.3178 (LUMO)
        47                         -0.4006125             -10.9012
        48                         -0.3642832              -9.9127
        49                         -0.3442840              -9.3684
        50                         -0.3259630              -8.8699
        51                         -0.3193772              -8.6907
        52                         -0.3176991              -8.6450
        53                         -0.2077300              -5.6526
        54                         -0.1779348              -4.8419
        55                         -0.1281965              -3.4884
        56                         -0.0914588              -2.4887
       ...                                ...                  ...
        86                          1.0311319              28.0585
      -------------------------------------------------------------
                  HL-Gap            0.1121220 Eh            3.0510 eV

     #   Z          covCN         q      C6AA      α(0)
     1   7 N        0.911    -0.200    25.355     7.283
     2   6 C        1.899     0.112    28.336     8.597
     3   6 C        3.805    -0.065    21.746     6.639
     4   6 C        3.749    -0.015    20.913     6.522
     5   7 N        2.870     0.059    20.215     6.678
     6   6 C        3.063    -0.002    28.011     8.679
     7   6 C        3.065    -0.006    28.107     8.693
     8   7 N        2.871     0.072    19.984     6.640
     9   6 C        3.089     0.061    26.527     8.442
    10   6 C        3.744    -0.050    21.545     6.621
    11   6 C        2.823     0.228    23.211     7.894
    12   8 O        0.857    -0.361    20.910     6.131
    13   6 C        2.970    -0.016    28.405     8.742
    14   6 C        2.927    -0.008    28.214     8.711
    15   6 C        2.915    -0.017    28.427     8.743
    16   6 C        2.920    -0.005    28.143     8.700
    17   6 C        2.917    -0.018    28.455     8.747
    18   6 C        2.918    -0.026    28.643     8.776
    19   1 H        0.924     0.097     1.813     2.105
    20   1 H        0.924     0.107     1.723     2.053
    21   1 H        0.924     0.089     1.884     2.147
    22   1 H        0.924     0.096     1.823     2.112
    23   1 H        0.926     0.113     1.675     2.024
    24   1 H        0.926     0.107     1.725     2.054
    25   1 H        0.926     0.120     1.615     1.987
    26   1 H        0.924     0.103     1.762     2.076
    27   1 H        0.925     0.103     1.757     2.073
    28   1 H        0.926     0.074     2.043     2.235
    29   1 H        0.926     0.068     2.103     2.268
    30   1 H        0.926     0.070     2.081     2.256
    31   1 H        0.926     0.065     2.147     2.291
    32   1 H        0.926     0.044     2.390     2.418

Wiberg/Mayer (AO) data.
largest (>0.10) Wiberg bond orders for each atom

     #   Z sym  total        # sym  WBO       # sym  WBO       # sym  WBO
 ---------------------------------------------------------------------------
     1   7 N    3.021 --     2 C    2.869
     2   6 C    3.951 --     1 N    2.869     3 C    1.048
     3   6 C    3.988 --     2 C    1.048     4 C    0.967    19 H    0.943
                            20 H    0.938
     4   6 C    3.946 --     5 N    0.976     3 C    0.967    22 H    0.965
                            21 H    0.965
     5   7 N    3.701 --     9 C    1.347     6 C    1.215     4 C    0.976
     6   6 C    3.949 --     7 C    1.605     5 N    1.215    23 H    0.960
     7   6 C    3.946 --     6 C    1.605     8 N    1.208    24 H    0.961
     8   7 N    3.707 --     9 C    1.347     7 C    1.208    10 C    0.998
     9   6 C    3.946 --     5 N    1.347     8 N    1.347    25 H    0.953
    10   6 C    3.946 --     8 N    0.998    27 H    0.957    26 H    0.942
                            11 C    0.917
    11   6 C    3.929 --    12 O    1.795    13 C    1.089    10 C    0.917
    12   8 O    2.111 --    11 C    1.795
    13   6 C    3.981 --    18 C    1.348    14 C    1.344    11 C    1.089
    14   6 C    3.984 --    15 C    1.466    13 C    1.344    28 H    0.964
    15   6 C    3.988 --    14 C    1.466    16 C    1.426    29 H    0.966
                            18 C    0.101
    16   6 C    3.984 --    15 C    1.426    17 C    1.415    30 H    0.968
    17   6 C    3.989 --    18 C    1.475    16 C    1.415    31 H    0.968
    18   6 C    3.991 --    17 C    1.475    13 C    1.348    32 H    0.966
                            15 C    0.101
    19   1 H    0.991 --     3 C    0.943
    20   1 H    0.988 --     3 C    0.938
    21   1 H    0.992 --     4 C    0.965
    22   1 H    0.990 --     4 C    0.965
    23   1 H    0.987 --     6 C    0.960
    24   1 H    0.988 --     7 C    0.961
    25   1 H    0.986 --     9 C    0.953
    26   1 H    0.988 --    10 C    0.942
    27   1 H    0.989 --    10 C    0.957
    28   1 H    0.995 --    14 C    0.964
    29   1 H    0.994 --    15 C    0.966
    30   1 H    0.995 --    16 C    0.968
    31   1 H    0.995 --    17 C    0.968
    32   1 H    0.998 --    18 C    0.966
 ---------------------------------------------------------------------------

molecular dipole:
                 x           y           z       tot (Debye)
 q only:        4.854      -5.796      -4.486
   full:        5.123      -5.759      -4.961      23.299

           -------------------------------------------------
          | TOTAL ENERGY              -49.519641844855 Eh   |
          | GRADIENT NORM               0.000983802587 Eh/α |
          | HOMO-LUMO GAP               3.050995101571 eV   |
           -------------------------------------------------

 * finished run on 2024/12/20 at 02:07:35.699
