   * xtb version 6.7.1 (edcfbbe) compiled by 'conda@3ef47c1a292c' on 2024-11-25

   ID    Z sym.   atoms
    1    6 C      1, 3, 4, 6-8
    2    8 O      2
    3    7 N      5
    4    1 H      9-22

          program call               : xtb C0126.xyz --opt --namespace C0126 --charge +1
          :  Hamiltonian                  GFN2-xTB          :
 * total energy  :   -26.5218518 Eh     change       -0.8382983E-10 Eh
 * total energy  :   -26.5259882 Eh     change       -0.4136365E-02 Eh
 * total energy  :   -26.5270676 Eh     change       -0.1079404E-02 Eh
 * total energy  :   -26.5271606 Eh     change       -0.9305112E-04 Eh
 * total energy  :   -26.5271821 Eh     change       -0.2148685E-04 Eh
 * total energy  :   -26.5271878 Eh     change       -0.5633324E-05 Eh
 * total energy  :   -26.5271904 Eh     change       -0.2602052E-05 Eh
   *** GEOMETRY OPTIMIZATION CONVERGED AFTER 7 ITERATIONS ***

 final structure:
================
22
 xtb: 6.7.1 (edcfbbe)
C            0.35476778053444       -0.04403774705208       -0.12036227332610
O            0.12751597948414        1.24910156380834       -0.66128293104842
C            0.87993108709395        2.29645110195822       -0.37053895633410
C            1.93982274380628        2.48514343782601        0.43058686070184
N            2.48657977712425        3.86211773779350        0.43802996199524
C            3.86320973017240        3.92404811890364       -0.09702807778065
C            2.38563658315244        4.51041045564153        1.76273844230182
C            2.65568971157786        1.50656038842631        1.31798260924222
H           -0.41185927475987       -0.67362316020886       -0.56851915026376
H            0.23382472257261       -0.05133807999352        0.96236159932080
H            1.33683835346658       -0.42487573475146       -0.39909041679866
H            0.49928656944071        3.14561793692141       -0.93624520291284
H            1.89403643538840        4.40319421935525       -0.20218441916725
H            4.18722133451259        4.96001490938533       -0.17504257293519
H            4.54874357252194        3.39198767213219        0.55818937159399
H            3.89282528551803        3.46506566665761       -1.08331635202294
H            2.67792471974127        5.55610603223478        1.68844757632404
H            1.36022115233083        4.45058889567656        2.12198873458406
H            3.03812003345795        4.01685972169185        2.47896433233648
H            1.98649824990478        1.08516473886222        2.06400442869016
H            3.08536536572662        0.68826483491803        0.74526915690251
H            3.46962008723173        1.98474728981319        1.85318727859682

          :  Hamiltonian                  GFN2-xTB          :
         :: total energy             -26.527190362981 Eh    ::
         :: gradient norm              0.000373284015 Eh/a0 ::
         :: HOMO-LUMO gap              4.529958410537 eV    ::
         :: SCC energy               -26.877446111978 Eh    ::
         :: -> dispersion             -0.013391764442 Eh    ::
         :: repulsion energy           0.350255748997 Eh    ::

    * Orbital Energies and Occupations

         #    Occupation            Energy/Eh            Energy/eV
      -------------------------------------------------------------
         1        2.0000           -0.8728934             -23.7526
       ...           ...                  ...                  ...
        12        2.0000           -0.7019489             -19.1010
        13        2.0000           -0.6999348             -19.0462
        14        2.0000           -0.6695181             -18.2185
        15        2.0000           -0.6645741             -18.0840
        16        2.0000           -0.6592539             -17.9392
        17        2.0000           -0.6514713             -17.7274
        18        2.0000           -0.6419317             -17.4679
        19        2.0000           -0.6386101             -17.3775
        20        2.0000           -0.6267662             -17.0552
        21        2.0000           -0.6164707             -16.7750
        22        2.0000           -0.6096581             -16.5896
        23        2.0000           -0.5873778             -15.9834
        24        2.0000           -0.5318691             -14.4729 (HOMO)
        25                         -0.3653962              -9.9429 (LUMO)
        26                         -0.2382719              -6.4837
        27                         -0.1589965              -4.3265
        28                         -0.1390646              -3.7841
        29                         -0.1219525              -3.3185
        30                         -0.0978371              -2.6623
        31                         -0.0652956              -1.7768
        32                         -0.0440296              -1.1981
        33                         -0.0048660              -0.1324
        34                          0.0095101               0.2588
        35                          0.0307440               0.8366
       ...                                ...                  ...
        46                          0.4815511              13.1037
      -------------------------------------------------------------
                  HL-Gap            0.1664729 Eh            4.5300 eV

     #   Z          covCN         q      C6AA      α(0)
     1   6 C        3.637     0.009    20.809     6.562
     2   8 O        1.704    -0.200    17.335     5.621
     3   6 C        2.783     0.092    25.944     8.343
     4   6 C        2.877    -0.023    28.576     8.763
     5   7 N        3.584     0.053    20.308     6.693
     6   6 C        3.696    -0.093    22.453     6.778
     7   6 C        3.695    -0.093    22.451     6.778
     8   6 C        3.753    -0.125    22.958     6.832
     9   1 H        0.925     0.098     1.805     2.101
    10   1 H        0.925     0.067     2.123     2.279
    11   1 H        0.925     0.066     2.130     2.282
    12   1 H        0.925     0.072     2.066     2.248
    13   1 H        0.859     0.223     0.997     1.564
    14   1 H        0.925     0.102     1.771     2.081
    15   1 H        0.925     0.110     1.700     2.039
    16   1 H        0.925     0.103     1.761     2.075
    17   1 H        0.925     0.101     1.773     2.082
    18   1 H        0.925     0.103     1.756     2.072
    19   1 H        0.925     0.109     1.702     2.040
    20   1 H        0.925     0.081     1.973     2.197
    21   1 H        0.925     0.080     1.977     2.199
    22   1 H        0.925     0.066     2.126     2.280

Wiberg/Mayer (AO) data.
largest (>0.10) Wiberg bond orders for each atom

     #   Z sym  total        # sym  WBO       # sym  WBO       # sym  WBO
 ---------------------------------------------------------------------------
     1   6 C    3.916 --    11 H    0.976    10 H    0.976     9 H    0.975
                             2 O    0.954
     2   8 O    2.348 --     3 C    1.176     1 C    0.954     4 C    0.166
     3   6 C    3.950 --     4 C    1.718     2 O    1.176    12 H    0.938
     4   6 C    3.868 --     3 C    1.718     8 C    1.021     5 N    0.910
                             2 O    0.166
     5   7 N    3.772 --     7 C    0.954     6 C    0.953     4 C    0.910
                            13 H    0.910
     6   6 C    3.919 --    16 H    0.976    14 H    0.975    15 H    0.972
                             5 N    0.953
     7   6 C    3.919 --    18 H    0.976    17 H    0.975    19 H    0.972
                             5 N    0.954
     8   6 C    3.985 --     4 C    1.021    22 H    0.972    20 H    0.966
                            21 H    0.966
     9   1 H    0.990 --     1 C    0.975
    10   1 H    0.995 --     1 C    0.976
    11   1 H    0.995 --     1 C    0.976
    12   1 H    0.995 --     3 C    0.938
    13   1 H    0.950 --     5 N    0.910
    14   1 H    0.989 --     6 C    0.975
    15   1 H    0.988 --     6 C    0.972
    16   1 H    0.989 --     6 C    0.976
    17   1 H    0.989 --     7 C    0.975
    18   1 H    0.989 --     7 C    0.976
    19   1 H    0.988 --     7 C    0.972
    20   1 H    0.994 --     8 C    0.966
    21   1 H    0.994 --     8 C    0.966
    22   1 H    0.996 --     8 C    0.972
 ---------------------------------------------------------------------------

molecular dipole:
                 x           y           z       tot (Debye)
 q only:        4.651       6.077       1.141
   full:        4.649       6.228       1.092      19.948

           -------------------------------------------------
          | TOTAL ENERGY              -26.527190362981 Eh   |
          | GRADIENT NORM               0.000373284015 Eh/α |
          | HOMO-LUMO GAP               4.529958410537 eV   |
           -------------------------------------------------

 * finished run on 2024/12/20 at 02:07:30.596
