   * xtb version 6.7.1 (edcfbbe) compiled by 'conda@3ef47c1a292c' on 2024-11-25

   ID    Z sym.   atoms
    1    6 C      1-6, 8, 9, 11-13, 17, 18, 20, 21
    2    7 N      7, 10
    3   15 P      14
    4    8 O      15, 16, 19
    5    1 H      22-53

          program call               : xtb C0123.xyz --opt --namespace C0123 --charge +1
          :  Hamiltonian                  GFN2-xTB          :
 * total energy  :   -68.5745185 Eh     change       -0.1400622E-09 Eh
 * total energy  :   -68.6262907 Eh     change       -0.5177214E-01 Eh
 * total energy  :   -68.6599073 Eh     change       -0.3361667E-01 Eh
 * total energy  :   -68.6710219 Eh     change       -0.1111458E-01 Eh
 * total energy  :   -68.6846538 Eh     change       -0.1363187E-01 Eh
 * total energy  :   -68.6954087 Eh     change       -0.1075497E-01 Eh
 * total energy  :   -68.7023995 Eh     change       -0.6990726E-02 Eh
 * total energy  :   -68.7070869 Eh     change       -0.4687402E-02 Eh
 * total energy  :   -68.7099622 Eh     change       -0.2875359E-02 Eh
 * total energy  :   -68.7114474 Eh     change       -0.1485184E-02 Eh
 * total energy  :   -68.7339661 Eh     change       -0.3508946E-04 Eh
 * total energy  :   -68.7339958 Eh     change       -0.2968619E-04 Eh
 * total energy  :   -68.7340156 Eh     change       -0.1979312E-04 Eh
 * total energy  :   -68.7340350 Eh     change       -0.1940044E-04 Eh
 * total energy  :   -68.7340448 Eh     change       -0.9814668E-05 Eh
 * total energy  :   -68.7340525 Eh     change       -0.7732868E-05 Eh
 * total energy  :   -68.7340590 Eh     change       -0.6490277E-05 Eh
 * total energy  :   -68.7340664 Eh     change       -0.7404763E-05 Eh
 * total energy  :   -68.7340713 Eh     change       -0.4931522E-05 Eh
   *** GEOMETRY OPTIMIZATION CONVERGED AFTER 152 ITERATIONS ***

 final structure:
================
53
 xtb: 6.7.1 (edcfbbe)
C            0.20088694744419       -1.52529564146939        2.49837566615089
C            1.02509060719612       -0.30843479785616        2.90169418305892
C            0.60856712381966        0.97073507370320        2.17179072406559
C           -0.84276118099661        1.39786869898153        2.41362770655909
C           -1.21150359542649        1.64409184738441        3.88041544737906
C           -0.33137734457446        2.66549306357239        4.58928468950180
N           -0.29007587082674        3.97192868890164        3.87206275152994
C            0.66543283141432        4.90126614902113        4.48879324976828
C            0.01175319681099        5.97642733488918        4.92795225002128
N           -1.29676833244071        5.97277933257776        4.55959260271067
C           -1.58201548559753        4.72169457232748        3.88636864576540
C           -2.32519024937812        6.78874903106292        5.15408761450810
C           -3.40463681877429        6.02052675158847        5.92194756616605
P           -2.73581438585902        4.63939816792622        6.97696191021567
O           -1.27590183761476        4.51865567178173        6.95985915604740
O           -3.43399135666387        4.81153392402206        8.40012858469945
C           -2.82020628243608        5.62312635851518        9.40807186579300
C           -1.78163703118349        4.84077627109205       10.18925065894312
O           -3.41206633030591        3.31940795973352        6.39157512332164
C           -4.78384624952258        2.97148665603535        6.62225155850062
C           -4.91190422686364        2.01978829610011        7.79632570587998
H           -0.83073494926462       -1.43744296607327        2.82986545964280
H            0.61991528413122       -2.42215316128801        2.94634816565323
H            0.20860507997221       -1.65024598675418        1.41824243999966
H            0.96163401448739       -0.16638672796335        3.98244083724456
H            2.07274368971108       -0.50053561976010        2.66263862614282
H            1.29676599372923        1.77372727465642        2.45249832965833
H            0.73161609859499        0.80896916341164        1.09893368560202
H           -1.05420061981209        2.29099946077726        1.81506448430272
H           -1.50093139608901        0.61697042426294        2.03322001750031
H           -2.25848493869595        1.94742131955756        3.93643220579261
H           -1.12538582731613        0.71014660082185        4.43453051958943
H           -0.69150336263130        2.86612154947190        5.60056618153692
H            0.69480378578181        2.30115858011368        4.65044666955526
H           -0.01608818917695        3.75740532388915        2.90727331157941
H            1.69084480421200        4.61992611423403        4.58294828123898
H            0.42701048085441        6.80796994524217        5.46257312675998
H           -2.33329874547071        4.13901134939245        4.42956453041324
H           -1.92967832605617        4.90881785481551        2.86207306567843
H           -1.82019636510644        7.48287636285630        5.82703325753637
H           -2.81371994713745        7.37575015312182        4.36441573078702
H           -3.94218824598306        6.72374420894066        6.55657532872917
H           -4.13017331055058        5.59014493798630        5.22960467092042
H           -2.36323577651277        6.50274666832888        8.94500371720797
H           -3.64159277972655        5.94292953287860       10.05513862350184
H           -0.98644012241597        4.51860476149551        9.52275323387555
H           -1.36341417078121        5.46971726425175       10.96985343878582
H           -2.23499454394080        3.96488550617621       10.64528439037247
H           -5.37018689087532        3.87576107332422        6.79933282691766
H           -5.12327184068127        2.49373608640520        5.69796909621902
H           -4.57572060542625        2.50753806960948        8.70660075467570
H           -5.95086023070522        1.72432061786791        7.91239112004276
H           -4.30651217530888        1.13300084770078        7.62870621217216

          :  Hamiltonian                  GFN2-xTB          :
         :: total energy             -68.734071344572 Eh    ::
         :: gradient norm              0.000376228240 Eh/a0 ::
         :: HOMO-LUMO gap              4.257441259758 eV    ::
         :: SCC energy               -69.576693269263 Eh    ::
         :: -> dispersion             -0.050916299195 Eh    ::
         :: repulsion energy           0.842621924691 Eh    ::

    * Orbital Energies and Occupations

         #    Occupation            Energy/Eh            Energy/eV
      -------------------------------------------------------------
         1        2.0000           -0.8478882             -23.0722
       ...           ...                  ...                  ...
        50        2.0000           -0.5579689             -15.1831
        51        2.0000           -0.5570406             -15.1578
        52        2.0000           -0.5540216             -15.0757
        53        2.0000           -0.5507252             -14.9860
        54        2.0000           -0.5480780             -14.9140
        55        2.0000           -0.5460610             -14.8591
        56        2.0000           -0.5438692             -14.7994
        57        2.0000           -0.5298424             -14.4177
        58        2.0000           -0.5288930             -14.3919
        59        2.0000           -0.5235515             -14.2466
        60        2.0000           -0.5215164             -14.1912
        61        2.0000           -0.5157875             -14.0353
        62        2.0000           -0.4909098             -13.3583 (HOMO)
        63                         -0.3344517              -9.1009 (LUMO)
        64                         -0.2094273              -5.6988
        65                         -0.2026743              -5.5150
        66                         -0.1827948              -4.9741
        67                         -0.1716172              -4.6699
        68                         -0.1459049              -3.9703
        69                         -0.1398264              -3.8049
        70                         -0.1180865              -3.2133
        71                         -0.1032413              -2.8093
        72                         -0.0987671              -2.6876
        73                         -0.0602003              -1.6381
       ...                                ...                  ...
       121                          1.2032436              32.7419
      -------------------------------------------------------------
                  HL-Gap            0.1564581 Eh            4.2574 eV

     #   Z          covCN         q      C6AA      α(0)
     1   6 C        3.752    -0.109    22.651     6.787
     2   6 C        3.799    -0.058    21.614     6.619
     3   6 C        3.800    -0.064    21.721     6.636
     4   6 C        3.800    -0.069    21.822     6.651
     5   6 C        3.801    -0.078    21.993     6.677
     6   6 C        3.742    -0.044    21.437     6.606
     7   7 N        3.611     0.048    20.404     6.709
     8   6 C        2.912    -0.065    29.606     8.922
     9   6 C        2.919     0.038    27.152     8.545
    10   7 N        2.785    -0.068    22.549     7.053
    11   6 C        3.770     0.034    20.037     6.379
    12   6 C        3.784    -0.009    20.751     6.489
    13   6 C        3.749    -0.116    22.790     6.809
    14  15 P        3.813     0.519   139.193    21.193
    15   8 O        0.808    -0.475    23.254     6.464
    16   8 O        1.656    -0.281    18.674     5.834
    17   6 C        3.903     0.083    19.152     6.221
    18   6 C        3.751    -0.125    22.970     6.835
    19   8 O        1.655    -0.298    18.979     5.881
    20   6 C        3.854     0.079    19.240     6.239
    21   6 C        3.751    -0.123    22.931     6.829
    22   1 H        0.925     0.035     2.515     2.480
    23   1 H        0.925     0.046     2.369     2.407
    24   1 H        0.925     0.043     2.406     2.426
    25   1 H        0.924     0.031     2.576     2.510
    26   1 H        0.924     0.043     2.412     2.429
    27   1 H        0.924     0.017     2.781     2.608
    28   1 H        0.924     0.049     2.338     2.391
    29   1 H        0.924     0.017     2.776     2.606
    30   1 H        0.925     0.065     2.139     2.287
    31   1 H        0.924     0.047     2.356     2.400
    32   1 H        0.925     0.083     1.952     2.185
    33   1 H        0.924     0.118     1.633     1.998
    34   1 H        0.924     0.092     1.856     2.131
    35   1 H        0.859     0.225     0.989     1.558
    36   1 H        0.927     0.087     1.905     2.158
    37   1 H        0.926     0.098     1.807     2.102
    38   1 H        0.924     0.105     1.738     2.062
    39   1 H        0.924     0.080     1.976     2.198
    40   1 H        0.924     0.079     1.993     2.208
    41   1 H        0.923     0.065     2.142     2.289
    42   1 H        0.926     0.080     1.982     2.201
    43   1 H        0.926     0.063     2.165     2.301
    44   1 H        0.924     0.040     2.447     2.446
    45   1 H        0.924     0.066     2.128     2.281
    46   1 H        0.925     0.072     2.058     2.244
    47   1 H        0.925     0.065     2.144     2.290
    48   1 H        0.925     0.064     2.151     2.294
    49   1 H        0.924     0.050     2.325     2.384
    50   1 H        0.924     0.057     2.237     2.339
    51   1 H        0.925     0.069     2.093     2.263
    52   1 H        0.925     0.066     2.126     2.280
    53   1 H        0.925     0.065     2.147     2.291

Wiberg/Mayer (AO) data.
largest (>0.10) Wiberg bond orders for each atom

     #   Z sym  total        # sym  WBO       # sym  WBO       # sym  WBO
 ---------------------------------------------------------------------------
     1   6 C    3.995 --     2 C    1.021    24 H    0.987    23 H    0.986
                            22 H    0.986
     2   6 C    3.996 --     1 C    1.021     3 C    1.007    26 H    0.977
                            25 H    0.976
     3   6 C    3.995 --     2 C    1.007     4 C    1.006    28 H    0.975
                            27 H    0.975
     4   6 C    3.993 --     3 C    1.006     5 C    1.005    29 H    0.971
                            30 H    0.970
     5   6 C    3.987 --     6 C    1.008     4 C    1.005    31 H    0.972
                            32 H    0.962
     6   6 C    3.912 --     5 C    1.008    34 H    0.963    33 H    0.954
                             7 N    0.918
     7   7 N    3.770 --    11 C    0.952     8 C    0.925     6 C    0.918
                            35 H    0.905
     8   6 C    3.848 --     9 C    1.739    36 H    0.964     7 N    0.925
                            10 N    0.158
     9   6 C    3.968 --     8 C    1.739    10 N    1.197    37 H    0.955
    10   7 N    3.425 --     9 C    1.197    11 C    1.002    12 C    0.992
                             8 C    0.158
    11   6 C    3.942 --    10 N    1.002    39 H    0.965     7 N    0.952
                            38 H    0.944
    12   6 C    3.968 --    13 C    0.997    10 N    0.992    40 H    0.969
                            41 H    0.964
    13   6 C    3.992 --    12 C    0.997    43 H    0.959    42 H    0.957
                            14 P    0.893
    14  15 P    5.390 --    15 O    1.887    19 O    1.238    16 O    1.237
                            13 C    0.893
    15   8 O    2.122 --    14 P    1.887
    16   8 O    2.348 --    14 P    1.237    17 C    0.911
    17   6 C    3.914 --    18 C    1.020    44 H    0.973    45 H    0.970
                            16 O    0.911
    18   6 C    3.987 --    17 C    1.020    48 H    0.984    47 H    0.980
                            46 H    0.979
    19   8 O    2.338 --    14 P    1.238    20 C    0.910
    20   6 C    3.915 --    21 C    1.019    49 H    0.973    50 H    0.972
                            19 O    0.910
    21   6 C    3.987 --    20 C    1.019    53 H    0.984    51 H    0.981
                            52 H    0.979
    22   1 H    0.999 --     1 C    0.986
    23   1 H    0.998 --     1 C    0.986
    24   1 H    0.998 --     1 C    0.987
    25   1 H    0.999 --     2 C    0.976
    26   1 H    0.998 --     2 C    0.977
    27   1 H    1.000 --     3 C    0.975
    28   1 H    0.998 --     3 C    0.975
    29   1 H    1.000 --     4 C    0.971
    30   1 H    0.995 --     4 C    0.970
    31   1 H    0.998 --     5 C    0.972
    32   1 H    0.992 --     5 C    0.962
    33   1 H    0.986 --     6 C    0.954
    34   1 H    0.991 --     6 C    0.963
    35   1 H    0.949 --     7 N    0.905
    36   1 H    0.992 --     8 C    0.964
    37   1 H    0.990 --     9 C    0.955
    38   1 H    0.989 --    11 C    0.944
    39   1 H    0.994 --    11 C    0.965
    40   1 H    0.994 --    12 C    0.969
    41   1 H    0.995 --    12 C    0.964
    42   1 H    0.993 --    13 C    0.957
    43   1 H    0.996 --    13 C    0.959
    44   1 H    0.998 --    17 C    0.973
    45   1 H    0.996 --    17 C    0.970
    46   1 H    0.995 --    18 C    0.979
    47   1 H    0.995 --    18 C    0.980
    48   1 H    0.996 --    18 C    0.984
    49   1 H    0.997 --    20 C    0.973
    50   1 H    0.997 --    20 C    0.972
    51   1 H    0.995 --    21 C    0.981
    52   1 H    0.994 --    21 C    0.979
    53   1 H    0.996 --    21 C    0.984
 ---------------------------------------------------------------------------

molecular dipole:
                 x           y           z       tot (Debye)
 q only:       -3.062       7.965       8.942
   full:       -3.413       8.220       8.773      31.766

           -------------------------------------------------
          | TOTAL ENERGY              -68.734071344572 Eh   |
          | GRADIENT NORM               0.000376228240 Eh/α |
          | HOMO-LUMO GAP               4.257441259758 eV   |
           -------------------------------------------------

 * finished run on 2024/12/20 at 02:07:25.749
