   * xtb version 6.7.1 (edcfbbe) compiled by 'conda@3ef47c1a292c' on 2024-11-25

   ID    Z sym.   atoms
    1    6 C      1-12, 14-19
    2    7 N      13
    3    1 H      20-57

          program call               : xtb C0125.xyz --opt --namespace C0125 --charge +1
          :  Hamiltonian                  GFN2-xTB          :
 * total energy  :   -60.4764041 Eh     change       -0.1133813E-09 Eh
 * total energy  :   -60.4831075 Eh     change       -0.6703377E-02 Eh
 * total energy  :   -60.4847615 Eh     change       -0.1654032E-02 Eh
 * total energy  :   -60.4849519 Eh     change       -0.1904014E-03 Eh
 * total energy  :   -60.4852593 Eh     change       -0.3074144E-03 Eh
 * total energy  :   -60.4854445 Eh     change       -0.1851402E-03 Eh
 * total energy  :   -60.4856411 Eh     change       -0.1966620E-03 Eh
 * total energy  :   -60.4858460 Eh     change       -0.2048718E-03 Eh
 * total energy  :   -60.4860232 Eh     change       -0.1771721E-03 Eh
 * total energy  :   -60.4862000 Eh     change       -0.1768158E-03 Eh
 * total energy  :   -60.4901752 Eh     change       -0.1324097E-04 Eh
 * total energy  :   -60.4901861 Eh     change       -0.1086310E-04 Eh
 * total energy  :   -60.4901946 Eh     change       -0.8553402E-05 Eh
 * total energy  :   -60.4902033 Eh     change       -0.8651456E-05 Eh
 * total energy  :   -60.4902136 Eh     change       -0.1030233E-04 Eh
 * total energy  :   -60.4902237 Eh     change       -0.1010324E-04 Eh
 * total energy  :   -60.4902324 Eh     change       -0.8775309E-05 Eh
 * total energy  :   -60.4902386 Eh     change       -0.6182144E-05 Eh
 * total energy  :   -60.4902425 Eh     change       -0.3832379E-05 Eh
   *** GEOMETRY OPTIMIZATION CONVERGED AFTER 64 ITERATIONS ***

 final structure:
================
57
 xtb: 6.7.1 (edcfbbe)
C            0.07762668302321        0.56885726289801        0.47317155630755
C           -0.31837678675493       -0.90983950539163        0.52161668958470
C            0.84347210046121       -1.92254156648406        0.52710128232415
C            0.81177407699036       -2.87236897900933        1.72718092376799
C           -0.35112207884710       -3.86112737589998        1.66560093418201
C           -0.38131210681789       -4.81829097639122        2.85864215608365
C           -0.56681343396797       -4.15175725115602        4.22452212469815
C           -1.81972509038564       -3.28384413252613        4.36145055320566
C           -3.13926822401992       -4.01545088505483        4.10740706513437
C           -3.39591378437476       -5.21596156146967        5.02012024877076
C           -3.42636249095801       -4.89739589724264        6.51568000084379
C           -4.53323982141352       -3.92345041090467        6.90244050448544
N            0.40566749829876        1.24816885993623        1.77103204731673
C            1.65039233372844        0.68090952945712        2.35713908314769
C            2.14033937490881        1.43980176786350        3.58484639830011
C            2.39898070619259        2.90076547257724        3.23537187264980
C            1.13309107893766        3.51296867209558        2.64570639886256
C            0.63349092911155        2.69229989915199        1.46075691732516
C           -0.72453064591395        1.10650896520547        2.70626506710048
H           -0.75163441148483        1.13292938492833        0.03945476917512
H            0.93930041579744        0.68270465312088       -0.18838149024121
H           -0.97711259112955       -1.10218907466730        1.36618940750558
H           -0.92120823463639       -1.07829304266366       -0.37146664525835
H            0.79491502969543       -2.52697185319881       -0.37881402768127
H            1.80289318859295       -1.40399076781292        0.50022385607743
H            1.74623941577289       -3.43549000685239        1.75292595103335
H            0.74968826440874       -2.30261977367382        2.65781457140518
H           -1.30002326270991       -3.32617359800799        1.60548213998833
H           -0.25690531942255       -4.45275217875530        0.75287279778590
H           -1.18704650818775       -5.53567576246870        2.70038657301684
H            0.55422773550211       -5.38181155212485        2.88064832157587
H           -0.60072377245561       -4.93812978691625        4.97880188287220
H            0.30886925561995       -3.53843159334099        4.45423635268704
H           -1.83303391286188       -2.86236899722917        5.36866478241966
H           -1.75995193951439       -2.44019614888733        3.66558014501002
H           -3.95461367537043       -3.29847572312219        4.22491674288242
H           -3.16576190240073       -4.36226267864498        3.07214530449856
H           -4.35820638015571       -5.64963289056194        4.73839662487607
H           -2.63474780469382       -5.97729591037831        4.83997348169499
H           -3.58103079244305       -5.83463484770976        7.05456722945339
H           -2.46095569526803       -4.49877292353352        6.83376278793738
H           -5.49685653046700       -4.28447845203861        6.55014437985531
H           -4.58229341715572       -3.82064849112020        7.98377939013631
H           -4.35890121802142       -2.93717200977349        6.47836854819233
H            2.42452400466538        0.72410456207060        1.58775406996290
H            1.46636372178859       -0.36298524355081        2.60796331221422
H            3.06309422526731        0.96631910010159        3.92076315289503
H            1.42450871719785        1.36561524216528        4.40378901916508
H            2.70041119675870        3.45250330962521        4.12412570902971
H            3.21343706238945        2.96710103775502        2.51182620035149
H            0.36631327157818        3.60509527111441        3.41557270862223
H            1.33815898824084        4.52024315264958        2.28226242222645
H           -0.30136697799183        3.11209506076707        1.08419403064668
H            1.37841822838610        2.74106347663485        0.66325763740351
H           -1.65642841896991        1.34949352086568        2.19896874363915
H           -0.77900311270592        0.08873556992178        3.08512745599011
H           -0.60574716168618        1.77596807775457        3.55253983676168

          :  Hamiltonian                  GFN2-xTB          :
         :: total energy             -60.490242452793 Eh    ::
         :: gradient norm              0.000240851064 Eh/a0 ::
         :: HOMO-LUMO gap              6.848959547720 eV    ::
         :: SCC energy               -61.363889900706 Eh    ::
         :: -> dispersion             -0.047639666436 Eh    ::
         :: repulsion energy           0.873647447913 Eh    ::

    * Orbital Energies and Occupations

         #    Occupation            Energy/Eh            Energy/eV
      -------------------------------------------------------------
         1        2.0000           -0.8554549             -23.2781
       ...           ...                  ...                  ...
        45        2.0000           -0.5538170             -15.0701
        46        2.0000           -0.5477339             -14.9046
        47        2.0000           -0.5417160             -14.7408
        48        2.0000           -0.5391028             -14.6697
        49        2.0000           -0.5295081             -14.4086
        50        2.0000           -0.5228196             -14.2266
        51        2.0000           -0.5157105             -14.0332
        52        2.0000           -0.5079089             -13.8209
        53        2.0000           -0.5051921             -13.7470
        54        2.0000           -0.5022244             -13.6662
        55        2.0000           -0.4870759             -13.2540
        56        2.0000           -0.4838641             -13.1666
        57        2.0000           -0.4813609             -13.0985 (HOMO)
        58                         -0.2296663              -6.2495 (LUMO)
        59                         -0.1610306              -4.3819
        60                         -0.1568058              -4.2669
        61                         -0.1390104              -3.7827
        62                         -0.0806864              -2.1956
        63                         -0.0720499              -1.9606
        64                         -0.0587810              -1.5995
        65                         -0.0563273              -1.5327
        66                         -0.0407064              -1.1077
        67                         -0.0315599              -0.8588
        68                         -0.0269636              -0.7337
       ...                                ...                  ...
       114                          0.2410913               6.5604
      -------------------------------------------------------------
                  HL-Gap            0.2516946 Eh            6.8490 eV

     #   Z          covCN         q      C6AA      α(0)
     1   6 C        3.761    -0.037    21.289     6.578
     2   6 C        3.799    -0.077    21.968     6.674
     3   6 C        3.799    -0.072    21.879     6.660
     4   6 C        3.801    -0.061    21.670     6.628
     5   6 C        3.801    -0.062    21.686     6.630
     6   6 C        3.801    -0.062    21.686     6.630
     7   6 C        3.800    -0.059    21.634     6.622
     8   6 C        3.799    -0.051    21.488     6.600
     9   6 C        3.800    -0.058    21.617     6.620
    10   6 C        3.801    -0.059    21.644     6.624
    11   6 C        3.799    -0.053    21.532     6.607
    12   6 C        3.751    -0.102    22.514     6.767
    13   7 N        3.620     0.120    19.191     6.506
    14   6 C        3.762    -0.033    21.216     6.566
    15   6 C        3.805    -0.073    21.892     6.661
    16   6 C        3.806    -0.071    21.860     6.656
    17   6 C        3.804    -0.071    21.858     6.656
    18   6 C        3.769    -0.033    21.198     6.561
    19   6 C        3.712    -0.088    22.318     6.751
    20   1 H        0.924     0.076     2.023     2.224
    21   1 H        0.924     0.079     1.986     2.204
    22   1 H        0.925     0.064     2.151     2.294
    23   1 H        0.924     0.071     2.076     2.253
    24   1 H        0.925     0.057     2.240     2.340
    25   1 H        0.924     0.034     2.532     2.488
    26   1 H        0.924     0.045     2.382     2.414
    27   1 H        0.924     0.023     2.695     2.567
    28   1 H        0.924     0.033     2.546     2.495
    29   1 H        0.924     0.037     2.483     2.464
    30   1 H        0.924     0.044     2.391     2.418
    31   1 H        0.924     0.035     2.518     2.481
    32   1 H        0.925     0.044     2.400     2.423
    33   1 H        0.924     0.019     2.744     2.591
    34   1 H        0.924     0.032     2.563     2.504
    35   1 H        0.924     0.003     3.002     2.710
    36   1 H        0.924     0.031     2.567     2.506
    37   1 H        0.924     0.030     2.591     2.517
    38   1 H        0.924     0.035     2.521     2.483
    39   1 H        0.924     0.032     2.558     2.501
    40   1 H        0.924     0.033     2.540     2.492
    41   1 H        0.924     0.028     2.609     2.526
    42   1 H        0.925     0.037     2.486     2.466
    43   1 H        0.925     0.035     2.515     2.480
    44   1 H        0.925     0.028     2.610     2.526
    45   1 H        0.924     0.080     1.984     2.203
    46   1 H        0.925     0.093     1.852     2.128
    47   1 H        0.925     0.076     2.023     2.224
    48   1 H        0.924     0.060     2.198     2.318
    49   1 H        0.925     0.069     2.094     2.263
    50   1 H        0.924     0.056     2.247     2.344
    51   1 H        0.924     0.059     2.208     2.324
    52   1 H        0.924     0.077     2.010     2.217
    53   1 H        0.924     0.078     1.995     2.209
    54   1 H        0.924     0.082     1.960     2.189
    55   1 H        0.925     0.090     1.876     2.142
    56   1 H        0.925     0.097     1.817     2.108
    57   1 H        0.925     0.101     1.779     2.086

Wiberg/Mayer (AO) data.
largest (>0.10) Wiberg bond orders for each atom

     #   Z sym  total        # sym  WBO       # sym  WBO       # sym  WBO
 ---------------------------------------------------------------------------
     1   6 C    3.931 --     2 C    1.006    20 H    0.969    21 H    0.966
                            13 N    0.924
     2   6 C    3.982 --     1 C    1.006     3 C    1.000    23 H    0.969
                            22 H    0.963
     3   6 C    3.992 --     4 C    1.007     2 C    1.000    24 H    0.977
                            25 H    0.975
     4   6 C    3.995 --     5 C    1.008     3 C    1.007    26 H    0.976
                            27 H    0.966
     5   6 C    3.996 --     4 C    1.008     6 C    1.006    29 H    0.976
                            28 H    0.972
     6   6 C    3.996 --     7 C    1.007     5 C    1.006    31 H    0.977
                            30 H    0.974
     7   6 C    3.997 --     8 C    1.007     6 C    1.007    33 H    0.975
                            32 H    0.974
     8   6 C    3.998 --     7 C    1.007     9 C    1.007    34 H    0.975
                            35 H    0.975
     9   6 C    3.997 --    10 C    1.008     8 C    1.007    37 H    0.975
                            36 H    0.975
    10   6 C    3.997 --    11 C    1.008     9 C    1.008    38 H    0.977
                            39 H    0.975
    11   6 C    3.998 --    12 C    1.020    10 C    1.008    40 H    0.978
                            41 H    0.976
    12   6 C    3.997 --    11 C    1.020    42 H    0.987    43 H    0.987
                            44 H    0.987
    13   7 N    3.805 --    19 C    0.962    14 C    0.932    18 C    0.931
                             1 C    0.924
    14   6 C    3.932 --    15 C    1.008    45 H    0.967    46 H    0.957
                            13 N    0.932
    15   6 C    3.988 --    16 C    1.009    14 C    1.008    48 H    0.971
                            47 H    0.966
    16   6 C    3.992 --    15 C    1.009    17 C    1.008    50 H    0.975
                            49 H    0.973
    17   6 C    3.987 --    16 C    1.008    18 C    1.008    51 H    0.969
                            52 H    0.965
    18   6 C    3.936 --    17 C    1.008    53 H    0.969    54 H    0.968
                            13 N    0.931
    19   6 C    3.932 --    55 H    0.976    56 H    0.970    57 H    0.966
                            13 N    0.962
    20   1 H    0.994 --     1 C    0.969
    21   1 H    0.994 --     1 C    0.966
    22   1 H    0.996 --     2 C    0.963
    23   1 H    0.995 --     2 C    0.969
    24   1 H    0.997 --     3 C    0.977
    25   1 H    0.999 --     3 C    0.975
    26   1 H    0.998 --     4 C    0.976
    27   1 H    0.999 --     4 C    0.966
    28   1 H    0.999 --     5 C    0.972
    29   1 H    0.998 --     5 C    0.976
    30   1 H    0.998 --     6 C    0.974
    31   1 H    0.999 --     6 C    0.977
    32   1 H    0.998 --     7 C    0.974
    33   1 H    1.000 --     7 C    0.975
    34   1 H    0.999 --     8 C    0.975
    35   1 H    1.000 --     8 C    0.975
    36   1 H    0.999 --     9 C    0.975
    37   1 H    0.999 --     9 C    0.975
    38   1 H    0.999 --    10 C    0.977
    39   1 H    0.999 --    10 C    0.975
    40   1 H    0.999 --    11 C    0.978
    41   1 H    0.999 --    11 C    0.976
    42   1 H    0.999 --    12 C    0.987
    43   1 H    0.999 --    12 C    0.987
    44   1 H    0.999 --    12 C    0.987
    45   1 H    0.994 --    14 C    0.967
    46   1 H    0.991 --    14 C    0.957
    47   1 H    0.994 --    15 C    0.966
    48   1 H    0.996 --    15 C    0.971
    49   1 H    0.995 --    16 C    0.973
    50   1 H    0.997 --    16 C    0.975
    51   1 H    0.996 --    17 C    0.969
    52   1 H    0.994 --    17 C    0.965
    53   1 H    0.994 --    18 C    0.969
    54   1 H    0.993 --    18 C    0.968
    55   1 H    0.992 --    19 C    0.976
    56   1 H    0.991 --    19 C    0.970
    57   1 H    0.990 --    19 C    0.966
 ---------------------------------------------------------------------------

molecular dipole:
                 x           y           z       tot (Debye)
 q only:        0.891       1.887       3.788
   full:        0.836       1.945       3.645      10.715

           -------------------------------------------------
          | TOTAL ENERGY              -60.490242452793 Eh   |
          | GRADIENT NORM               0.000240851064 Eh/α |
          | HOMO-LUMO GAP               6.848959547720 eV   |
           -------------------------------------------------

 * finished run on 2024/12/20 at 02:07:30.235
