   * xtb version 6.7.1 (edcfbbe) compiled by 'conda@3ef47c1a292c' on 2024-11-25

   ID    Z sym.   atoms
    1    6 C      1-8, 10, 12, 13, 15, 16
    2    8 O      9
    3    7 N      11, 14
    4    1 H      17-31

          program call               : xtb C0124.xyz --opt --namespace C0124 --charge +1
          :  Hamiltonian                  GFN2-xTB          :
 * total energy  :   -44.9988212 Eh     change       -0.8341061E-09 Eh
 * total energy  :   -45.0051695 Eh     change       -0.6348296E-02 Eh
 * total energy  :   -45.0067275 Eh     change       -0.1558078E-02 Eh
 * total energy  :   -45.0069800 Eh     change       -0.2524351E-03 Eh
 * total energy  :   -45.0070985 Eh     change       -0.1184872E-03 Eh
 * total energy  :   -45.0071694 Eh     change       -0.7088892E-04 Eh
 * total energy  :   -45.0072470 Eh     change       -0.7765283E-04 Eh
 * total energy  :   -45.0073471 Eh     change       -0.1001110E-03 Eh
 * total energy  :   -45.0074578 Eh     change       -0.1106878E-03 Eh
 * total energy  :   -45.0075692 Eh     change       -0.1114338E-03 Eh
 * total energy  :   -45.0182806 Eh     change       -0.1065192E-03 Eh
 * total energy  :   -45.0183951 Eh     change       -0.1145263E-03 Eh
 * total energy  :   -45.0184319 Eh     change       -0.3673966E-04 Eh
 * total energy  :   -45.0184703 Eh     change       -0.3842894E-04 Eh
 * total energy  :   -45.0184734 Eh     change       -0.3047122E-05 Eh
 * total energy  :   -45.0184999 Eh     change       -0.2653859E-04 Eh
 * total energy  :   -45.0184899 Eh     change        0.9956439E-05 Eh
 * total energy  :   -45.0185137 Eh     change       -0.2379447E-04 Eh
 * total energy  :   -45.0185184 Eh     change       -0.4682734E-05 Eh
   *** GEOMETRY OPTIMIZATION CONVERGED AFTER 69 ITERATIONS ***

 final structure:
================
31
 xtb: 6.7.1 (edcfbbe)
C            2.36541600105641       -1.26201759920088       -1.88983817608420
C            1.28044199335672       -0.66497251723482       -1.06222451530695
C            1.14422440419405       -0.97545936512276        0.28948470062186
C            0.13204145255962       -0.42065798933309        1.04003326283577
C           -0.78361241609414        0.47146890363170        0.46194969238537
C           -0.65055169270469        0.78161743741719       -0.89859271623992
C            0.36421279860596        0.21874476703790       -1.63850742795754
C           -1.82421184857405        1.00969040406124        1.31887166269347
O           -1.99790933943456        0.70566231425163        2.47884809639136
C           -2.80736647731272        2.04224282817188        0.68313451527997
N           -3.58094256486341        2.62355916438903        1.73859123308404
C           -3.54552956816728        3.91935399538045        2.16190414184245
C           -4.25490555343939        3.98545968113063        3.32043263682944
N           -4.70073097641968        2.72725344732073        3.59677919400899
C           -4.27370679409890        1.91728889417058        2.63275100948564
C           -5.47920227343472        2.35475069015989        4.74645386013449
H            3.07763610777022       -1.80591914095384       -1.27608100579929
H            1.93852015346051       -1.95171202349754       -2.61836740356550
H            2.89198255748544       -0.48812225380769       -2.44586752866174
H            1.83951462362896       -1.65832025498271        0.75232306417218
H            0.02596304272600       -0.65899434515731        2.08746802037002
H           -1.33980853924303        1.45252674740018       -1.38646882474077
H            0.45796590485470        0.46255331600437       -2.68658748711827
H           -2.26405645893934        2.82769237600142        0.15907553058867
H           -3.45054473445037        1.50618554645583       -0.02032054856277
H           -3.03559982644468        4.69016483295668        1.62118267851535
H           -4.46562997309097        4.82320231302971        3.95329219840354
H           -4.47387681493205        0.86579038328507        2.57371689620816
H           -5.71222845384014        1.29337354613292        4.70592366001414
H           -4.91838580490342        2.55928175197468        5.65927000203541
H           -6.40746892931985        2.92639214892165        4.77325957810162

          :  Hamiltonian                  GFN2-xTB          :
         :: total energy             -45.018518424954 Eh    ::
         :: gradient norm              0.000957353760 Eh/a0 ::
         :: HOMO-LUMO gap              2.892501791921 eV    ::
         :: SCC energy               -45.735801318987 Eh    ::
         :: -> dispersion             -0.027062054414 Eh    ::
         :: repulsion energy           0.717282894032 Eh    ::

    * Orbital Energies and Occupations

         #    Occupation            Energy/Eh            Energy/eV
      -------------------------------------------------------------
         1        2.0000           -0.8818061             -23.9952
       ...           ...                  ...                  ...
        29        2.0000           -0.6102908             -16.6069
        30        2.0000           -0.5993962             -16.3104
        31        2.0000           -0.5966013             -16.2343
        32        2.0000           -0.5911641             -16.0864
        33        2.0000           -0.5880854             -16.0026
        34        2.0000           -0.5739823             -15.6189
        35        2.0000           -0.5688009             -15.4779
        36        2.0000           -0.5546613             -15.0931
        37        2.0000           -0.5495943             -14.9552
        38        2.0000           -0.5299413             -14.4204
        39        2.0000           -0.5252193             -14.2919
        40        2.0000           -0.5195032             -14.1364
        41        2.0000           -0.5098770             -13.8745 (HOMO)
        42                         -0.4035795             -10.9820 (LUMO)
        43                         -0.3908557             -10.6357
        44                         -0.3589415              -9.7673
        45                         -0.3346942              -9.1075
        46                         -0.3062297              -8.3329
        47                         -0.1991393              -5.4189
        48                         -0.1681314              -4.5751
        49                         -0.1181783              -3.2158
        50                         -0.0806475              -2.1945
        51                         -0.0407518              -1.1089
        52                         -0.0368390              -1.0024
       ...                                ...                  ...
        79                          0.5517812              15.0147
      -------------------------------------------------------------
                  HL-Gap            0.1062975 Eh            2.8925 eV

     #   Z          covCN         q      C6AA      α(0)
     1   6 C        3.759    -0.122    22.891     6.821
     2   6 C        2.966     0.048    26.929     8.512
     3   6 C        2.920    -0.030    28.755     8.793
     4   6 C        2.925    -0.011    28.280     8.721
     5   6 C        2.970    -0.024    28.592     8.771
     6   6 C        2.916    -0.029    28.720     8.788
     7   6 C        2.922    -0.032    28.792     8.799
     8   6 C        2.823     0.225    23.275     7.905
     9   8 O        0.857    -0.366    21.014     6.146
    10   6 C        3.743    -0.051    21.554     6.623
    11   7 N        2.872     0.072    19.980     6.639
    12   6 C        3.066    -0.008    28.149     8.700
    13   6 C        3.070    -0.009    28.168     8.702
    14   7 N        2.867     0.077    19.902     6.626
    15   6 C        3.093     0.058    26.582     8.450
    16   6 C        3.692    -0.085    22.316     6.759
    17   1 H        0.925     0.064     2.156     2.296
    18   1 H        0.924     0.076     2.026     2.226
    19   1 H        0.925     0.071     2.073     2.251
    20   1 H        0.926     0.063     2.162     2.300
    21   1 H        0.926     0.072     2.060     2.244
    22   1 H        0.926     0.040     2.445     2.445
    23   1 H        0.926     0.059     2.208     2.324
    24   1 H        0.925     0.099     1.792     2.094
    25   1 H        0.924     0.099     1.794     2.095
    26   1 H        0.926     0.103     1.762     2.076
    27   1 H        0.926     0.107     1.720     2.051
    28   1 H        0.926     0.122     1.596     1.975
    29   1 H        0.925     0.100     1.788     2.091
    30   1 H        0.924     0.107     1.722     2.052
    31   1 H        0.924     0.103     1.756     2.072

Wiberg/Mayer (AO) data.
largest (>0.10) Wiberg bond orders for each atom

     #   Z sym  total        # sym  WBO       # sym  WBO       # sym  WBO
 ---------------------------------------------------------------------------
     1   6 C    3.988 --     2 C    1.044    17 H    0.982    19 H    0.964
                            18 H    0.954
     2   6 C    3.981 --     3 C    1.386     7 C    1.367     1 C    1.044
     3   6 C    3.989 --     4 C    1.481     2 C    1.386    20 H    0.965
     4   6 C    3.984 --     3 C    1.481     5 C    1.335    21 H    0.964
     5   6 C    3.981 --     4 C    1.335     6 C    1.334     8 C    1.101
     6   6 C    3.992 --     7 C    1.499     5 C    1.334    22 H    0.966
     7   6 C    3.990 --     6 C    1.499     2 C    1.367    23 H    0.967
     8   6 C    3.928 --     9 O    1.785     5 C    1.101    10 C    0.915
     9   8 O    2.096 --     8 C    1.785
    10   6 C    3.945 --    11 N    0.996    24 H    0.957    25 H    0.943
                             8 C    0.915
    11   7 N    3.709 --    15 C    1.342    12 C    1.213    10 C    0.996
    12   6 C    3.948 --    13 C    1.601    11 N    1.213    26 H    0.962
    13   6 C    3.948 --    12 C    1.601    14 N    1.219    27 H    0.962
    14   7 N    3.716 --    15 C    1.360    13 C    1.219    16 C    0.991
    15   6 C    3.945 --    14 N    1.360    11 N    1.342    28 H    0.952
    16   6 C    3.935 --    14 N    0.991    29 H    0.976    31 H    0.964
                            30 H    0.962
    17   1 H    0.996 --     1 C    0.982
    18   1 H    0.990 --     1 C    0.954
    19   1 H    0.992 --     1 C    0.964
    20   1 H    0.995 --     3 C    0.965
    21   1 H    0.995 --     4 C    0.964
    22   1 H    0.998 --     6 C    0.966
    23   1 H    0.996 --     7 C    0.967
    24   1 H    0.990 --    10 C    0.957
    25   1 H    0.989 --    10 C    0.943
    26   1 H    0.989 --    12 C    0.962
    27   1 H    0.988 --    13 C    0.962
    28   1 H    0.985 --    15 C    0.952
    29   1 H    0.990 --    16 C    0.976
    30   1 H    0.988 --    16 C    0.962
    31   1 H    0.988 --    16 C    0.964
 ---------------------------------------------------------------------------

molecular dipole:
                 x           y           z       tot (Debye)
 q only:       -5.922       3.969       3.220
   full:       -6.003       4.037       3.044      19.950

           -------------------------------------------------
          | TOTAL ENERGY              -45.018518424954 Eh   |
          | GRADIENT NORM               0.000957353760 Eh/α |
          | HOMO-LUMO GAP               2.892501791921 eV   |
           -------------------------------------------------

 * finished run on 2024/12/20 at 02:07:27.168
