   * xtb version 6.7.1 (edcfbbe) compiled by 'conda@3ef47c1a292c' on 2024-11-25

   ID    Z sym.   atoms
    1    6 C      1, 3, 5, 7
    2    8 O      2, 4, 8
    3    7 N      6
    4    1 H      9-18

          program call               : xtb C0122.xyz --opt --namespace C0122 --charge +1
          :  Hamiltonian                  GFN2-xTB          :
 * total energy  :   -28.3195637 Eh     change       -0.6002310E-10 Eh
 * total energy  :   -28.3249576 Eh     change       -0.5393976E-02 Eh
 * total energy  :   -28.3259708 Eh     change       -0.1013138E-02 Eh
 * total energy  :   -28.3262807 Eh     change       -0.3099538E-03 Eh
 * total energy  :   -28.3263746 Eh     change       -0.9381968E-04 Eh
 * total energy  :   -28.3264329 Eh     change       -0.5829547E-04 Eh
 * total energy  :   -28.3265477 Eh     change       -0.1148699E-03 Eh
 * total energy  :   -28.3266833 Eh     change       -0.1355671E-03 Eh
 * total energy  :   -28.3268967 Eh     change       -0.2134490E-03 Eh
 * total energy  :   -28.3271574 Eh     change       -0.2606273E-03 Eh
 * total energy  :   -28.3276670 Eh     change       -0.6832887E-04 Eh
 * total energy  :   -28.3277904 Eh     change       -0.1233983E-03 Eh
 * total energy  :   -28.3278471 Eh     change       -0.5666903E-04 Eh
 * total energy  :   -28.3278568 Eh     change       -0.9683409E-05 Eh
 * total energy  :   -28.3278949 Eh     change       -0.3810703E-04 Eh
 * total energy  :   -28.3279100 Eh     change       -0.1511829E-04 Eh
 * total energy  :   -28.3279201 Eh     change       -0.1011184E-04 Eh
 * total energy  :   -28.3279263 Eh     change       -0.6173852E-05 Eh
 * total energy  :   -28.3279296 Eh     change       -0.3334574E-05 Eh
   *** GEOMETRY OPTIMIZATION CONVERGED AFTER 22 ITERATIONS ***

 final structure:
================
18
 xtb: 6.7.1 (edcfbbe)
C            1.14354201555644       -0.01339380138337       -0.14370606158492
O            0.75390012131447        0.67139733417393       -1.34415287810014
C            0.90882422319247        1.99696176364229       -1.34891423899782
O            1.37834532398275        2.66371595779585       -0.48901734549914
C            0.36591699807444        2.55101403647708       -2.69257476823713
N            0.77722662161220        1.63859833142977       -3.79777079762308
C           -1.17072565830950        2.64069089247819       -2.59973769833347
O           -1.43167766677763        3.53080094614028       -1.55983211121514
H            0.75977946000648       -1.02543921218557       -0.23519332587619
H            0.71824748518184        0.48622323903138        0.72584714185223
H            2.23002885285636       -0.01965906340153       -0.05649552772901
H            0.76405961395066        3.55901431555777       -2.83443103948368
H            0.61894432292402        0.67083456171982       -3.46755840748161
H            0.22887161551304        1.81165916526449       -4.65111356677438
H            1.77580928994505        1.75084265385787       -4.01609658890373
H           -1.57342160027721        3.00923587340088       -3.55731238881598
H           -1.58894053347105        1.64221161032241       -2.39620200951622
H           -2.37943048527467        3.66743139567830       -1.44746838768070

          :  Hamiltonian                  GFN2-xTB          :
         :: total energy             -28.327929607246 Eh    ::
         :: gradient norm              0.000654245013 Eh/a0 ::
         :: HOMO-LUMO gap              4.681379344488 eV    ::
         :: SCC energy               -28.594563481927 Eh    ::
         :: -> dispersion             -0.010048866275 Eh    ::
         :: repulsion energy           0.266633874681 Eh    ::

    * Orbital Energies and Occupations

         #    Occupation            Energy/Eh            Energy/eV
      -------------------------------------------------------------
         1        2.0000           -0.9185228             -24.9943
       ...           ...                  ...                  ...
        12        2.0000           -0.7492722             -20.3887
        13        2.0000           -0.7328364             -19.9415
        14        2.0000           -0.7130173             -19.4022
        15        2.0000           -0.7012133             -19.0810
        16        2.0000           -0.6934890             -18.8708
        17        2.0000           -0.6782005             -18.4548
        18        2.0000           -0.6626137             -18.0306
        19        2.0000           -0.6602497             -17.9663
        20        2.0000           -0.6300915             -17.1457
        21        2.0000           -0.6167434             -16.7824
        22        2.0000           -0.5957251             -16.2105
        23        2.0000           -0.5862967             -15.9539
        24        2.0000           -0.5698595             -15.5067 (HOMO)
        25                         -0.3978220             -10.8253 (LUMO)
        26                         -0.2723748              -7.4117
        27                         -0.1813187              -4.9339
        28                         -0.1718768              -4.6770
        29                         -0.1249080              -3.3989
        30                         -0.0952380              -2.5916
        31                         -0.0856761              -2.3314
        32                         -0.0565163              -1.5379
        33                         -0.0425640              -1.1582
        34                         -0.0308074              -0.8383
        35                         -0.0068230              -0.1857
       ...                                ...                  ...
        42                          0.5475071              14.8984
      -------------------------------------------------------------
                  HL-Gap            0.1720375 Eh            4.6814 eV

     #   Z          covCN         q      C6AA      α(0)
     1   6 C        3.650     0.012    20.696     6.534
     2   8 O        1.703    -0.267    18.429     5.796
     3   6 C        2.716     0.355    20.967     7.496
     4   8 O        0.856    -0.307    19.906     5.982
     5   6 C        3.778    -0.016    20.890     6.512
     6   7 N        3.484    -0.141    24.037     7.282
     7   6 C        3.675     0.074    19.568     6.338
     8   8 O        1.658    -0.412    21.078     6.198
     9   1 H        0.925     0.095     1.829     2.115
    10   1 H        0.925     0.095     1.831     2.116
    11   1 H        0.925     0.086     1.922     2.168
    12   1 H        0.924     0.138     1.474     1.899
    13   1 H        0.859     0.293     0.736     1.344
    14   1 H        0.859     0.277     0.785     1.388
    15   1 H        0.859     0.281     0.774     1.378
    16   1 H        0.923     0.053     2.285     2.364
    17   1 H        0.923     0.055     2.259     2.351
    18   1 H        0.805     0.330     0.638     1.255

Wiberg/Mayer (AO) data.
largest (>0.10) Wiberg bond orders for each atom

     #   Z sym  total        # sym  WBO       # sym  WBO       # sym  WBO
 ---------------------------------------------------------------------------
     1   6 C    3.888 --     9 H    0.977    10 H    0.974    11 H    0.974
                             2 O    0.925
     2   8 O    2.313 --     3 C    1.139     1 C    0.925     4 O    0.193
     3   6 C    3.943 --     4 O    1.837     2 O    1.139     5 C    0.911
     4   8 O    2.145 --     3 C    1.837     2 O    0.193
     5   6 C    3.895 --     7 C    0.972    12 H    0.951     6 N    0.932
                             3 C    0.911
     6   7 N    3.669 --     5 C    0.932    15 H    0.908    14 H    0.905
                            13 H    0.887
     7   6 C    3.962 --     8 O    1.027     5 C    0.972    17 H    0.964
                            16 H    0.961
     8   8 O    1.967 --     7 C    1.027    18 H    0.876
     9   1 H    0.991 --     1 C    0.977
    10   1 H    0.991 --     1 C    0.974
    11   1 H    0.993 --     1 C    0.974
    12   1 H    0.981 --     5 C    0.951
    13   1 H    0.914 --     6 N    0.887
    14   1 H    0.923 --     6 N    0.905
    15   1 H    0.921 --     6 N    0.908
    16   1 H    0.997 --     7 C    0.961
    17   1 H    0.997 --     7 C    0.964
    18   1 H    0.891 --     8 O    0.876
 ---------------------------------------------------------------------------

molecular dipole:
                 x           y           z       tot (Debye)
 q only:        0.614       2.397      -6.654
   full:        0.452       2.181      -7.025      18.732

           -------------------------------------------------
          | TOTAL ENERGY              -28.327929607246 Eh   |
          | GRADIENT NORM               0.000654245013 Eh/α |
          | HOMO-LUMO GAP               4.681379344488 eV   |
           -------------------------------------------------

 * finished run on 2024/12/20 at 02:07:20.087
