   * xtb version 6.7.1 (edcfbbe) compiled by 'conda@3ef47c1a292c' on 2024-11-25

   ID    Z sym.   atoms
    1    6 C      1-16, 18, 19, 21, 22
    2    7 N      17
    3    8 O      20, 23
    4    1 H      24-67

          program call               : xtb C0129.xyz --opt --namespace C0129 --charge +1
          :  Hamiltonian                  GFN2-xTB          :
 * total energy  :   -75.9267298 Eh     change       -0.2009273E-09 Eh
 * total energy  :   -75.9368202 Eh     change       -0.1009042E-01 Eh
 * total energy  :   -75.9392557 Eh     change       -0.2435403E-02 Eh
 * total energy  :   -75.9394797 Eh     change       -0.2240312E-03 Eh
 * total energy  :   -75.9397560 Eh     change       -0.2762910E-03 Eh
 * total energy  :   -75.9399096 Eh     change       -0.1536640E-03 Eh
 * total energy  :   -75.9401377 Eh     change       -0.2280508E-03 Eh
 * total energy  :   -75.9402886 Eh     change       -0.1508887E-03 Eh
 * total energy  :   -75.9403833 Eh     change       -0.9474789E-04 Eh
 * total energy  :   -75.9404567 Eh     change       -0.7339284E-04 Eh
 * total energy  :   -75.9427361 Eh     change       -0.1656796E-04 Eh
 * total energy  :   -75.9427503 Eh     change       -0.1413483E-04 Eh
 * total energy  :   -75.9427634 Eh     change       -0.1309029E-04 Eh
 * total energy  :   -75.9427781 Eh     change       -0.1476107E-04 Eh
 * total energy  :   -75.9427943 Eh     change       -0.1616482E-04 Eh
 * total energy  :   -75.9428092 Eh     change       -0.1488034E-04 Eh
 * total energy  :   -75.9428201 Eh     change       -0.1093525E-04 Eh
 * total energy  :   -75.9428272 Eh     change       -0.7097100E-05 Eh
 * total energy  :   -75.9428321 Eh     change       -0.4897549E-05 Eh
   *** GEOMETRY OPTIMIZATION CONVERGED AFTER 60 ITERATIONS ***

 final structure:
================
67
 xtb: 6.7.1 (edcfbbe)
C            1.55873116888131       -0.39792555282976        0.35894560221529
C            1.53620809440408        0.76339085453399        1.34572200965494
C            1.69642412016526        2.12860339179244        0.67502343684171
C            0.59417612258262        2.49114074247017       -0.32216353196752
C           -0.81879363640136        2.53342981463154        0.26258662876775
C           -1.01350645662483        3.52311113346570        1.41306569256226
C           -0.68500199667252        4.97899427400361        1.07572693698095
C           -1.47643878127102        5.56497785460569       -0.09506444147654
C           -2.99550190838996        5.55448640060356        0.08383110006442
C           -3.50987316686823        6.35632939351590        1.28096742272599
C           -3.15491048234502        7.84499945342904        1.26005175269345
C           -3.63010710752966        8.60257730063052        0.01803627474294
C           -5.13380041707870        8.51994912446923       -0.25449011180066
C           -6.03273647001624        9.03135821273125        0.87434952340535
C           -5.84537664093228       10.51424291998550        1.23567703837922
C           -6.25416017682952       11.47486713002179        0.08939974524048
N           -7.59051058267704       12.12782540974918        0.16580500985813
C           -7.70930335735770       13.11582591972524        1.28282475069846
C           -6.46815962064863       13.96551481855750        1.56241682897555
O           -6.02009006761150       14.59903170286749        0.38290620796851
C           -7.80285050846630       12.83722334882879       -1.11504660916686
C           -8.65712234151854       11.12237374097507        0.32158575397119
O           -6.56552951019585       10.84218101117867        2.41240706052543
H            0.69096423315364       -0.37468558030199       -0.29538451737093
H            1.55292942735853       -1.34562803807474        0.89253653897960
H            2.45541258447362       -0.35719342528708       -0.25578956915208
H            0.60730212580289        0.73662533406605        1.91824078774922
H            2.35759923569129        0.63771104728784        2.05557215979721
H            1.74914497725189        2.89502298403751        1.45117931587680
H            2.65059149865055        2.14314705037582        0.14193772234670
H            0.83441265852051        3.46373711611555       -0.75744870206920
H            0.60195701627162        1.76784675150374       -1.13969299497865
H           -1.51498203349594        2.77485214142347       -0.54405585768728
H           -1.08641560987281        1.53850710780339        0.62340388985465
H           -2.05015680246966        3.45454815046203        1.75142391190793
H           -0.38600727224672        3.22137587803953        2.25371581940539
H           -0.85534871670929        5.58458263644647        1.96916239731845
H            0.37721628274617        5.05857279002260        0.83773527777663
H           -1.13633911233545        6.58996852437193       -0.26095047650857
H           -1.24025859933161        5.00310009588347       -1.00026528008367
H           -3.45174192350658        5.93491658339349       -0.83319300073091
H           -3.33268812105194        4.52335633129241        0.20012044409910
H           -4.59532036183207        6.23874760977755        1.33147045849529
H           -3.10294071319263        5.92688627405087        2.19766064471054
H           -3.56747593399483        8.31182196006093        2.15863626503939
H           -2.07124509313004        7.95188828341770        1.32162602764425
H           -3.32646086096129        9.64881702902889        0.10793617296511
H           -3.11538479042374        8.20141436434279       -0.85537628491261
H           -5.34321661823633        9.06059537649828       -1.18134088661368
H           -5.40008402698497        7.47818348721779       -0.43355269210347
H           -7.07428853036260        8.84200218699297        0.60957904106295
H           -5.82087372839842        8.44735392546698        1.77220894985741
H           -4.77382961849297       10.68195628843480        1.41699999808858
H           -5.52171464849958       12.27586581795070       -0.00526795087078
H           -6.23005672346285       10.89738934766669       -0.83584671662948
H           -8.54280266640088       13.77504325803751        1.03609714411645
H           -7.93310060453646       12.57372562979508        2.20065654428821
H           -6.76562682150271       14.70297391085220        2.31699725725736
H           -5.67351245793331       13.34485708259214        1.99507390260491
H           -5.43382472757684       15.32903533436227        0.60625591141327
H           -7.70515479563974       12.14785810438655       -1.95121971934612
H           -8.80161151062145       13.26853434798975       -1.13742988721452
H           -7.07212571009287       13.63706308345717       -1.21519994984029
H           -8.63530323343813       10.42739659239652       -0.51582903669368
H           -8.51537895969160       10.57904789013980        1.25296616389263
H           -9.62842876559165       11.61310640215491        0.34442376144331
H           -6.25345622412833       10.28415453443394        3.13313293327066

          :  Hamiltonian                  GFN2-xTB          :
         :: total energy             -75.942832111241 Eh    ::
         :: gradient norm              0.000284147370 Eh/a0 ::
         :: HOMO-LUMO gap              6.289470197842 eV    ::
         :: SCC energy               -76.938127756531 Eh    ::
         :: -> dispersion             -0.056857907806 Eh    ::
         :: repulsion energy           0.995295645290 Eh    ::

    * Orbital Energies and Occupations

         #    Occupation            Energy/Eh            Energy/eV
      -------------------------------------------------------------
         1        2.0000           -0.8490278             -23.1032
       ...           ...                  ...                  ...
        58        2.0000           -0.5159212             -14.0389
        59        2.0000           -0.5105233             -13.8920
        60        2.0000           -0.5062686             -13.7763
        61        2.0000           -0.4998958             -13.6029
        62        2.0000           -0.4940359             -13.4434
        63        2.0000           -0.4899392             -13.3319
        64        2.0000           -0.4853884             -13.2081
        65        2.0000           -0.4757112             -12.9448
        66        2.0000           -0.4741018             -12.9010
        67        2.0000           -0.4708666             -12.8129
        68        2.0000           -0.4603746             -12.5274
        69        2.0000           -0.4552875             -12.3890
        70        2.0000           -0.4538771             -12.3506 (HOMO)
        71                         -0.2227433              -6.0612 (LUMO)
        72                         -0.1643475              -4.4721
        73                         -0.1440440              -3.9196
        74                         -0.1345686              -3.6618
        75                         -0.1068372              -2.9072
        76                         -0.0863067              -2.3485
        77                         -0.0627459              -1.7074
        78                         -0.0499411              -1.3590
        79                         -0.0399117              -1.0861
        80                         -0.0268398              -0.7303
        81                         -0.0186363              -0.5071
       ...                                ...                  ...
       136                          0.2665824               7.2541
      -------------------------------------------------------------
                  HL-Gap            0.2311338 Eh            6.2895 eV

     #   Z          covCN         q      C6AA      α(0)
     1   6 C        3.751    -0.102    22.505     6.765
     2   6 C        3.799    -0.052    21.509     6.603
     3   6 C        3.800    -0.057    21.601     6.617
     4   6 C        3.800    -0.057    21.600     6.617
     5   6 C        3.800    -0.056    21.591     6.616
     6   6 C        3.800    -0.057    21.595     6.616
     7   6 C        3.800    -0.057    21.599     6.617
     8   6 C        3.800    -0.058    21.613     6.619
     9   6 C        3.800    -0.058    21.627     6.621
    10   6 C        3.800    -0.059    21.634     6.622
    11   6 C        3.800    -0.059    21.631     6.622
    12   6 C        3.800    -0.064    21.721     6.636
    13   6 C        3.800    -0.066    21.768     6.643
    14   6 C        3.799    -0.085    22.130     6.698
    15   6 C        3.720     0.109    18.907     6.211
    16   6 C        3.761    -0.050    21.510     6.612
    17   7 N        3.621     0.150    18.709     6.424
    18   6 C        3.761    -0.046    21.444     6.601
    19   6 C        3.672     0.072    19.603     6.346
    20   8 O        1.655    -0.444    21.716     6.291
    21   6 C        3.730    -0.105    22.606     6.787
    22   6 C        3.723    -0.099    22.512     6.776
    23   8 O        1.655    -0.457    21.996     6.331
    24   1 H        0.925     0.034     2.533     2.489
    25   1 H        0.925     0.032     2.555     2.500
    26   1 H        0.925     0.034     2.527     2.486
    27   1 H        0.924     0.030     2.589     2.516
    28   1 H        0.924     0.027     2.623     2.533
    29   1 H        0.924     0.028     2.621     2.532
    30   1 H        0.924     0.029     2.600     2.521
    31   1 H        0.924     0.027     2.632     2.537
    32   1 H        0.924     0.033     2.550     2.497
    33   1 H        0.924     0.026     2.651     2.546
    34   1 H        0.924     0.033     2.546     2.495
    35   1 H        0.924     0.025     2.660     2.551
    36   1 H        0.924     0.033     2.540     2.492
    37   1 H        0.924     0.024     2.667     2.554
    38   1 H        0.924     0.034     2.526     2.486
    39   1 H        0.924     0.025     2.663     2.552
    40   1 H        0.924     0.036     2.503     2.474
    41   1 H        0.924     0.024     2.670     2.555
    42   1 H        0.924     0.038     2.474     2.460
    43   1 H        0.924     0.023     2.687     2.563
    44   1 H        0.924     0.040     2.451     2.448
    45   1 H        0.924     0.018     2.760     2.598
    46   1 H        0.924     0.044     2.397     2.421
    47   1 H        0.924     0.021     2.722     2.580
    48   1 H        0.924     0.051     2.309     2.376
    49   1 H        0.924     0.023     2.694     2.567
    50   1 H        0.925     0.060     2.205     2.322
    51   1 H        0.924     0.043     2.414     2.430
    52   1 H        0.924     0.059     2.205     2.322
    53   1 H        0.923     0.049     2.329     2.386
    54   1 H        0.925     0.103     1.756     2.072
    55   1 H        0.924     0.091     1.871     2.139
    56   1 H        0.924     0.093     1.852     2.128
    57   1 H        0.925     0.115     1.651     2.009
    58   1 H        0.924     0.060     2.193     2.316
    59   1 H        0.924     0.056     2.242     2.342
    60   1 H        0.805     0.312     0.687     1.302
    61   1 H        0.925     0.090     1.876     2.142
    62   1 H        0.925     0.094     1.837     2.119
    63   1 H        0.925     0.128     1.549     1.946
    64   1 H        0.925     0.095     1.834     2.118
    65   1 H        0.925     0.116     1.643     2.004
    66   1 H        0.925     0.091     1.865     2.135
    67   1 H        0.805     0.309     0.695     1.310

Wiberg/Mayer (AO) data.
largest (>0.10) Wiberg bond orders for each atom

     #   Z sym  total        # sym  WBO       # sym  WBO       # sym  WBO
 ---------------------------------------------------------------------------
     1   6 C    3.997 --     2 C    1.020    26 H    0.988    25 H    0.987
                            24 H    0.986
     2   6 C    3.998 --     1 C    1.020     3 C    1.008    28 H    0.978
                            27 H    0.976
     3   6 C    3.998 --     2 C    1.008     4 C    1.008    30 H    0.977
                            29 H    0.976
     4   6 C    3.998 --     5 C    1.008     3 C    1.008    32 H    0.975
                            31 H    0.975
     5   6 C    3.998 --     4 C    1.008     6 C    1.008    33 H    0.975
                            34 H    0.975
     6   6 C    3.997 --     5 C    1.008     7 C    1.008    35 H    0.975
                            36 H    0.975
     7   6 C    3.997 --     8 C    1.008     6 C    1.008    37 H    0.975
                            38 H    0.975
     8   6 C    3.997 --     9 C    1.008     7 C    1.008    39 H    0.975
                            40 H    0.974
     9   6 C    3.997 --     8 C    1.008    10 C    1.008    41 H    0.975
                            42 H    0.974
    10   6 C    3.997 --     9 C    1.008    11 C    1.007    43 H    0.975
                            44 H    0.974
    11   6 C    3.996 --    10 C    1.007    12 C    1.007    45 H    0.976
                            46 H    0.974
    12   6 C    3.995 --    11 C    1.007    13 C    1.007    47 H    0.975
                            48 H    0.972
    13   6 C    3.993 --    12 C    1.007    14 C    1.005    49 H    0.971
                            50 H    0.970
    14   6 C    3.991 --    13 C    1.005    15 C    0.987    51 H    0.973
                            52 H    0.967
    15   6 C    3.948 --    14 C    0.987    23 O    0.985    16 C    0.982
                            53 H    0.956
    16   6 C    3.932 --    15 C    0.982    54 H    0.963    55 H    0.958
                            17 N    0.940
    17   7 N    3.819 --    22 C    0.959    21 C    0.954    16 C    0.940
                            18 C    0.933
    18   6 C    3.935 --    19 C    1.006    56 H    0.966    57 H    0.958
                            17 N    0.933
    19   6 C    3.956 --    18 C    1.006    20 O    1.000    58 H    0.964
                            59 H    0.964
    20   8 O    1.957 --    19 C    1.000    60 H    0.887
    21   6 C    3.920 --    61 H    0.976    62 H    0.975    63 H    0.962
                            17 N    0.954
    22   6 C    3.926 --    66 H    0.976    64 H    0.975    65 H    0.966
                            17 N    0.959
    23   8 O    1.957 --    15 C    0.985    67 H    0.886
    24   1 H    0.999 --     1 C    0.986
    25   1 H    0.999 --     1 C    0.987
    26   1 H    0.999 --     1 C    0.988
    27   1 H    0.999 --     2 C    0.976
    28   1 H    0.999 --     2 C    0.978
    29   1 H    0.999 --     3 C    0.976
    30   1 H    0.999 --     3 C    0.977
    31   1 H    0.999 --     4 C    0.975
    32   1 H    0.999 --     4 C    0.975
    33   1 H    0.999 --     5 C    0.975
    34   1 H    0.999 --     5 C    0.975
    35   1 H    0.999 --     6 C    0.975
    36   1 H    0.999 --     6 C    0.975
    37   1 H    0.999 --     7 C    0.975
    38   1 H    0.999 --     7 C    0.975
    39   1 H    0.999 --     8 C    0.975
    40   1 H    0.999 --     8 C    0.974
    41   1 H    0.999 --     9 C    0.975
    42   1 H    0.999 --     9 C    0.974
    43   1 H    0.999 --    10 C    0.975
    44   1 H    0.998 --    10 C    0.974
    45   1 H    1.000 --    11 C    0.976
    46   1 H    0.998 --    11 C    0.974
    47   1 H    1.000 --    12 C    0.975
    48   1 H    0.997 --    12 C    0.972
    49   1 H    0.999 --    13 C    0.971
    50   1 H    0.996 --    13 C    0.970
    51   1 H    0.998 --    14 C    0.973
    52   1 H    0.996 --    14 C    0.967
    53   1 H    0.997 --    15 C    0.956
    54   1 H    0.989 --    16 C    0.963
    55   1 H    0.992 --    16 C    0.958
    56   1 H    0.991 --    18 C    0.966
    57   1 H    0.987 --    18 C    0.958
    58   1 H    0.996 --    19 C    0.964
    59   1 H    0.997 --    19 C    0.964
    60   1 H    0.903 --    20 O    0.887
    61   1 H    0.992 --    21 C    0.976
    62   1 H    0.991 --    21 C    0.975
    63   1 H    0.984 --    21 C    0.962
    64   1 H    0.991 --    22 C    0.975
    65   1 H    0.986 --    22 C    0.966
    66   1 H    0.992 --    22 C    0.976
    67   1 H    0.905 --    23 O    0.886
 ---------------------------------------------------------------------------

molecular dipole:
                 x           y           z       tot (Debye)
 q only:      -13.209      22.137       0.910
   full:      -13.045      22.172       1.143      65.451

           -------------------------------------------------
          | TOTAL ENERGY              -75.942832111241 Eh   |
          | GRADIENT NORM               0.000284147370 Eh/α |
          | HOMO-LUMO GAP               6.289470197842 eV   |
           -------------------------------------------------

 * finished run on 2024/12/20 at 02:07:39.469
