   * xtb version 6.7.1 (edcfbbe) compiled by 'conda@3ef47c1a292c' on 2024-11-25

   ID    Z sym.   atoms
    1    6 C      1-16, 18-25
    2    7 N      17
    3    1 H      26-69

          program call               : xtb C0127.xyz --opt --namespace C0127 --charge +1
          :  Hamiltonian                  GFN2-xTB          :
 * total energy  :   -76.3566354 Eh     change       -0.1147110E-07 Eh
 * total energy  :   -76.3643526 Eh     change       -0.7717170E-02 Eh
 * total energy  :   -76.3660351 Eh     change       -0.1682490E-02 Eh
 * total energy  :   -76.3661839 Eh     change       -0.1488425E-03 Eh
 * total energy  :   -76.3663330 Eh     change       -0.1491203E-03 Eh
 * total energy  :   -76.3664187 Eh     change       -0.8566612E-04 Eh
 * total energy  :   -76.3665344 Eh     change       -0.1157348E-03 Eh
 * total energy  :   -76.3666315 Eh     change       -0.9701978E-04 Eh
 * total energy  :   -76.3667198 Eh     change       -0.8832161E-04 Eh
 * total energy  :   -76.3667715 Eh     change       -0.5172572E-04 Eh
 * total energy  :   -76.3679444 Eh     change       -0.1409104E-04 Eh
 * total energy  :   -76.3679551 Eh     change       -0.1068301E-04 Eh
 * total energy  :   -76.3679640 Eh     change       -0.8928312E-05 Eh
 * total energy  :   -76.3679730 Eh     change       -0.9050354E-05 Eh
 * total energy  :   -76.3679833 Eh     change       -0.1020986E-04 Eh
 * total energy  :   -76.3679946 Eh     change       -0.1133112E-04 Eh
 * total energy  :   -76.3680064 Eh     change       -0.1185303E-04 Eh
 * total energy  :   -76.3680183 Eh     change       -0.1189250E-04 Eh
 * total energy  :   -76.3680228 Eh     change       -0.4419190E-05 Eh
   *** GEOMETRY OPTIMIZATION CONVERGED AFTER 44 ITERATIONS ***

 final structure:
================
69
 xtb: 6.7.1 (edcfbbe)
C            1.45589939237899       -0.32211681064279        0.75150482673996
C            1.52617810847755        1.18422777316362        0.97367010142100
C            1.70110182401909        1.97746553859347       -0.32225712748349
C            0.55342117784922        1.83664575312677       -1.32401110717581
C           -0.81058394148586        2.30385208541340       -0.81282207251410
C           -0.88117531079209        3.78008016140485       -0.41627944218362
C           -0.53149004847631        4.76747562844455       -1.53232044839723
C           -1.35607849503274        4.61364191320646       -2.81167169611386
C           -2.86603935059308        4.76902691778314       -2.62507020341506
C           -3.32048913010712        6.16431024079029       -2.19221514972892
C           -2.99603774367493        7.28641848599786       -3.18204878372715
C           -3.49424460264932        7.05139832396518       -4.61011499709025
C           -4.99481801714966        6.77915871291933       -4.73202593498250
C           -5.89492979879385        7.94952687791919       -4.32828191763227
C           -5.83563780706666        9.15092276099461       -5.28023550366298
C           -6.37115470147399        8.87274456137609       -6.68868222100734
N           -7.79624836879431        9.25615331579091       -6.96432620568031
C           -8.16008128872364        8.67245059168802       -8.28709004684664
C           -8.46583327264554        9.46283992862863       -9.38381282847615
C           -8.79971292594925        8.86949455852459      -10.59316119101467
C           -8.83030084369406        7.49382753838497      -10.72077775771490
C           -8.52145286847291        6.70438627165619       -9.62611399049729
C           -8.18790414738151        7.28730826690963       -8.41694258597967
C           -7.91394054386083       10.72599974157983       -6.95065835332419
C           -8.73167561458254        8.72507471773922       -5.95124553630097
H            0.55795530939192       -0.59757105590395        0.20413414050613
H            1.44149772497098       -0.84342910307950        1.70590029684058
H            2.32168091095197       -0.66410122969690        0.18826085379165
H            0.62763044037649        1.51769843360226        1.49585120581311
H            2.37768362183974        1.40457723719129        1.62216680773650
H            1.83512290951935        3.03188099646520       -0.07185350636419
H            2.61928628372973        1.64260037481413       -0.81198906583392
H            0.81421038462101        2.39954716969982       -2.22291518007065
H            0.46579073143417        0.78940546379056       -1.61981710072820
H           -1.55346495628388        2.10257260632613       -1.58822660752829
H           -1.09162550187788        1.70536034297245        0.05578340095159
H           -1.89016331112877        3.98838726716772       -0.05216468148273
H           -0.20174164940538        3.95943422303944        0.41896194249914
H           -0.65099819056682        5.78105604013810       -1.14242137768807
H            0.52178032172737        4.65105211635628       -1.79447069713631
H           -1.00181923364388        5.34709069964213       -3.53953836949695
H           -1.16711099442800        3.62698633774441       -3.23829187113464
H           -3.35782474320111        4.50056077526498       -3.56300454596452
H           -3.20704855380552        4.05436530141500       -1.87459882350049
H           -4.39889519409757        6.13636799171269       -2.01573681019919
H           -2.85243612823070        6.41185319624941       -1.23841073648066
H           -3.41354836104743        8.21867789034654       -2.79343838118684
H           -1.91443595894625        7.42169688881347       -3.22590480076113
H           -3.22318604803418        7.91728145387297       -5.21933021561946
H           -2.96501374414027        6.19491016952802       -5.02925902592038
H           -5.20416849412063        6.47742794357320       -5.76233964381581
H           -5.24810326845001        5.92870272958234       -4.09950295755212
H           -6.91947795724310        7.58602788986630       -4.23485114709543
H           -5.58954472923112        8.29377307455255       -3.34042218885562
H           -6.34607879627845        9.99656922563836       -4.81933678829348
H           -4.79063439588261        9.44433776849587       -5.38212402079977
H           -5.77236584774174        9.40367442096940       -7.43180942465790
H           -6.26770234830579        7.80710370955301       -6.89073815290833
H           -8.45690263381521       10.53793763752533       -9.34072429865752
H           -9.03597481719833        9.49917161933774      -11.43592394140734
H           -9.09092780830707        7.03936450059636      -11.66271684885047
H           -8.53859942301184        5.62930021423848       -9.70669135825742
H           -7.95328913063019        6.63701465358960       -7.58867961541119
H           -8.93321530424839       11.02361706482185       -7.18951510412511
H           -7.67191332041531       11.10282496460638       -5.95940522517750
H           -7.22237803025619       11.17281230237255       -7.66177239010201
H           -8.62233445546744        7.64944778987965       -5.84830496393798
H           -8.54710975691515        9.19170624982466       -4.98649900589989
H           -9.75390723340960        8.94171079834041       -6.25922960228337

          :  Hamiltonian                  GFN2-xTB          :
         :: total energy             -76.368022751073 Eh    ::
         :: gradient norm              0.000201241436 Eh/a0 ::
         :: HOMO-LUMO gap              2.077458744274 eV    ::
         :: SCC energy               -77.557175550882 Eh    ::
         :: -> dispersion             -0.061352263576 Eh    ::
         :: repulsion energy           1.189152799809 Eh    ::

    * Orbital Energies and Occupations

         #    Occupation            Energy/Eh            Energy/eV
      -------------------------------------------------------------
         1        2.0000           -0.8538855             -23.2354
       ...           ...                  ...                  ...
        60        2.0000           -0.5118469             -13.9281
        61        2.0000           -0.5054180             -13.7531
        62        2.0000           -0.5023843             -13.6706
        63        2.0000           -0.4952518             -13.4765
        64        2.0000           -0.4903196             -13.3423
        65        2.0000           -0.4867369             -13.2448
        66        2.0000           -0.4825699             -13.1314
        67        2.0000           -0.4720483             -12.8451
        68        2.0000           -0.4714049             -12.8276
        69        2.0000           -0.4680655             -12.7367
        70        2.0000           -0.4588348             -12.4855
        71        2.0000           -0.4530802             -12.3289
        72        2.0000           -0.4517369             -12.2924 (HOMO)
        73                         -0.3753917             -10.2149 (LUMO)
        74                         -0.3687095             -10.0331
        75                         -0.2421320              -6.5887
        76                         -0.2259367              -6.1481
        77                         -0.1558638              -4.2413
        78                         -0.1368531              -3.7240
        79                         -0.1276732              -3.4742
        80                         -0.0620810              -1.6893
        81                         -0.0609141              -1.6576
        82                         -0.0377652              -1.0276
        83                         -0.0279663              -0.7610
       ...                                ...                  ...
       144                          0.5192602              14.1298
      -------------------------------------------------------------
                  HL-Gap            0.0763452 Eh            2.0775 eV

     #   Z          covCN         q      C6AA      α(0)
     1   6 C        3.751    -0.102    22.501     6.765
     2   6 C        3.799    -0.052    21.511     6.604
     3   6 C        3.801    -0.057    21.603     6.617
     4   6 C        3.800    -0.057    21.597     6.617
     5   6 C        3.800    -0.056    21.589     6.616
     6   6 C        3.800    -0.057    21.595     6.616
     7   6 C        3.800    -0.057    21.597     6.617
     8   6 C        3.800    -0.057    21.606     6.618
     9   6 C        3.800    -0.058    21.619     6.620
    10   6 C        3.800    -0.059    21.629     6.622
    11   6 C        3.800    -0.059    21.641     6.624
    12   6 C        3.800    -0.061    21.673     6.628
    13   6 C        3.800    -0.062    21.699     6.632
    14   6 C        3.800    -0.070    21.835     6.653
    15   6 C        3.799    -0.072    21.885     6.661
    16   6 C        3.760    -0.035    21.247     6.571
    17   7 N        3.623     0.121    19.161     6.501
    18   6 C        2.934     0.029    27.344     8.576
    19   6 C        2.920    -0.040    29.001     8.831
    20   6 C        2.922    -0.017    28.436     8.745
    21   6 C        2.918    -0.015    28.392     8.738
    22   6 C        2.921    -0.017    28.434     8.744
    23   6 C        2.922    -0.039    28.972     8.827
    24   6 C        3.720    -0.087    22.276     6.741
    25   6 C        3.722    -0.084    22.217     6.731
    26   1 H        0.925     0.033     2.540     2.492
    27   1 H        0.925     0.032     2.557     2.501
    28   1 H        0.925     0.034     2.532     2.489
    29   1 H        0.924     0.030     2.585     2.514
    30   1 H        0.924     0.028     2.620     2.531
    31   1 H        0.924     0.028     2.610     2.526
    32   1 H        0.924     0.029     2.603     2.523
    33   1 H        0.924     0.027     2.627     2.535
    34   1 H        0.924     0.031     2.565     2.505
    35   1 H        0.924     0.025     2.657     2.549
    36   1 H        0.924     0.032     2.553     2.499
    37   1 H        0.924     0.025     2.659     2.550
    38   1 H        0.924     0.033     2.539     2.492
    39   1 H        0.924     0.026     2.646     2.544
    40   1 H        0.924     0.033     2.541     2.493
    41   1 H        0.924     0.026     2.650     2.546
    42   1 H        0.924     0.034     2.532     2.488
    43   1 H        0.924     0.023     2.691     2.565
    44   1 H        0.924     0.037     2.489     2.467
    45   1 H        0.924     0.023     2.691     2.565
    46   1 H        0.924     0.039     2.456     2.451
    47   1 H        0.924     0.024     2.670     2.555
    48   1 H        0.924     0.041     2.438     2.442
    49   1 H        0.924     0.023     2.683     2.562
    50   1 H        0.924     0.045     2.387     2.416
    51   1 H        0.924     0.018     2.771     2.603
    52   1 H        0.925     0.053     2.288     2.366
    53   1 H        0.924     0.030     2.581     2.512
    54   1 H        0.925     0.061     2.188     2.313
    55   1 H        0.925     0.047     2.359     2.402
    56   1 H        0.925     0.075     2.032     2.229
    57   1 H        0.924     0.074     2.040     2.234
    58   1 H        0.925     0.091     1.869     2.138
    59   1 H        0.926     0.063     2.167     2.302
    60   1 H        0.926     0.073     2.056     2.242
    61   1 H        0.926     0.075     2.029     2.227
    62   1 H        0.926     0.072     2.062     2.246
    63   1 H        0.926     0.054     2.269     2.355
    64   1 H        0.925     0.095     1.830     2.116
    65   1 H        0.925     0.095     1.827     2.114
    66   1 H        0.925     0.095     1.835     2.119
    67   1 H        0.925     0.097     1.809     2.103
    68   1 H        0.925     0.098     1.801     2.099
    69   1 H        0.925     0.091     1.872     2.140

Wiberg/Mayer (AO) data.
largest (>0.10) Wiberg bond orders for each atom

     #   Z sym  total        # sym  WBO       # sym  WBO       # sym  WBO
 ---------------------------------------------------------------------------
     1   6 C    3.997 --     2 C    1.020    28 H    0.988    27 H    0.987
                            26 H    0.986
     2   6 C    3.998 --     1 C    1.020     3 C    1.008    30 H    0.978
                            29 H    0.976
     3   6 C    3.998 --     2 C    1.008     4 C    1.008    32 H    0.977
                            31 H    0.975
     4   6 C    3.998 --     5 C    1.008     3 C    1.008    34 H    0.975
                            33 H    0.975
     5   6 C    3.998 --     4 C    1.008     6 C    1.008    35 H    0.975
                            36 H    0.974
     6   6 C    3.997 --     5 C    1.008     7 C    1.007    37 H    0.975
                            38 H    0.975
     7   6 C    3.997 --     8 C    1.008     6 C    1.007    39 H    0.975
                            40 H    0.975
     8   6 C    3.997 --     7 C    1.008     9 C    1.008    41 H    0.975
                            42 H    0.974
     9   6 C    3.997 --     8 C    1.008    10 C    1.008    43 H    0.975
                            44 H    0.973
    10   6 C    3.997 --     9 C    1.008    11 C    1.007    45 H    0.976
                            46 H    0.974
    11   6 C    3.996 --    12 C    1.007    10 C    1.007    47 H    0.975
                            48 H    0.974
    12   6 C    3.996 --    13 C    1.007    11 C    1.007    49 H    0.974
                            50 H    0.973
    13   6 C    3.995 --    14 C    1.008    12 C    1.007    52 H    0.971
                            51 H    0.970
    14   6 C    3.992 --    13 C    1.008    15 C    1.005    53 H    0.975
                            54 H    0.970
    15   6 C    3.983 --    14 C    1.005    16 C    1.003    55 H    0.965
                            56 H    0.964
    16   6 C    3.925 --    15 C    1.003    57 H    0.971    58 H    0.955
                            17 N    0.916
    17   7 N    3.804 --    24 C    0.964    25 C    0.955    16 C    0.916
                            18 C    0.906
    18   6 C    3.924 --    19 C    1.429    23 C    1.405    17 N    0.906
                            21 C    0.108
    19   6 C    3.988 --    18 C    1.429    20 C    1.425    59 H    0.962
                            22 C    0.108
    20   6 C    3.987 --    21 C    1.449    19 C    1.425    60 H    0.967
                            23 C    0.112
    21   6 C    3.985 --    20 C    1.449    22 C    1.430    61 H    0.966
                            18 C    0.108
    22   6 C    3.988 --    23 C    1.448    21 C    1.430    62 H    0.967
                            19 C    0.108
    23   6 C    3.990 --    22 C    1.448    18 C    1.405    63 H    0.959
                            20 C    0.112
    24   6 C    3.933 --    64 H    0.974    66 H    0.974    65 H    0.968
                            17 N    0.964
    25   6 C    3.931 --    69 H    0.977    68 H    0.971    67 H    0.970
                            17 N    0.955
    26   1 H    0.999 --     1 C    0.986
    27   1 H    0.999 --     1 C    0.987
    28   1 H    0.999 --     1 C    0.988
    29   1 H    0.999 --     2 C    0.976
    30   1 H    0.999 --     2 C    0.978
    31   1 H    0.999 --     3 C    0.975
    32   1 H    0.999 --     3 C    0.977
    33   1 H    0.999 --     4 C    0.975
    34   1 H    0.999 --     4 C    0.975
    35   1 H    0.999 --     5 C    0.975
    36   1 H    0.999 --     5 C    0.974
    37   1 H    0.999 --     6 C    0.975
    38   1 H    0.999 --     6 C    0.975
    39   1 H    0.999 --     7 C    0.975
    40   1 H    0.999 --     7 C    0.975
    41   1 H    0.999 --     8 C    0.975
    42   1 H    0.999 --     8 C    0.974
    43   1 H    0.999 --     9 C    0.975
    44   1 H    0.999 --     9 C    0.973
    45   1 H    0.999 --    10 C    0.976
    46   1 H    0.998 --    10 C    0.974
    47   1 H    0.999 --    11 C    0.975
    48   1 H    0.998 --    11 C    0.974
    49   1 H    0.999 --    12 C    0.974
    50   1 H    0.998 --    12 C    0.973
    51   1 H    1.000 --    13 C    0.970
    52   1 H    0.997 --    13 C    0.971
    53   1 H    0.999 --    14 C    0.975
    54   1 H    0.996 --    14 C    0.970
    55   1 H    0.998 --    15 C    0.965
    56   1 H    0.994 --    15 C    0.964
    57   1 H    0.994 --    16 C    0.971
    58   1 H    0.992 --    16 C    0.955
    59   1 H    0.996 --    19 C    0.962
    60   1 H    0.994 --    20 C    0.967
    61   1 H    0.993 --    21 C    0.966
    62   1 H    0.994 --    22 C    0.967
    63   1 H    0.997 --    23 C    0.959
    64   1 H    0.991 --    24 C    0.974
    65   1 H    0.990 --    24 C    0.968
    66   1 H    0.991 --    24 C    0.974
    67   1 H    0.990 --    25 C    0.970
    68   1 H    0.990 --    25 C    0.971
    69   1 H    0.992 --    25 C    0.977
 ---------------------------------------------------------------------------

molecular dipole:
                 x           y           z       tot (Debye)
 q only:      -14.381      16.756     -13.377
   full:      -14.425      16.850     -13.405      65.875

           -------------------------------------------------
          | TOTAL ENERGY              -76.368022751073 Eh   |
          | GRADIENT NORM               0.000201241436 Eh/α |
          | HOMO-LUMO GAP               2.077458744274 eV   |
           -------------------------------------------------

 * finished run on 2024/12/20 at 02:07:34.154
