   * xtb version 6.7.1 (edcfbbe) compiled by 'conda@3ef47c1a292c' on 2024-11-25

   ID    Z sym.   atoms
    1    8 O      1, 3
    2    6 C      2, 4-7
    3    7 N      8
    4    1 H      9-18

          program call               : xtb C0134.xyz --opt --namespace C0134 --charge +1
          :  Hamiltonian                  GFN2-xTB          :
 * total energy  :   -26.4503202 Eh     change       -0.3984724E-10 Eh
 * total energy  :   -26.4552031 Eh     change       -0.4882952E-02 Eh
 * total energy  :   -26.4568275 Eh     change       -0.1624339E-02 Eh
 * total energy  :   -26.4571840 Eh     change       -0.3565484E-03 Eh
 * total energy  :   -26.4572508 Eh     change       -0.6679670E-04 Eh
 * total energy  :   -26.4572702 Eh     change       -0.1938994E-04 Eh
 * total energy  :   -26.4572889 Eh     change       -0.1868991E-04 Eh
 * total energy  :   -26.4573024 Eh     change       -0.1349277E-04 Eh
 * total energy  :   -26.4573122 Eh     change       -0.9810937E-05 Eh
 * total energy  :   -26.4573158 Eh     change       -0.3616387E-05 Eh
   *** GEOMETRY OPTIMIZATION CONVERGED AFTER 10 ITERATIONS ***

 final structure:
================
18
 xtb: 6.7.1 (edcfbbe)
O            0.82637554887459       -0.79509509810320        0.45105484946669
C            0.33692047855515       -0.60013784858118       -0.73799483775811
O            0.94018973702705       -0.30916925881728       -1.73987257779153
C           -1.19247008949806       -0.78663691235023       -0.81239508803452
C           -1.60225455802596       -2.24470820572162       -0.56583092436695
C           -1.55077689846879       -2.85650623744090       -1.96407890878436
C           -2.14012747475910       -1.74535204647768       -2.82070580574560
N           -1.54532677130897       -0.51061735001086       -2.23490002089683
H            1.79249991607732       -0.67890878890205        0.49686791133857
H           -1.67132564160959       -0.09461192445326       -0.11833809080296
H           -0.93790508848724       -2.73525049238691        0.14107267767192
H           -2.61541117198973       -2.28794677598923       -0.16765709989186
H           -0.52302359906348       -3.06673784599166       -2.25972067355796
H           -2.12425693286171       -3.77600910977616       -2.03480620181967
H           -1.89244650840122       -1.82873062209958       -3.87719712759000
H           -3.22448402823936       -1.70837800660276       -2.70630758361368
H           -2.14290350908371        0.30759762549015       -2.36423832650013
H           -0.60314340873721       -0.30823110178557       -2.66597217132301

          :  Hamiltonian                  GFN2-xTB          :
         :: total energy             -26.457315812989 Eh    ::
         :: gradient norm              0.000622189770 Eh/a0 ::
         :: HOMO-LUMO gap              5.087414892885 eV    ::
         :: SCC energy               -26.746017958971 Eh    ::
         :: -> dispersion             -0.011125601394 Eh    ::
         :: repulsion energy           0.288702145982 Eh    ::

    * Orbital Energies and Occupations

         #    Occupation            Energy/Eh            Energy/eV
      -------------------------------------------------------------
         1        2.0000           -0.9239424             -25.1418
       ...           ...                  ...                  ...
        11        2.0000           -0.7523288             -20.4719
        12        2.0000           -0.7504875             -20.4218
        13        2.0000           -0.7283617             -19.8197
        14        2.0000           -0.7096913             -19.3117
        15        2.0000           -0.6835576             -18.6005
        16        2.0000           -0.6803687             -18.5138
        17        2.0000           -0.6728598             -18.3094
        18        2.0000           -0.6526252             -17.7588
        19        2.0000           -0.6437961             -17.5186
        20        2.0000           -0.6368025             -17.3283
        21        2.0000           -0.6340579             -17.2536
        22        2.0000           -0.6220331             -16.9264
        23        2.0000           -0.5986347             -16.2897 (HOMO)
        24                         -0.4116757             -11.2023 (LUMO)
        25                         -0.2491528              -6.7798
        26                         -0.1893558              -5.1526
        27                         -0.1523979              -4.1470
        28                         -0.1453957              -3.9564
        29                         -0.0979374              -2.6650
        30                         -0.0767176              -2.0876
        31                         -0.0578469              -1.5741
        32                         -0.0554821              -1.5097
        33                         -0.0134355              -0.3656
        34                         -0.0099980              -0.2721
       ...                                ...                  ...
        42                          0.4689337              12.7603
      -------------------------------------------------------------
                  HL-Gap            0.1869591 Eh            5.0874 eV

     #   Z          covCN         q      C6AA      α(0)
     1   8 O        1.659    -0.314    19.255     5.924
     2   6 C        2.691     0.359    20.905     7.483
     3   8 O        0.857    -0.387    21.429     6.206
     4   6 C        3.809    -0.006    20.681     6.473
     5   6 C        3.830    -0.076    21.925     6.662
     6   6 C        3.828    -0.078    21.961     6.668
     7   6 C        3.766    -0.027    21.092     6.546
     8   7 N        3.547    -0.065    22.492     7.044
     9   1 H        0.804     0.374     0.536     1.150
    10   1 H        0.924     0.115     1.654     2.011
    11   1 H        0.925     0.100     1.789     2.092
    12   1 H        0.925     0.090     1.883     2.146
    13   1 H        0.925     0.080     1.981     2.201
    14   1 H        0.925     0.101     1.779     2.086
    15   1 H        0.925     0.106     1.732     2.058
    16   1 H        0.924     0.102     1.763     2.076
    17   1 H        0.860     0.244     0.906     1.491
    18   1 H        0.856     0.282     0.769     1.373

Wiberg/Mayer (AO) data.
largest (>0.10) Wiberg bond orders for each atom

     #   Z sym  total        # sym  WBO       # sym  WBO       # sym  WBO
 ---------------------------------------------------------------------------
     1   8 O    2.289 --     2 C    1.235     9 H    0.834     3 O    0.190
     2   6 C    3.929 --     3 O    1.724     1 O    1.235     4 C    0.933
     3   8 O    2.097 --     2 C    1.724     1 O    0.190
     4   6 C    3.932 --     5 C    0.977    10 H    0.948     8 N    0.944
                             2 C    0.933
     5   6 C    3.974 --     6 C    1.005     4 C    0.977    12 H    0.970
                            11 H    0.966
     6   6 C    3.982 --     7 C    1.010     5 C    1.005    13 H    0.973
                            14 H    0.965
     7   6 C    3.912 --     6 C    1.010    16 H    0.970    15 H    0.967
                             8 N    0.934
     8   7 N    3.709 --     4 C    0.944     7 C    0.934    17 H    0.920
                            18 H    0.838
     9   1 H    0.860 --     1 O    0.834
    10   1 H    0.987 --     4 C    0.948
    11   1 H    0.990 --     5 C    0.966
    12   1 H    0.992 --     5 C    0.970
    13   1 H    0.994 --     6 C    0.973
    14   1 H    0.990 --     6 C    0.965
    15   1 H    0.989 --     7 C    0.967
    16   1 H    0.990 --     7 C    0.970
    17   1 H    0.940 --     8 N    0.920
    18   1 H    0.920 --     8 N    0.838
 ---------------------------------------------------------------------------

molecular dipole:
                 x           y           z       tot (Debye)
 q only:       -2.694      -2.110      -2.918
   full:       -2.602      -1.767      -2.932      10.928

           -------------------------------------------------
          | TOTAL ENERGY              -26.457315812989 Eh   |
          | GRADIENT NORM               0.000622189770 Eh/α |
          | HOMO-LUMO GAP               5.087414892885 eV   |
           -------------------------------------------------

 * finished run on 2024/12/20 at 02:07:45.083
