   * xtb version 6.7.1 (edcfbbe) compiled by 'conda@3ef47c1a292c' on 2024-11-25

   ID    Z sym.   atoms
    1    6 C      1-8, 10, 12, 13, 15-22
    2    8 O      9
    3    7 N      11, 14
    4    1 H      23-41

          program call               : xtb C0130.xyz --opt --namespace C0130 --charge +1
          :  Hamiltonian                  GFN2-xTB          :
 * total energy  :   -59.8948050 Eh     change       -0.5256595E-09 Eh
 * total energy  :   -59.9044596 Eh     change       -0.9654568E-02 Eh
 * total energy  :   -59.9070922 Eh     change       -0.2632645E-02 Eh
 * total energy  :   -59.9076674 Eh     change       -0.5752000E-03 Eh
 * total energy  :   -59.9081775 Eh     change       -0.5100642E-03 Eh
 * total energy  :   -59.9085381 Eh     change       -0.3605518E-03 Eh
 * total energy  :   -59.9088377 Eh     change       -0.2996076E-03 Eh
 * total energy  :   -59.9090522 Eh     change       -0.2145284E-03 Eh
 * total energy  :   -59.9091997 Eh     change       -0.1475192E-03 Eh
 * total energy  :   -59.9092876 Eh     change       -0.8787051E-04 Eh
 * total energy  :   -59.9094190 Eh     change       -0.1389312E-04 Eh
 * total energy  :   -59.9094516 Eh     change       -0.3257604E-04 Eh
 * total energy  :   -59.9094633 Eh     change       -0.1174480E-04 Eh
 * total energy  :   -59.9094814 Eh     change       -0.1810003E-04 Eh
 * total energy  :   -59.9094949 Eh     change       -0.1353860E-04 Eh
 * total energy  :   -59.9095073 Eh     change       -0.1234231E-04 Eh
 * total energy  :   -59.9095238 Eh     change       -0.1654432E-04 Eh
 * total energy  :   -59.9095388 Eh     change       -0.1494757E-04 Eh
 * total energy  :   -59.9095427 Eh     change       -0.3903598E-05 Eh
   *** GEOMETRY OPTIMIZATION CONVERGED AFTER 22 ITERATIONS ***

 final structure:
================
41
 xtb: 6.7.1 (edcfbbe)
C            2.56476113272545        0.26945152476397       -0.18976467281435
C            1.07665520746271        0.19675024951526       -0.15446627528387
C            0.43316599777694       -1.03474452142629       -0.03158349223517
C           -0.94039288735034       -1.11230513501003       -0.01958096292636
C           -1.72565751466735        0.04485368752199       -0.12155461411650
C           -1.08223176113562        1.27880121140216       -0.25407984958172
C            0.29560418806301        1.34504727832223       -0.26870671875893
C           -3.17810938947016       -0.12859854750424       -0.09783377074962
O           -3.73004469585559       -1.19941512602502       -0.17077510123414
C           -4.05227199476610        1.14340185688308        0.05773406290931
N           -3.72159801905258        1.91641032755184        1.22754001035013
C           -3.53190917191943        3.27006127854779        1.25974499961001
C           -3.25889933175554        3.61048626870938        2.54353927985008
N           -3.28009116009582        2.45817970569142        3.28096596765629
C           -3.56982409421907        1.43270884019601        2.46775565521430
C           -3.75131232957695        0.02667027629435        2.87439297894505
C           -3.03790015885685        2.40048740045359        4.68114151660754
C           -2.08834424209160        1.52386370256269        5.18968687107161
C           -1.85694665710693        1.49603624614739        6.55410575543563
C           -2.56587524251738        2.33422633586641        7.39935327296727
C           -3.50725041464082        3.21032470648509        6.88311481918632
C           -3.74629417543968        3.25034970511060        5.52088129210987
H            3.00007350176223       -0.36144381333250        0.58246127065705
H            2.92598526332526       -0.09697656050839       -1.15075531419461
H            2.91633691349503        1.28922698740274       -0.05978755675296
H            1.02259587873976       -1.93560568389156        0.04695268500768
H           -1.44203330475765       -2.06434839320752        0.06773766523118
H           -1.64448867803746        2.19151539484271       -0.37785541189415
H            0.77901006751062        2.30407827637872       -0.38198789640199
H           -3.93988321655945        1.77080501505387       -0.82846123577220
H           -5.09373367675257        0.80777275407584        0.11371551231865
H           -3.61396956138508        3.88368545208970        0.38625232622535
H           -3.04073584178354        4.56226314470232        2.98191676114800
H           -4.58436702850834       -0.42255824457858        2.33559542444126
H           -2.86445059784783       -0.56712366544654        2.64855619411533
H           -3.94079064811902       -0.03338465658094        3.94392406070825
H           -1.52269545735818        0.88970726757289        4.52455404788061
H           -1.11781541192668        0.82053748384468        6.95440629949419
H           -2.38194505812684        2.30745069712032        8.46152500298287
H           -4.05852685675295        3.86406025012759        7.53995559508693
H           -4.48500957242899        3.92282102227925        5.11207354550224

          :  Hamiltonian                  GFN2-xTB          :
         :: total energy             -59.909542682009 Eh    ::
         :: gradient norm              0.000288474958 Eh/a0 ::
         :: HOMO-LUMO gap              3.018671583266 eV    ::
         :: SCC energy               -60.923192707666 Eh    ::
         :: -> dispersion             -0.043580841737 Eh    ::
         :: repulsion energy           1.013650025657 Eh    ::

    * Orbital Energies and Occupations

         #    Occupation            Energy/Eh            Energy/eV
      -------------------------------------------------------------
         1        2.0000           -0.8804741             -23.9589
       ...           ...                  ...                  ...
        43        2.0000           -0.5911491             -16.0860
        44        2.0000           -0.5716466             -15.5553
        45        2.0000           -0.5653676             -15.3844
        46        2.0000           -0.5599718             -15.2376
        47        2.0000           -0.5594060             -15.2222
        48        2.0000           -0.5519581             -15.0195
        49        2.0000           -0.5503120             -14.9748
        50        2.0000           -0.5391948             -14.6722
        51        2.0000           -0.5379207             -14.6376
        52        2.0000           -0.5326564             -14.4943
        53        2.0000           -0.5225838             -14.2202
        54        2.0000           -0.5177956             -14.0899
        55        2.0000           -0.5120549             -13.9337 (HOMO)
        56                         -0.4011208             -10.9151 (LUMO)
        57                         -0.3949483             -10.7471
        58                         -0.3638026              -9.8996
        59                         -0.3569317              -9.7126
        60                         -0.3455344              -9.4025
        61                         -0.3384323              -9.2092
        62                         -0.3102559              -8.4425
        63                         -0.2271008              -6.1797
        64                         -0.2046181              -5.5679
        65                         -0.1665966              -4.5333
        66                         -0.1175642              -3.1991
       ...                                ...                  ...
       107                          0.5547912              15.0966
      -------------------------------------------------------------
                  HL-Gap            0.1109341 Eh            3.0187 eV

     #   Z          covCN         q      C6AA      α(0)
     1   6 C        3.759    -0.121    22.866     6.817
     2   6 C        2.966     0.042    27.055     8.532
     3   6 C        2.921    -0.033    28.814     8.803
     4   6 C        2.925    -0.017    28.443     8.746
     5   6 C        2.970    -0.029    28.725     8.791
     6   6 C        2.917    -0.033    28.830     8.805
     7   6 C        2.922    -0.036    28.893     8.815
     8   6 C        2.819     0.222    23.331     7.914
     9   8 O        0.858    -0.335    20.431     6.060
    10   6 C        3.740    -0.048    21.514     6.618
    11   7 N        2.871     0.040    20.546     6.732
    12   6 C        3.045    -0.010    28.212     8.712
    13   6 C        3.044    -0.007    28.145     8.701
    14   7 N        2.879     0.035    20.631     6.746
    15   6 C        3.093     0.110    25.477     8.273
    16   6 C        3.754    -0.132    23.103     6.854
    17   6 C        2.918     0.046    26.972     8.517
    18   6 C        2.919    -0.037    28.925     8.820
    19   6 C        2.921    -0.018    28.462     8.749
    20   6 C        2.919    -0.016    28.411     8.741
    21   6 C        2.921    -0.017    28.429     8.744
    22   6 C        2.921    -0.034    28.852     8.809
    23   1 H        0.925     0.066     2.127     2.281
    24   1 H        0.925     0.076     2.018     2.222
    25   1 H        0.925     0.059     2.214     2.327
    26   1 H        0.926     0.061     2.191     2.315
    27   1 H        0.926     0.071     2.072     2.251
    28   1 H        0.926     0.031     2.567     2.505
    29   1 H        0.926     0.051     2.308     2.376
    30   1 H        0.924     0.098     1.807     2.102
    31   1 H        0.924     0.101     1.779     2.086
    32   1 H        0.926     0.097     1.810     2.104
    33   1 H        0.926     0.100     1.780     2.087
    34   1 H        0.925     0.106     1.735     2.060
    35   1 H        0.924     0.099     1.798     2.097
    36   1 H        0.925     0.094     1.840     2.121
    37   1 H        0.926     0.052     2.294     2.368
    38   1 H        0.926     0.068     2.105     2.269
    39   1 H        0.926     0.072     2.068     2.249
    40   1 H        0.926     0.071     2.080     2.255
    41   1 H        0.926     0.057     2.229     2.335

Wiberg/Mayer (AO) data.
largest (>0.10) Wiberg bond orders for each atom

     #   Z sym  total        # sym  WBO       # sym  WBO       # sym  WBO
 ---------------------------------------------------------------------------
     1   6 C    3.990 --     2 C    1.042    25 H    0.982    23 H    0.968
                            24 H    0.953
     2   6 C    3.983 --     7 C    1.384     3 C    1.380     1 C    1.042
     3   6 C    3.990 --     4 C    1.487     2 C    1.380    26 H    0.966
     4   6 C    3.986 --     3 C    1.487     5 C    1.341    27 H    0.964
     5   6 C    3.985 --     6 C    1.356     4 C    1.341     8 C    1.075
     6   6 C    3.992 --     7 C    1.478     5 C    1.356    28 H    0.966
     7   6 C    3.991 --     6 C    1.478     2 C    1.384    29 H    0.967
     8   6 C    3.932 --     9 O    1.826     5 C    1.075    10 C    0.928
     9   8 O    2.095 --     8 C    1.826
    10   6 C    3.938 --    11 N    0.980    30 H    0.953    31 H    0.951
                             8 C    0.928
    11   7 N    3.688 --    15 C    1.320    12 C    1.199    10 C    0.980
    12   6 C    3.947 --    13 C    1.614    11 N    1.199    32 H    0.962
    13   6 C    3.949 --    12 C    1.614    14 N    1.195    33 H    0.962
    14   7 N    3.692 --    15 C    1.313    13 C    1.195    17 C    0.978
    15   6 C    3.951 --    11 N    1.320    14 N    1.313    16 C    1.050
    16   6 C    3.977 --    15 C    1.050    36 H    0.967    34 H    0.956
                            35 H    0.943
    17   6 C    3.936 --    22 C    1.393    18 C    1.392    14 N    0.978
                            20 C    0.104
    18   6 C    3.989 --    19 C    1.442    17 C    1.392    37 H    0.967
                            21 C    0.109
    19   6 C    3.988 --    18 C    1.442    20 C    1.438    38 H    0.967
                            22 C    0.109
    20   6 C    3.984 --    19 C    1.438    21 C    1.436    39 H    0.967
                            17 C    0.104
    21   6 C    3.988 --    22 C    1.444    20 C    1.436    40 H    0.967
                            18 C    0.109
    22   6 C    3.988 --    21 C    1.444    17 C    1.393    41 H    0.966
                            19 C    0.109
    23   1 H    0.993 --     1 C    0.968
    24   1 H    0.990 --     1 C    0.953
    25   1 H    0.996 --     1 C    0.982
    26   1 H    0.996 --     3 C    0.966
    27   1 H    0.995 --     4 C    0.964
    28   1 H    0.999 --     6 C    0.966
    29   1 H    0.997 --     7 C    0.967
    30   1 H    0.989 --    10 C    0.953
    31   1 H    0.989 --    10 C    0.951
    32   1 H    0.990 --    12 C    0.962
    33   1 H    0.989 --    13 C    0.962
    34   1 H    0.989 --    16 C    0.956
    35   1 H    0.990 --    16 C    0.943
    36   1 H    0.991 --    16 C    0.967
    37   1 H    0.997 --    18 C    0.967
    38   1 H    0.995 --    19 C    0.967
    39   1 H    0.995 --    20 C    0.967
    40   1 H    0.994 --    21 C    0.967
    41   1 H    0.997 --    22 C    0.966
 ---------------------------------------------------------------------------

molecular dipole:
                 x           y           z       tot (Debye)
 q only:       -4.476       3.887       5.267
   full:       -4.483       4.142       5.076      20.177

           -------------------------------------------------
          | TOTAL ENERGY              -59.909542682009 Eh   |
          | GRADIENT NORM               0.000288474958 Eh/α |
          | HOMO-LUMO GAP               3.018671583266 eV   |
           -------------------------------------------------

 * finished run on 2024/12/20 at 02:07:40.843
