   * xtb version 6.7.1 (edcfbbe) compiled by 'conda@3ef47c1a292c' on 2024-11-25

   ID    Z sym.   atoms
    1    6 C      1, 3, 4, 6-8, 10-15
    2    7 N      2, 5
    3    8 O      9
    4   17 Cl     16
    5    1 H      17-28

          program call               : xtb C0131.xyz --opt --namespace C0131 --charge +1
          :  Hamiltonian                  GFN2-xTB          :
 * total energy  :   -45.8787660 Eh     change       -0.6510135E-09 Eh
 * total energy  :   -45.8840795 Eh     change       -0.5313504E-02 Eh
 * total energy  :   -45.8855116 Eh     change       -0.1432125E-02 Eh
 * total energy  :   -45.8857568 Eh     change       -0.2451214E-03 Eh
 * total energy  :   -45.8859467 Eh     change       -0.1899628E-03 Eh
 * total energy  :   -45.8860787 Eh     change       -0.1319226E-03 Eh
 * total energy  :   -45.8862871 Eh     change       -0.2083950E-03 Eh
 * total energy  :   -45.8865617 Eh     change       -0.2746631E-03 Eh
 * total energy  :   -45.8868699 Eh     change       -0.3081925E-03 Eh
 * total energy  :   -45.8871393 Eh     change       -0.2694436E-03 Eh
 * total energy  :   -45.8908569 Eh     change       -0.5649464E-04 Eh
 * total energy  :   -45.8908806 Eh     change       -0.2365720E-04 Eh
 * total energy  :   -45.8909148 Eh     change       -0.3425015E-04 Eh
 * total energy  :   -45.8909434 Eh     change       -0.2858069E-04 Eh
 * total energy  :   -45.8909640 Eh     change       -0.2062081E-04 Eh
 * total energy  :   -45.8909768 Eh     change       -0.1274300E-04 Eh
 * total energy  :   -45.8909884 Eh     change       -0.1164891E-04 Eh
 * total energy  :   -45.8909927 Eh     change       -0.4250142E-05 Eh
 * total energy  :   -45.8909968 Eh     change       -0.4166754E-05 Eh
   *** GEOMETRY OPTIMIZATION CONVERGED AFTER 44 ITERATIONS ***

 final structure:
================
28
 xtb: 6.7.1 (edcfbbe)
C            2.33618847254673       -1.30837797422915        0.92935350275568
N            1.49596494384569       -0.26097362358900        1.44301917601697
C            1.53887289926255        1.04570768121221        1.05799925095795
C            0.58989573186628        1.71048500252457        1.77080090735092
N           -0.00851558373536        0.80226144383111        2.59296513658280
C            0.54862140042870       -0.38807169158116        2.36591107040507
C           -1.18601685725869        1.00263486403743        3.38581158708576
C           -2.31329104820397        0.08893154025023        2.82226145499258
O           -2.01669087213402       -0.74086705985921        1.99616422479412
C           -3.65997590220991        0.28979341151903        3.35446992751065
C           -3.95711957034555        1.16045047108668        4.40835374073056
C           -5.25895372908475        1.26688907746413        4.86061284442162
C           -6.27632527163686        0.52714949709941        4.27916369494912
C           -5.98581593957500       -0.33834431639034        3.22942529491164
C           -4.68626658688413       -0.46133222147312        2.77004713022097
Cl          -7.24080539934276       -1.26117468040577        2.50031987095985
H            2.29179535940454       -1.31975553666468       -0.15962110215281
H            1.99987558749214       -2.27060539625642        1.30824507345832
H            3.37145785783298       -1.14570331211846        1.23302987097548
H            2.22345833136309        1.40601401280226        0.31748006329052
H            0.31175881192332        2.74433096850079        1.75062228511058
H            0.28349859469473       -1.30189141605508        2.86009731263919
H           -1.00443262814742        0.71765564618551        4.42608690652290
H           -1.47994072485952        2.05119231195384        3.33954335384798
H           -3.18758581787548        1.74437315138705        4.88693206486924
H           -5.48874755344728        1.93384591834309        5.67679139685222
H           -7.28980311696162        0.61568182743346        4.63682357517340
H           -4.44864138895430       -1.13190959701257        1.95887038477098

          :  Hamiltonian                  GFN2-xTB          :
         :: total energy             -45.890996817336 Eh    ::
         :: gradient norm              0.000315421725 Eh/a0 ::
         :: HOMO-LUMO gap              2.235567940945 eV    ::
         :: SCC energy               -46.546781391709 Eh    ::
         :: -> dispersion             -0.026283206651 Eh    ::
         :: repulsion energy           0.655784574373 Eh    ::

    * Orbital Energies and Occupations

         #    Occupation            Energy/Eh            Energy/eV
      -------------------------------------------------------------
         1        2.0000           -1.1436993             -31.1216
       ...           ...                  ...                  ...
        29        2.0000           -0.6245735             -16.9955
        30        2.0000           -0.6127819             -16.6746
        31        2.0000           -0.6102109             -16.6047
        32        2.0000           -0.6037069             -16.4277
        33        2.0000           -0.6014066             -16.3651
        34        2.0000           -0.5814997             -15.8234
        35        2.0000           -0.5658620             -15.3979
        36        2.0000           -0.5596914             -15.2300
        37        2.0000           -0.5524397             -15.0326
        38        2.0000           -0.5411707             -14.7260
        39        2.0000           -0.5375010             -14.6261
        40        2.0000           -0.5099193             -13.8756
        41        2.0000           -0.5004852             -13.6189 (HOMO)
        42                         -0.4183296             -11.3833 (LUMO)
        43                         -0.3988273             -10.8526
        44                         -0.3658211              -9.9545
        45                         -0.3505847              -9.5399
        46                         -0.3231836              -8.7943
        47                         -0.2260756              -6.1518
        48                         -0.2166995              -5.8967
        49                         -0.1767769              -4.8103
        50                         -0.1261515              -3.4328
        51                         -0.0892549              -2.4287
        52                         -0.0744868              -2.0269
       ...                                ...                  ...
        81                          0.5362484              14.5921
      -------------------------------------------------------------
                  HL-Gap            0.0821556 Eh            2.2356 eV

     #   Z          covCN         q      C6AA      α(0)
     1   6 C        3.693    -0.087    22.347     6.764
     2   7 N        2.867     0.081    19.839     6.615
     3   6 C        3.071    -0.008    28.150     8.699
     4   6 C        3.066    -0.007    28.139     8.698
     5   7 N        2.872     0.074    19.951     6.634
     6   6 C        3.094     0.057    26.619     8.456
     7   6 C        3.743    -0.053    21.597     6.630
     8   6 C        2.823     0.230    23.178     7.889
     9   8 O        0.857    -0.347    20.642     6.091
    10   6 C        2.971    -0.013    28.334     8.731
    11   6 C        2.917    -0.033    28.817     8.803
    12   6 C        2.919    -0.017    28.439     8.745
    13   6 C        2.954    -0.020    28.498     8.756
    14   6 C        2.882     0.111    25.553     8.287
    15   6 C        2.965    -0.023    28.581     8.769
    16  17 Cl       0.968    -0.120   102.904    15.519
    17   1 H        0.925     0.109     1.708     2.043
    18   1 H        0.925     0.102     1.770     2.080
    19   1 H        0.924     0.105     1.741     2.063
    20   1 H        0.926     0.110     1.696     2.036
    21   1 H        0.926     0.105     1.740     2.063
    22   1 H        0.926     0.123     1.591     1.972
    23   1 H        0.924     0.104     1.745     2.066
    24   1 H        0.925     0.105     1.741     2.063
    25   1 H        0.926     0.053     2.284     2.363
    26   1 H        0.926     0.076     2.021     2.223
    27   1 H        0.926     0.089     1.885     2.147
    28   1 H        0.926     0.095     1.832     2.116

Wiberg/Mayer (AO) data.
largest (>0.10) Wiberg bond orders for each atom

     #   Z sym  total        # sym  WBO       # sym  WBO       # sym  WBO
 ---------------------------------------------------------------------------
     1   6 C    3.933 --     2 N    0.991    18 H    0.975    17 H    0.964
                            19 H    0.961
     2   7 N    3.720 --     6 C    1.365     3 C    1.221     1 C    0.991
     3   6 C    3.948 --     4 C    1.600     2 N    1.221    20 H    0.961
     4   6 C    3.947 --     3 C    1.600     5 N    1.215    21 H    0.961
     5   7 N    3.710 --     6 C    1.342     4 C    1.215     7 C    0.996
     6   6 C    3.945 --     2 N    1.365     5 N    1.342    22 H    0.952
     7   6 C    3.947 --     5 N    0.996    24 H    0.955    23 H    0.941
                             8 C    0.923
     8   6 C    3.932 --     9 O    1.816    10 C    1.074     7 C    0.923
     9   8 O    2.111 --     8 C    1.816
    10   6 C    3.983 --    15 C    1.355    11 C    1.353     8 C    1.074
    11   6 C    3.991 --    12 C    1.459    10 C    1.353    25 H    0.966
    12   6 C    3.988 --    11 C    1.459    13 C    1.429    26 H    0.965
    13   6 C    3.983 --    12 C    1.429    14 C    1.380    27 H    0.963
    14   6 C    3.933 --    15 C    1.416    13 C    1.380    16 Cl   1.016
    15   6 C    3.982 --    14 C    1.416    10 C    1.355    28 H    0.959
    16  17 Cl   1.172 --    14 C    1.016
    17   1 H    0.987 --     1 C    0.964
    18   1 H    0.989 --     1 C    0.975
    19   1 H    0.988 --     1 C    0.961
    20   1 H    0.988 --     3 C    0.961
    21   1 H    0.989 --     4 C    0.961
    22   1 H    0.985 --     6 C    0.952
    23   1 H    0.989 --     7 C    0.941
    24   1 H    0.989 --     7 C    0.955
    25   1 H    0.997 --    11 C    0.966
    26   1 H    0.994 --    12 C    0.965
    27   1 H    0.992 --    13 C    0.963
    28   1 H    0.991 --    15 C    0.959
 ---------------------------------------------------------------------------

molecular dipole:
                 x           y           z       tot (Debye)
 q only:        0.127       1.226       5.051
   full:       -0.135       1.143       5.065      13.203

           -------------------------------------------------
          | TOTAL ENERGY              -45.890996817336 Eh   |
          | GRADIENT NORM               0.000315421725 Eh/α |
          | HOMO-LUMO GAP               2.235567940945 eV   |
           -------------------------------------------------

 * finished run on 2024/12/20 at 02:07:41.928
