   * xtb version 6.7.1 (edcfbbe) compiled by 'conda@3ef47c1a292c' on 2024-11-25

   ID    Z sym.   atoms
    1    6 C      1-8, 10, 11, 13-16
    2    7 N      9, 12
    3    1 H      17-45

          program call               : xtb C0139.xyz --opt --namespace C0139 --charge +1
          :  Hamiltonian                  GFN2-xTB          :
 * total energy  :   -50.2302261 Eh     change       -0.2496847E-10 Eh
 * total energy  :   -50.2426313 Eh     change       -0.1240521E-01 Eh
 * total energy  :   -50.2454842 Eh     change       -0.2852897E-02 Eh
 * total energy  :   -50.2456195 Eh     change       -0.1352828E-03 Eh
 * total energy  :   -50.2457034 Eh     change       -0.8392929E-04 Eh
 * total energy  :   -50.2457799 Eh     change       -0.7649131E-04 Eh
 * total energy  :   -50.2458314 Eh     change       -0.5148110E-04 Eh
 * total energy  :   -50.2459125 Eh     change       -0.8111415E-04 Eh
 * total energy  :   -50.2459959 Eh     change       -0.8335529E-04 Eh
 * total energy  :   -50.2460680 Eh     change       -0.7210940E-04 Eh
 * total energy  :   -50.2465359 Eh     change       -0.3974736E-04 Eh
 * total energy  :   -50.2465642 Eh     change       -0.2830364E-04 Eh
 * total energy  :   -50.2465837 Eh     change       -0.1953428E-04 Eh
 * total energy  :   -50.2466005 Eh     change       -0.1677926E-04 Eh
 * total energy  :   -50.2466125 Eh     change       -0.1195925E-04 Eh
 * total energy  :   -50.2466319 Eh     change       -0.1939791E-04 Eh
 * total energy  :   -50.2466431 Eh     change       -0.1119580E-04 Eh
 * total energy  :   -50.2466496 Eh     change       -0.6559092E-05 Eh
 * total energy  :   -50.2466526 Eh     change       -0.2965572E-05 Eh
   *** GEOMETRY OPTIMIZATION CONVERGED AFTER 23 ITERATIONS ***

 final structure:
================
45
 xtb: 6.7.1 (edcfbbe)
C            1.56437280633943       -0.26175415454035       -0.01151737642310
C            1.06610920693081        1.17649827016127        0.06007552300937
C            1.27859364735624        1.95482557668382       -1.23962204063623
C            0.54432525377109        1.38960666698878       -2.45786332565562
C           -0.97465573057581        1.27568588740078       -2.30354785600161
C           -1.68402722003693        2.58951164732290       -1.96646668719542
C           -1.49270509774083        3.71225657912585       -2.99031479372563
C           -1.89502645980489        3.44520108529070       -4.44349171736827
N           -3.35127674797203        3.32367154609945       -4.77169413399144
C           -4.17574469093339        4.30384765154036       -4.02045450893940
C           -5.62014299048537        4.27936974359413       -4.57964359965499
N           -5.79756458633909        3.12982840055676       -5.43844190805478
C           -5.39243708413843        1.93266364102808       -4.73615472927230
C           -3.86304342804565        1.95502347930252       -4.49871861333233
C           -4.99057950549292        3.28689082054524       -6.62760939185143
C           -3.52637992543920        3.58909359799708       -6.22782433543362
H            0.98107463689656       -0.85054994659623       -0.71531247792950
H            1.48685230171004       -0.73282391335668        0.96487891879226
H            2.60658073557223       -0.28769539213526       -0.32022818070939
H            0.00979020247648        1.18368531162279        0.33642717621373
H            1.60895705964350        1.69623642490710        0.85218094039510
H            0.98346850747542        2.99461946891377       -1.07950797749477
H            2.34616174836657        1.95792823801272       -1.46922910917299
H            0.78389092356785        2.01252246307239       -3.32369267739429
H            0.93197755676036        0.39272550935693       -2.67059806940015
H           -1.38111695404096        0.84585556370082       -3.22353986012162
H           -1.19357712609512        0.56687709414231       -1.50454441318467
H           -2.74574738739227        2.39361828730661       -1.79362110918909
H           -1.28900524117683        2.95806702758832       -1.01937725514695
H           -1.97933749412246        4.61638251208750       -2.62235227138851
H           -0.42517655705124        3.93625431046889       -3.03478472895250
H           -1.51348503468473        4.27990780627989       -5.03706379215842
H           -1.40805597812839        2.53332004693006       -4.79371455123019
H           -3.72711959635501        5.29217733926555       -4.12682301773429
H           -4.16466205296061        4.02244801170499       -2.96786635132934
H           -6.34289177474539        4.22526757869002       -3.76399640352979
H           -5.83627815523923        5.17873077859336       -5.15783830170819
H           -5.93839392711419        1.88435775091804       -3.79344541987350
H           -5.67394460293549        1.06198907586600       -5.33001496050215
H           -3.62116832250273        1.68030878480064       -3.47479821585589
H           -3.35128588204354        1.26622439888340       -5.17305134854893
H           -5.06086477706241        2.37201821100858       -7.21705700274983
H           -5.39847548585638        4.10245132765231       -7.22663311590114
H           -3.27961292487393        4.63577577791028       -6.41254528085975
H           -2.82567184547098        2.96526971330718       -6.78411164881544

          :  Hamiltonian                  GFN2-xTB          :
         :: total energy             -50.246652576521 Eh    ::
         :: gradient norm              0.000460137573 Eh/a0 ::
         :: HOMO-LUMO gap              7.034412840095 eV    ::
         :: SCC energy               -50.930806019717 Eh    ::
         :: -> dispersion             -0.039007942808 Eh    ::
         :: repulsion energy           0.684153443196 Eh    ::

    * Orbital Energies and Occupations

         #    Occupation            Energy/Eh            Energy/eV
      -------------------------------------------------------------
         1        2.0000           -0.8624509             -23.4685
       ...           ...                  ...                  ...
        35        2.0000           -0.5923500             -16.1187
        36        2.0000           -0.5898680             -16.0511
        37        2.0000           -0.5792097             -15.7611
        38        2.0000           -0.5747265             -15.6391
        39        2.0000           -0.5623256             -15.3017
        40        2.0000           -0.5579506             -15.1826
        41        2.0000           -0.5428431             -14.7715
        42        2.0000           -0.5361082             -14.5882
        43        2.0000           -0.5307431             -14.4423
        44        2.0000           -0.5111959             -13.9103
        45        2.0000           -0.5094029             -13.8616
        46        2.0000           -0.5051875             -13.7469
        47        2.0000           -0.5005208             -13.6199 (HOMO)
        48                         -0.2420109              -6.5855 (LUMO)
        49                         -0.1710692              -4.6550
        50                         -0.1647090              -4.4820
        51                         -0.1561799              -4.2499
        52                         -0.0965426              -2.6271
        53                         -0.0934016              -2.5416
        54                         -0.0893406              -2.4311
        55                         -0.0765097              -2.0819
        56                         -0.0591439              -1.6094
        57                         -0.0455461              -1.2394
        58                         -0.0375891              -1.0229
       ...                                ...                  ...
        93                          0.2248518               6.1185
      -------------------------------------------------------------
                  HL-Gap            0.2585099 Eh            7.0344 eV

     #   Z          covCN         q      C6AA      α(0)
     1   6 C        3.752    -0.106    22.580     6.776
     2   6 C        3.799    -0.055    21.559     6.611
     3   6 C        3.800    -0.061    21.676     6.629
     4   6 C        3.800    -0.062    21.688     6.631
     5   6 C        3.800    -0.063    21.708     6.634
     6   6 C        3.799    -0.065    21.749     6.640
     7   6 C        3.799    -0.074    21.921     6.666
     8   6 C        3.752    -0.037    21.290     6.580
     9   7 N        3.625     0.118    19.213     6.510
    10   6 C        3.763    -0.034    21.231     6.568
    11   6 C        3.785    -0.014    20.850     6.504
    12   7 N        2.731    -0.150    24.248     7.313
    13   6 C        3.785    -0.014    20.850     6.504
    14   6 C        3.765    -0.037    21.267     6.573
    15   6 C        3.786    -0.014    20.837     6.502
    16   6 C        3.772    -0.035    21.237     6.567
    17   1 H        0.925     0.033     2.547     2.496
    18   1 H        0.925     0.040     2.443     2.444
    19   1 H        0.925     0.040     2.446     2.446
    20   1 H        0.924     0.028     2.615     2.529
    21   1 H        0.924     0.037     2.490     2.467
    22   1 H        0.924     0.025     2.652     2.547
    23   1 H        0.924     0.041     2.432     2.439
    24   1 H        0.924     0.022     2.704     2.572
    25   1 H        0.924     0.047     2.355     2.400
    26   1 H        0.924     0.016     2.791     2.612
    27   1 H        0.924     0.053     2.286     2.364
    28   1 H        0.924     0.023     2.695     2.567
    29   1 H        0.924     0.065     2.146     2.291
    30   1 H        0.924     0.051     2.311     2.377
    31   1 H        0.924     0.080     1.978     2.199
    32   1 H        0.924     0.074     2.038     2.232
    33   1 H        0.924     0.084     1.940     2.178
    34   1 H        0.924     0.078     1.997     2.210
    35   1 H        0.925     0.085     1.928     2.171
    36   1 H        0.924     0.079     1.993     2.208
    37   1 H        0.924     0.074     2.041     2.234
    38   1 H        0.924     0.073     2.049     2.238
    39   1 H        0.924     0.079     1.993     2.208
    40   1 H        0.925     0.091     1.872     2.139
    41   1 H        0.924     0.075     2.033     2.230
    42   1 H        0.924     0.075     2.032     2.229
    43   1 H        0.924     0.079     1.986     2.204
    44   1 H        0.924     0.078     2.004     2.214
    45   1 H        0.924     0.078     2.001     2.212

Wiberg/Mayer (AO) data.
largest (>0.10) Wiberg bond orders for each atom

     #   Z sym  total        # sym  WBO       # sym  WBO       # sym  WBO
 ---------------------------------------------------------------------------
     1   6 C    3.996 --     2 C    1.020    19 H    0.987    18 H    0.987
                            17 H    0.986
     2   6 C    3.997 --     1 C    1.020     3 C    1.008    21 H    0.977
                            20 H    0.976
     3   6 C    3.996 --     2 C    1.008     4 C    1.007    23 H    0.976
                            22 H    0.975
     4   6 C    3.996 --     3 C    1.007     5 C    1.007    24 H    0.976
                            25 H    0.974
     5   6 C    3.995 --     6 C    1.007     4 C    1.007    26 H    0.974
                            27 H    0.972
     6   6 C    3.992 --     5 C    1.007     7 C    1.006    29 H    0.968
                            28 H    0.968
     7   6 C    3.982 --     6 C    1.006     8 C    1.005    30 H    0.971
                            31 H    0.960
     8   6 C    3.931 --     7 C    1.005    32 H    0.968    33 H    0.964
                             9 N    0.924
     9   7 N    3.805 --    10 C    0.942    14 C    0.941    16 C    0.940
                             8 C    0.924
    10   6 C    3.936 --    11 C    0.978    34 H    0.971    35 H    0.969
                             9 N    0.942
    11   6 C    3.978 --    12 N    1.013    10 C    0.978    37 H    0.971
                            36 H    0.969
    12   7 N    3.152 --    11 C    1.013    15 C    1.013    13 C    1.012
    13   6 C    3.978 --    12 N    1.012    14 C    0.979    38 H    0.972
                            39 H    0.969
    14   6 C    3.934 --    13 C    0.979    41 H    0.972    40 H    0.961
                             9 N    0.941
    15   6 C    3.977 --    12 N    1.013    16 C    0.979    42 H    0.971
                            43 H    0.969
    16   6 C    3.937 --    15 C    0.979    45 H    0.972    44 H    0.971
                             9 N    0.940
    17   1 H    0.999 --     1 C    0.986
    18   1 H    0.998 --     1 C    0.987
    19   1 H    0.998 --     1 C    0.987
    20   1 H    0.999 --     2 C    0.976
    21   1 H    0.999 --     2 C    0.977
    22   1 H    0.999 --     3 C    0.975
    23   1 H    0.998 --     3 C    0.976
    24   1 H    1.000 --     4 C    0.976
    25   1 H    0.998 --     4 C    0.974
    26   1 H    1.000 --     5 C    0.974
    27   1 H    0.997 --     5 C    0.972
    28   1 H    0.999 --     6 C    0.968
    29   1 H    0.995 --     6 C    0.968
    30   1 H    0.997 --     7 C    0.971
    31   1 H    0.993 --     7 C    0.960
    32   1 H    0.994 --     8 C    0.968
    33   1 H    0.993 --     8 C    0.964
    34   1 H    0.994 --    10 C    0.971
    35   1 H    0.993 --    10 C    0.969
    36   1 H    0.994 --    11 C    0.969
    37   1 H    0.994 --    11 C    0.971
    38   1 H    0.995 --    13 C    0.972
    39   1 H    0.994 --    13 C    0.969
    40   1 H    0.992 --    14 C    0.961
    41   1 H    0.994 --    14 C    0.972
    42   1 H    0.994 --    15 C    0.971
    43   1 H    0.993 --    15 C    0.969
    44   1 H    0.994 --    16 C    0.971
    45   1 H    0.994 --    16 C    0.972
 ---------------------------------------------------------------------------

molecular dipole:
                 x           y           z       tot (Debye)
 q only:       -6.330       6.046      -8.587
   full:       -5.889       6.130      -8.569      30.680

           -------------------------------------------------
          | TOTAL ENERGY              -50.246652576521 Eh   |
          | GRADIENT NORM               0.000460137573 Eh/α |
          | HOMO-LUMO GAP               7.034412840095 eV   |
           -------------------------------------------------

 * finished run on 2024/12/20 at 02:07:51.236
