   * xtb version 6.7.1 (edcfbbe) compiled by 'conda@3ef47c1a292c' on 2024-11-25

   ID    Z sym.   atoms
    1    6 C      1-8, 10, 12, 15-21
    2    8 O      9
    3    7 N      11, 13, 14
    4    1 H      22-39

          program call               : xtb C0133.xyz --opt --namespace C0133 --charge +1
          :  Hamiltonian                  GFN2-xTB          :
 * total energy  :   -58.0569722 Eh     change       -0.3800551E-09 Eh
 * total energy  :   -58.0634272 Eh     change       -0.6454995E-02 Eh
 * total energy  :   -58.0648378 Eh     change       -0.1410616E-02 Eh
 * total energy  :   -58.0652228 Eh     change       -0.3850650E-03 Eh
 * total energy  :   -58.0655590 Eh     change       -0.3361876E-03 Eh
 * total energy  :   -58.0658201 Eh     change       -0.2611039E-03 Eh
 * total energy  :   -58.0660999 Eh     change       -0.2798001E-03 Eh
 * total energy  :   -58.0664067 Eh     change       -0.3067957E-03 Eh
 * total energy  :   -58.0666873 Eh     change       -0.2805471E-03 Eh
 * total energy  :   -58.0669251 Eh     change       -0.2377994E-03 Eh
 * total energy  :   -58.0708410 Eh     change       -0.8026995E-05 Eh
 * total energy  :   -58.0708478 Eh     change       -0.6840444E-05 Eh
 * total energy  :   -58.0708537 Eh     change       -0.5885492E-05 Eh
 * total energy  :   -58.0708591 Eh     change       -0.5419921E-05 Eh
 * total energy  :   -58.0708647 Eh     change       -0.5588801E-05 Eh
 * total energy  :   -58.0708719 Eh     change       -0.7153014E-05 Eh
 * total energy  :   -58.0708826 Eh     change       -0.1070286E-04 Eh
 * total energy  :   -58.0708966 Eh     change       -0.1398072E-04 Eh
 * total energy  :   -58.0708992 Eh     change       -0.2580950E-05 Eh
   *** GEOMETRY OPTIMIZATION CONVERGED AFTER 44 ITERATIONS ***

 final structure:
================
39
 xtb: 6.7.1 (edcfbbe)
C            2.65785962882716        0.18089336870269       -1.42266776252891
C            1.28509374015828        0.13310664159430       -0.84716682739048
C            0.78013129904326       -1.05893841517040       -0.32555721932316
C           -0.48918262415301       -1.11540122247751        0.19951972180367
C           -1.31368661092208        0.02114687066533        0.20471687066478
C           -0.80589723553670        1.21897563839052       -0.31261941721046
C            0.47403972063254        1.26707697123640       -0.82050136338044
C           -2.63638308086605       -0.10672362291249        0.78758890805186
O           -2.95497961711805       -1.02773427084287        1.52379108271368
C           -3.70574198532760        0.96465098033838        0.48238985689462
N           -3.84373824719944        1.89015598655140        1.58734336739814
C           -4.22046157434133        1.55715322594859        2.84003439424478
N           -4.52691955459983        0.32482606730873        3.23156345608782
N           -4.29539244624103        2.66011336108705        3.60838859070703
C           -3.96409802151362        3.75850046277983        2.82405047375194
C           -3.67925645637599        3.27011865965529        1.53893052549313
C           -3.33356848073662        4.12691040197866        0.50782868547749
C           -3.26424736194497        5.47711204945526        0.80262605579947
C           -3.53529660609713        5.95890731523591        2.07960952853785
C           -3.89477072010126        5.11057699191607        3.11176790400746
C           -4.66579175374187        2.67493489736294        5.00117440630332
H            3.36649210333969       -0.31983767490802       -0.76601299079101
H            2.67409912886862       -0.34372679124010       -2.37821647038860
H            2.98448697436088        1.20373239144878       -1.58789856740464
H            1.39793825950770       -1.94403640484038       -0.33336154984956
H           -0.88127006764629       -2.03611405752186        0.60396198516363
H           -1.38759989118351        2.12705993940770       -0.28098771015992
H            0.85772750395420        2.20058589631372       -1.20444567143132
H           -3.47186231745045        1.52746994996596       -0.41796898948131
H           -4.65684924359213        0.43939505999914        0.33266405092104
H           -4.19826707846793       -0.46191552550437        2.66030300479338
H           -4.74127204814440        0.14885483738407        4.19827513354124
H           -3.13797341338730        3.77458861958528       -0.49201602958444
H           -2.99849537903132        6.17202044841803        0.02246904227269
H           -3.47058711741368        7.01832861741616        2.26761262217760
H           -4.11395613543290        5.49730235890364        4.09322815856023
H           -5.71881795281943        2.41516959478373        5.12572851066823
H           -4.04845493071330        1.97536326491953        5.56753314782492
H           -4.50407040658582        3.67399711666716        5.39618108503548

          :  Hamiltonian                  GFN2-xTB          :
         :: total energy             -58.070899155155 Eh    ::
         :: gradient norm              0.000205892458 Eh/a0 ::
         :: HOMO-LUMO gap              2.783020210125 eV    ::
         :: SCC energy               -59.013772111921 Eh    ::
         :: -> dispersion             -0.040555639845 Eh    ::
         :: repulsion energy           0.942872956766 Eh    ::

    * Orbital Energies and Occupations

         #    Occupation            Energy/Eh            Energy/eV
      -------------------------------------------------------------
         1        2.0000           -0.8682346             -23.6259
       ...           ...                  ...                  ...
        41        2.0000           -0.5868674             -15.9695
        42        2.0000           -0.5754041             -15.6575
        43        2.0000           -0.5685625             -15.4714
        44        2.0000           -0.5664324             -15.4134
        45        2.0000           -0.5598171             -15.2334
        46        2.0000           -0.5558368             -15.1251
        47        2.0000           -0.5495492             -14.9540
        48        2.0000           -0.5334445             -14.5158
        49        2.0000           -0.5285750             -14.3833
        50        2.0000           -0.5232150             -14.2374
        51        2.0000           -0.5195312             -14.1372
        52        2.0000           -0.5139396             -13.9850
        53        2.0000           -0.5095503             -13.8656 (HOMO)
        54                         -0.4072762             -11.0826 (LUMO)
        55                         -0.3766195             -10.2483
        56                         -0.3466472              -9.4328
        57                         -0.3348428              -9.1115
        58                         -0.3326827              -9.0528
        59                         -0.3116876              -8.4815
        60                         -0.2213399              -6.0230
        61                         -0.2027019              -5.5158
        62                         -0.1765727              -4.8048
        63                         -0.1255193              -3.4156
        64                         -0.1064261              -2.8960
       ...                                ...                  ...
       102                          0.5612817              15.2733
      -------------------------------------------------------------
                  HL-Gap            0.1022741 Eh            2.7830 eV

     #   Z          covCN         q      C6AA      α(0)
     1   6 C        3.759    -0.122    22.882     6.820
     2   6 C        2.966     0.047    26.949     8.515
     3   6 C        2.921    -0.031    28.770     8.796
     4   6 C        2.924    -0.011    28.300     8.724
     5   6 C        2.970    -0.022    28.540     8.763
     6   6 C        2.917    -0.028    28.694     8.784
     7   6 C        2.922    -0.033    28.814     8.803
     8   6 C        2.822     0.220    23.361     7.920
     9   8 O        0.858    -0.377    21.218     6.176
    10   6 C        3.738    -0.039    21.344     6.592
    11   7 N        2.819    -0.030    21.830     6.939
    12   6 C        2.986     0.197    23.816     8.005
    13   7 N        2.637    -0.254    26.610     7.661
    14   7 N        2.817    -0.026    21.742     6.925
    15   6 C        3.082     0.038    27.056     8.527
    16   6 C        3.079     0.037    27.083     8.532
    17   6 C        2.911    -0.038    28.950     8.823
    18   6 C        2.925    -0.024    28.605     8.771
    19   6 C        2.926    -0.023    28.591     8.769
    20   6 C        2.911    -0.036    28.900     8.815
    21   6 C        3.690    -0.067    21.983     6.710
    22   1 H        0.925     0.070     2.081     2.256
    23   1 H        0.924     0.077     2.015     2.220
    24   1 H        0.925     0.061     2.184     2.311
    25   1 H        0.926     0.063     2.164     2.301
    26   1 H        0.926     0.072     2.068     2.249
    27   1 H        0.926     0.040     2.455     2.450
    28   1 H        0.926     0.055     2.256     2.349
    29   1 H        0.925     0.090     1.877     2.142
    30   1 H        0.924     0.088     1.899     2.155
    31   1 H        0.859     0.264     0.829     1.427
    32   1 H        0.860     0.215     1.035     1.593
    33   1 H        0.926     0.058     2.226     2.333
    34   1 H        0.926     0.072     2.063     2.246
    35   1 H        0.926     0.073     2.050     2.239
    36   1 H        0.926     0.064     2.152     2.294
    37   1 H        0.924     0.083     1.947     2.182
    38   1 H        0.924     0.078     1.996     2.209
    39   1 H        0.925     0.098     1.803     2.100

Wiberg/Mayer (AO) data.
largest (>0.10) Wiberg bond orders for each atom

     #   Z sym  total        # sym  WBO       # sym  WBO       # sym  WBO
 ---------------------------------------------------------------------------
     1   6 C    3.988 --     2 C    1.044    24 H    0.982    22 H    0.966
                            23 H    0.952
     2   6 C    3.980 --     7 C    1.377     3 C    1.375     1 C    1.044
     3   6 C    3.989 --     4 C    1.493     2 C    1.375    25 H    0.966
     4   6 C    3.985 --     3 C    1.493     5 C    1.326    26 H    0.964
     5   6 C    3.985 --     6 C    1.340     4 C    1.326     8 C    1.111
     6   6 C    3.991 --     7 C    1.486     5 C    1.340    27 H    0.963
     7   6 C    3.990 --     6 C    1.486     2 C    1.377    28 H    0.966
     8   6 C    3.923 --     9 O    1.746     5 C    1.111    10 C    0.941
     9   8 O    2.084 --     8 C    1.746
    10   6 C    3.948 --    11 N    0.973    29 H    0.963    30 H    0.954
                             8 C    0.941
    11   7 N    3.587 --    12 C    1.245    16 C    1.086    10 C    0.973
    12   6 C    3.972 --    13 N    1.313    14 N    1.255    11 N    1.245
    13   7 N    3.374 --    12 C    1.313    32 H    0.930    31 H    0.853
    14   7 N    3.596 --    12 C    1.255    15 C    1.088    21 C    0.990
    15   6 C    3.950 --    20 C    1.370    16 C    1.283    14 N    1.088
    16   6 C    3.949 --    17 C    1.369    15 C    1.283    11 N    1.086
    17   6 C    3.986 --    18 C    1.460    16 C    1.369    33 H    0.961
                            20 C    0.113
    18   6 C    3.981 --    17 C    1.460    19 C    1.410    34 H    0.967
    19   6 C    3.981 --    20 C    1.461    18 C    1.410    35 H    0.967
    20   6 C    3.986 --    19 C    1.461    15 C    1.370    36 H    0.962
                            17 C    0.113
    21   6 C    3.946 --    14 N    0.990    39 H    0.973    38 H    0.971
                            37 H    0.970
    22   1 H    0.992 --     1 C    0.966
    23   1 H    0.990 --     1 C    0.952
    24   1 H    0.996 --     1 C    0.982
    25   1 H    0.995 --     3 C    0.966
    26   1 H    0.995 --     4 C    0.964
    27   1 H    0.998 --     6 C    0.963
    28   1 H    0.996 --     7 C    0.966
    29   1 H    0.991 --    10 C    0.963
    30   1 H    0.991 --    10 C    0.954
    31   1 H    0.929 --    13 N    0.853
    32   1 H    0.953 --    13 N    0.930
    33   1 H    0.996 --    17 C    0.961
    34   1 H    0.994 --    18 C    0.967
    35   1 H    0.994 --    19 C    0.967
    36   1 H    0.995 --    20 C    0.962
    37   1 H    0.992 --    21 C    0.970
    38   1 H    0.993 --    21 C    0.971
    39   1 H    0.990 --    21 C    0.973
 ---------------------------------------------------------------------------

molecular dipole:
                 x           y           z       tot (Debye)
 q only:       -5.530       4.047       3.739
   full:       -5.572       3.981       3.778      19.879

           -------------------------------------------------
          | TOTAL ENERGY              -58.070899155155 Eh   |
          | GRADIENT NORM               0.000205892458 Eh/α |
          | HOMO-LUMO GAP               2.783020210125 eV   |
           -------------------------------------------------

 * finished run on 2024/12/20 at 02:07:44.718
