   * xtb version 6.7.1 (edcfbbe) compiled by 'conda@3ef47c1a292c' on 2024-11-25

   ID    Z sym.   atoms
    1    7 N      1, 8
    2    6 C      2-7, 9-11
    3    1 H      12-28

          program call               : xtb C0137.xyz --opt --namespace C0137 --charge +1
          :  Hamiltonian                  GFN2-xTB          :
 * total energy  :   -33.3836320 Eh     change       -0.1077893E-09 Eh
 * total energy  :   -33.3901534 Eh     change       -0.6521395E-02 Eh
 * total energy  :   -33.3919500 Eh     change       -0.1796628E-02 Eh
 * total energy  :   -33.3924708 Eh     change       -0.5207996E-03 Eh
 * total energy  :   -33.3928308 Eh     change       -0.3600123E-03 Eh
 * total energy  :   -33.3929519 Eh     change       -0.1210597E-03 Eh
 * total energy  :   -33.3930517 Eh     change       -0.9977981E-04 Eh
 * total energy  :   -33.3931857 Eh     change       -0.1340439E-03 Eh
 * total energy  :   -33.3933560 Eh     change       -0.1703036E-03 Eh
 * total energy  :   -33.3934914 Eh     change       -0.1354382E-03 Eh
 * total energy  :   -33.3940555 Eh     change       -0.9990670E-04 Eh
 * total energy  :   -33.3941469 Eh     change       -0.9138512E-04 Eh
 * total energy  :   -33.3942005 Eh     change       -0.5364049E-04 Eh
 * total energy  :   -33.3942401 Eh     change       -0.3954870E-04 Eh
 * total energy  :   -33.3942670 Eh     change       -0.2690916E-04 Eh
 * total energy  :   -33.3942833 Eh     change       -0.1632723E-04 Eh
 * total energy  :   -33.3943046 Eh     change       -0.2133378E-04 Eh
 * total energy  :   -33.3943129 Eh     change       -0.8304182E-05 Eh
 * total energy  :   -33.3943160 Eh     change       -0.3093818E-05 Eh
   *** GEOMETRY OPTIMIZATION CONVERGED AFTER 24 ITERATIONS ***

 final structure:
================
28
 xtb: 6.7.1 (edcfbbe)
N            0.11945213785404       -0.58425495936929       -0.61023763199027
C           -0.59183965100419       -1.41809572715584        0.39928087449299
C           -2.10152299939977       -1.34354835604615        0.22192394555474
C           -2.68138312114621        0.05395944610615        0.43488054154745
C           -2.23986598938124        1.07058414475341       -0.62058486463046
C           -0.89749634962051        1.73797564499274       -0.31754695439532
C            0.27114472047324        0.84413658364289       -0.09039966920748
N            1.30921428265218        1.22325597408285        0.45635652688936
C            2.50638166240495        0.47558443665227        0.63394417886746
C            2.40093555255866       -0.99434257520296        0.21601898287274
C            1.46038668878028       -1.10420805372275       -0.97913308584839
H           -0.47402119322617       -0.54995484058500       -1.44585987453186
H           -0.26134384872257       -2.45315807864482        0.28509384785992
H           -0.31074209590008       -1.06833819870575        1.39493511924248
H           -2.54949408106347       -2.02585220259616        0.94513018670523
H           -2.37328229948551       -1.70648783091964       -0.77307820374935
H           -2.41617160186213        0.41932275413518        1.42796293738428
H           -3.76717711960906       -0.03290777775355        0.40145865021017
H           -2.23847113974153        0.60462404041367       -1.61079389967189
H           -2.97953783489385        1.87029671093265       -0.66398676407517
H           -0.63932030935847        2.40975858723553       -1.14245022812113
H           -0.99116896267589        2.37149242446095        0.56652017333865
H            3.26798029386204        1.00248120240233        0.05018545781278
H            2.79589487154130        0.57711890204477        1.68218853065162
H            3.38147758961200       -1.37739552692885       -0.06100839970433
H            2.03101595895672       -1.60232846164860        1.04178636772502
H            1.84086439437769       -0.49886220127788       -1.80648981178571
H            1.36572044401795       -2.13854606129795       -1.31632693344170

          :  Hamiltonian                  GFN2-xTB          :
         :: total energy             -33.394316031773 Eh    ::
         :: gradient norm              0.000467997382 Eh/a0 ::
         :: HOMO-LUMO gap              3.988477470896 eV    ::
         :: SCC energy               -33.867917546896 Eh    ::
         :: -> dispersion             -0.022407409034 Eh    ::
         :: repulsion energy           0.473601515122 Eh    ::

    * Orbital Energies and Occupations

         #    Occupation            Energy/Eh            Energy/eV
      -------------------------------------------------------------
         1        2.0000           -0.8650985             -23.5405
       ...           ...                  ...                  ...
        19        2.0000           -0.6558906             -17.8477
        20        2.0000           -0.6428747             -17.4935
        21        2.0000           -0.6380074             -17.3611
        22        2.0000           -0.6345289             -17.2664
        23        2.0000           -0.6298269             -17.1385
        24        2.0000           -0.6182105             -16.8224
        25        2.0000           -0.6087506             -16.5649
        26        2.0000           -0.5992735             -16.3071
        27        2.0000           -0.5862098             -15.9516
        28        2.0000           -0.5814831             -15.8230
        29        2.0000           -0.5759837             -15.6733
        30        2.0000           -0.5673454             -15.4383
        31        2.0000           -0.5399143             -14.6918 (HOMO)
        32                         -0.3933405             -10.7033 (LUMO)
        33                         -0.2401760              -6.5355
        34                         -0.1745382              -4.7494
        35                         -0.1315360              -3.5793
        36                         -0.1262264              -3.4348
        37                         -0.1105561              -3.0084
        38                         -0.0668123              -1.8181
        39                         -0.0606964              -1.6516
        40                         -0.0531870              -1.4473
        41                         -0.0497616              -1.3541
        42                         -0.0394938              -1.0747
       ...                                ...                  ...
        61                          0.5069520              13.7949
      -------------------------------------------------------------
                  HL-Gap            0.1465739 Eh            3.9885 eV

     #   Z          covCN         q      C6AA      α(0)
     1   7 N        3.575     0.006    21.151     6.831
     2   6 C        3.741    -0.022    21.046     6.545
     3   6 C        3.802    -0.077    21.961     6.672
     4   6 C        3.801    -0.075    21.933     6.668
     5   6 C        3.800    -0.070    21.840     6.654
     6   6 C        3.809    -0.090    22.210     6.708
     7   6 C        2.826     0.140    24.938     8.183
     8   7 N        1.829    -0.180    25.698     7.512
     9   6 C        3.758    -0.003    20.688     6.485
    10   6 C        3.803    -0.082    22.057     6.686
    11   6 C        3.746    -0.017    20.952     6.529
    12   1 H        0.859     0.224     0.993     1.561
    13   1 H        0.924     0.083     1.943     2.180
    14   1 H        0.924     0.089     1.891     2.150
    15   1 H        0.924     0.080     1.982     2.202
    16   1 H        0.924     0.055     2.255     2.348
    17   1 H        0.924     0.058     2.218     2.329
    18   1 H        0.925     0.069     2.097     2.265
    19   1 H        0.924     0.040     2.455     2.450
    20   1 H        0.925     0.074     2.047     2.237
    21   1 H        0.924     0.094     1.840     2.121
    22   1 H        0.924     0.104     1.746     2.067
    23   1 H        0.924     0.093     1.850     2.127
    24   1 H        0.924     0.096     1.824     2.112
    25   1 H        0.925     0.083     1.952     2.185
    26   1 H        0.925     0.065     2.139     2.287
    27   1 H        0.924     0.083     1.948     2.183
    28   1 H        0.924     0.080     1.978     2.199

Wiberg/Mayer (AO) data.
largest (>0.10) Wiberg bond orders for each atom

     #   Z sym  total        # sym  WBO       # sym  WBO       # sym  WBO
 ---------------------------------------------------------------------------
     1   7 N    3.748 --    11 C    0.943     2 C    0.926    12 H    0.905
                             7 C    0.824
     2   6 C    3.928 --     3 C    1.009    14 H    0.967    13 H    0.965
                             1 N    0.926
     3   6 C    3.986 --     2 C    1.009     4 C    1.008    16 H    0.970
                            15 H    0.964
     4   6 C    3.991 --     3 C    1.008     5 C    1.007    17 H    0.974
                            18 H    0.972
     5   6 C    3.991 --     4 C    1.007     6 C    1.003    20 H    0.971
                            19 H    0.969
     6   6 C    3.983 --     7 C    1.020     5 C    1.003    22 H    0.947
                            21 H    0.934
     7   6 C    3.939 --     8 N    1.942     6 C    1.020     1 N    0.824
     8   7 N    3.197 --     7 C    1.942     9 C    1.031
     9   6 C    3.974 --     8 N    1.031    10 C    0.996    24 H    0.945
                            23 H    0.938
    10   6 C    3.987 --    11 C    1.009     9 C    0.996    26 H    0.972
                            25 H    0.967
    11   6 C    3.935 --    10 C    1.009    27 H    0.969    28 H    0.968
                             1 N    0.943
    12   1 H    0.950 --     1 N    0.905
    13   1 H    0.993 --     2 C    0.965
    14   1 H    0.992 --     2 C    0.967
    15   1 H    0.993 --     3 C    0.964
    16   1 H    0.997 --     3 C    0.970
    17   1 H    0.997 --     4 C    0.974
    18   1 H    0.995 --     4 C    0.972
    19   1 H    0.998 --     5 C    0.969
    20   1 H    0.994 --     5 C    0.971
    21   1 H    0.991 --     6 C    0.934
    22   1 H    0.989 --     6 C    0.947
    23   1 H    0.991 --     9 C    0.938
    24   1 H    0.990 --     9 C    0.945
    25   1 H    0.993 --    10 C    0.967
    26   1 H    0.996 --    10 C    0.972
    27   1 H    0.993 --    11 C    0.969
    28   1 H    0.993 --    11 C    0.968
 ---------------------------------------------------------------------------

molecular dipole:
                 x           y           z       tot (Debye)
 q only:        0.132      -0.776      -0.581
   full:        0.060      -1.125      -0.918       3.694

           -------------------------------------------------
          | TOTAL ENERGY              -33.394316031773 Eh   |
          | GRADIENT NORM               0.000467997382 Eh/α |
          | HOMO-LUMO GAP               3.988477470896 eV   |
           -------------------------------------------------

 * finished run on 2024/12/20 at 02:07:47.129
