   * xtb version 6.7.1 (edcfbbe) compiled by 'conda@3ef47c1a292c' on 2024-11-25

   ID    Z sym.   atoms
    1    6 C      1, 2, 5, 6, 8-15
    2    8 O      3, 17, 18
    3    7 N      4, 7, 16
    4    1 H      19-32

          program call               : xtb C0132.xyz --opt --namespace C0132 --charge +1
          :  Hamiltonian                  GFN2-xTB          :
 * total energy  :   -53.2528657 Eh     change       -0.3923120E-09 Eh
 * total energy  :   -53.2624913 Eh     change       -0.9625542E-02 Eh
 * total energy  :   -53.2645546 Eh     change       -0.2063367E-02 Eh
 * total energy  :   -53.2648127 Eh     change       -0.2580424E-03 Eh
 * total energy  :   -53.2650089 Eh     change       -0.1961945E-03 Eh
 * total energy  :   -53.2651636 Eh     change       -0.1547754E-03 Eh
 * total energy  :   -53.2654099 Eh     change       -0.2462362E-03 Eh
 * total energy  :   -53.2656491 Eh     change       -0.2391793E-03 Eh
 * total energy  :   -53.2659490 Eh     change       -0.2999238E-03 Eh
 * total energy  :   -53.2662844 Eh     change       -0.3353830E-03 Eh
 * total energy  :   -53.2671167 Eh     change       -0.9421473E-05 Eh
 * total energy  :   -53.2671309 Eh     change       -0.1416524E-04 Eh
 * total energy  :   -53.2671431 Eh     change       -0.1222434E-04 Eh
 * total energy  :   -53.2671514 Eh     change       -0.8270593E-05 Eh
 * total energy  :   -53.2671589 Eh     change       -0.7476731E-05 Eh
 * total energy  :   -53.2671674 Eh     change       -0.8514890E-05 Eh
 * total energy  :   -53.2671767 Eh     change       -0.9277740E-05 Eh
 * total energy  :   -53.2671844 Eh     change       -0.7676696E-05 Eh
 * total energy  :   -53.2671883 Eh     change       -0.3917837E-05 Eh
   *** GEOMETRY OPTIMIZATION CONVERGED AFTER 37 ITERATIONS ***

 final structure:
================
32
 xtb: 6.7.1 (edcfbbe)
C            1.33938071329792        0.46704260688691        0.01064267769878
C            0.64404206274282        0.00929625700226       -1.25855637578906
O            0.99731264029522       -1.33335847541378       -1.65125130804085
N            2.28437658841353       -1.50330568827411       -2.03120620942431
C            3.30069069029036       -1.92359256297076       -1.23073678698809
C            4.39869390122140       -2.03265747941503       -2.02938948103752
N            4.03294811140981       -1.67446475885464       -3.29096240146110
C            2.74175102207767       -1.35912261632145       -3.27544921900033
C            4.88359312630978       -1.72845089866548       -4.46604203166281
C            4.77819148726095       -3.09170060013441       -5.11709595841308
C            5.56133466464243       -4.14420831105998       -4.65479793538859
C            5.44765832649996       -5.39852340376033       -5.22427707716450
C            4.54162886762867       -5.59032549166927       -6.25703225916885
C            3.75879981218609       -4.54955696347370       -6.73439770410527
C            3.87811301207376       -3.29929030034977       -6.15652329337036
N            4.40826530277739       -6.91418083357093       -6.85225329507011
O            5.10647032575988       -7.78880897923288       -6.40131963021446
O            3.60414727617662       -7.03379911042403       -7.74381161629275
H            1.17091067086913       -0.24554567661594        0.81416453226348
H            0.92340427707099        1.42371267168464        0.31188695989940
H            2.41019128076426        0.59638570176444       -0.13892618179473
H           -0.43219380184929       -0.07778306667370       -1.10628467119625
H            0.83729059792233        0.69533853451955       -2.09077803116882
H            3.16736088099940       -2.11930366222455       -0.18598246261985
H            5.39679756292281       -2.32994381639423       -1.77869990405658
H            2.15084698687202       -1.04926653960867       -4.11592180431571
H            4.56829737516772       -0.94996487030269       -5.16318906164749
H            5.91139789823970       -1.53474364985191       -4.15314075549738
H            6.27309466301167       -3.98540406422089       -3.85922796725343
H            6.04841337987919       -6.22901263468594       -4.88610468266925
H            3.07243810143018       -4.73294496309053       -7.54693826134635
H            3.27945219564455       -2.48241635459750       -6.53009780370457

          :  Hamiltonian                  GFN2-xTB          :
         :: total energy             -53.267188268467 Eh    ::
         :: gradient norm              0.000376513676 Eh/a0 ::
         :: HOMO-LUMO gap              2.749134088225 eV    ::
         :: SCC energy               -53.958980512316 Eh    ::
         :: -> dispersion             -0.028859996946 Eh    ::
         :: repulsion energy           0.691792243849 Eh    ::

    * Orbital Energies and Occupations

         #    Occupation            Energy/Eh            Energy/eV
      -------------------------------------------------------------
         1        2.0000           -0.9207133             -25.0539
       ...           ...                  ...                  ...
        35        2.0000           -0.6275213             -17.0757
        36        2.0000           -0.6215934             -16.9144
        37        2.0000           -0.6097892             -16.5932
        38        2.0000           -0.5998736             -16.3234
        39        2.0000           -0.5954982             -16.2043
        40        2.0000           -0.5932420             -16.1429
        41        2.0000           -0.5851908             -15.9239
        42        2.0000           -0.5677204             -15.4485
        43        2.0000           -0.5606000             -15.2547
        44        2.0000           -0.5597655             -15.2320
        45        2.0000           -0.5548146             -15.0973
        46        2.0000           -0.5411190             -14.7246
        47        2.0000           -0.5295964             -14.4111 (HOMO)
        48                         -0.4285676             -11.6619 (LUMO)
        49                         -0.4176623             -11.3652
        50                         -0.3895779             -10.6010
        51                         -0.3729430             -10.1483
        52                         -0.3519405              -9.5768
        53                         -0.2584964              -7.0340
        54                         -0.2384966              -6.4898
        55                         -0.1582623              -4.3065
        56                         -0.1187774              -3.2321
        57                         -0.1165720              -3.1721
        58                         -0.0707956              -1.9264
       ...                                ...                  ...
        86                          0.5062838              13.7767
      -------------------------------------------------------------
                  HL-Gap            0.1010288 Eh            2.7491 eV

     #   Z          covCN         q      C6AA      α(0)
     1   6 C        3.750    -0.130    23.058     6.848
     2   6 C        3.681     0.059    19.792     6.371
     3   8 O        1.766    -0.219    17.629     5.670
     4   7 N        2.907     0.211    17.768     6.260
     5   6 C        3.042    -0.016    28.379     8.738
     6   6 C        3.080    -0.007    28.115     8.693
     7   7 N        2.872     0.073    19.971     6.637
     8   6 C        3.069     0.032    27.222     8.555
     9   6 C        3.747    -0.033    21.238     6.573
    10   6 C        2.972     0.009    27.808     8.650
    11   6 C        2.924    -0.031    28.771     8.796
    12   6 C        2.917    -0.016    28.411     8.741
    13   6 C        2.917     0.012    27.752     8.639
    14   6 C        2.917    -0.016    28.407     8.740
    15   6 C        2.924    -0.032    28.788     8.799
    16   7 N        2.758     0.555    13.430     5.443
    17   8 O        0.930    -0.359    20.837     6.122
    18   8 O        0.930    -0.359    20.838     6.122
    19   1 H        0.925     0.074     2.044     2.236
    20   1 H        0.925     0.081     1.965     2.192
    21   1 H        0.925     0.049     2.330     2.387
    22   1 H        0.924     0.108     1.711     2.046
    23   1 H        0.924     0.055     2.260     2.351
    24   1 H        0.926     0.130     1.534     1.937
    25   1 H        0.926     0.118     1.626     1.994
    26   1 H        0.926     0.128     1.547     1.945
    27   1 H        0.924     0.096     1.822     2.111
    28   1 H        0.924     0.102     1.764     2.077
    29   1 H        0.926     0.061     2.186     2.312
    30   1 H        0.926     0.102     1.769     2.080
    31   1 H        0.926     0.102     1.768     2.079
    32   1 H        0.926     0.060     2.200     2.319

Wiberg/Mayer (AO) data.
largest (>0.10) Wiberg bond orders for each atom

     #   Z sym  total        # sym  WBO       # sym  WBO       # sym  WBO
 ---------------------------------------------------------------------------
     1   6 C    3.986 --     2 C    1.022    21 H    0.984    19 H    0.982
                            20 H    0.975
     2   6 C    3.898 --     1 C    1.022    23 H    0.972    22 H    0.954
                             3 O    0.907
     3   8 O    2.072 --     4 N    1.011     2 C    0.907
     4   7 N    3.735 --     8 C    1.338     5 C    1.218     3 O    1.011
     5   6 C    3.943 --     6 C    1.583     4 N    1.218    24 H    0.956
     6   6 C    3.945 --     5 C    1.583     7 N    1.230    25 H    0.958
     7   7 N    3.718 --     8 C    1.364     6 C    1.230     9 C    0.957
     8   6 C    3.942 --     7 N    1.364     4 N    1.338    26 H    0.951
     9   6 C    3.932 --    10 C    0.979    27 H    0.961    28 H    0.959
                             7 N    0.957
    10   6 C    3.982 --    15 C    1.413    11 C    1.411     9 C    0.979
    11   6 C    3.990 --    12 C    1.447    10 C    1.411    29 H    0.966
                            14 C    0.110
    12   6 C    3.981 --    11 C    1.447    13 C    1.397    30 H    0.956
                            15 C    0.109
    13   6 C    3.970 --    14 C    1.398    12 C    1.397    16 N    0.938
    14   6 C    3.981 --    15 C    1.445    13 C    1.398    31 H    0.956
                            11 C    0.110
    15   6 C    3.990 --    14 C    1.445    10 C    1.413    32 H    0.966
                            12 C    0.109
    16   7 N    3.916 --    17 O    1.470    18 O    1.470    13 C    0.938
    17   8 O    1.964 --    16 N    1.470    18 O    0.383
    18   8 O    1.964 --    16 N    1.470    17 O    0.383
    19   1 H    0.995 --     1 C    0.982
    20   1 H    0.993 --     1 C    0.975
    21   1 H    0.998 --     1 C    0.984
    22   1 H    0.988 --     2 C    0.954
    23   1 H    0.997 --     2 C    0.972
    24   1 H    0.983 --     5 C    0.956
    25   1 H    0.986 --     6 C    0.958
    26   1 H    0.984 --     8 C    0.951
    27   1 H    0.990 --     9 C    0.961
    28   1 H    0.989 --     9 C    0.959
    29   1 H    0.996 --    11 C    0.966
    30   1 H    0.989 --    12 C    0.956
    31   1 H    0.989 --    14 C    0.956
    32   1 H    0.996 --    15 C    0.966
 ---------------------------------------------------------------------------

molecular dipole:
                 x           y           z       tot (Debye)
 q only:        6.417      -1.240      -4.452
   full:        6.461      -1.037      -4.499      20.186

           -------------------------------------------------
          | TOTAL ENERGY              -53.267188268467 Eh   |
          | GRADIENT NORM               0.000376513676 Eh/α |
          | HOMO-LUMO GAP               2.749134088225 eV   |
           -------------------------------------------------

 * finished run on 2024/12/20 at 02:07:43.059
