   * xtb version 6.7.1 (edcfbbe) compiled by 'conda@3ef47c1a292c' on 2024-11-25

   ID    Z sym.   atoms
    1   17 Cl     1
    2    6 C      2, 3, 5-8
    3    7 N      4
    4    1 H      9-21

          program call               : xtb C0136.xyz --opt --namespace C0136 --charge +1
          :  Hamiltonian                  GFN2-xTB          :
 * total energy  :   -26.5460359 Eh     change       -0.2581046E-10 Eh
 * total energy  :   -26.5484377 Eh     change       -0.2401798E-02 Eh
 * total energy  :   -26.5490464 Eh     change       -0.6087034E-03 Eh
 * total energy  :   -26.5491172 Eh     change       -0.7077205E-04 Eh
 * total energy  :   -26.5491501 Eh     change       -0.3287771E-04 Eh
 * total energy  :   -26.5491680 Eh     change       -0.1789379E-04 Eh
 * total energy  :   -26.5491852 Eh     change       -0.1724824E-04 Eh
 * total energy  :   -26.5492144 Eh     change       -0.2924053E-04 Eh
 * total energy  :   -26.5492578 Eh     change       -0.4336696E-04 Eh
 * total energy  :   -26.5493187 Eh     change       -0.6089270E-04 Eh
 * total energy  :   -26.5502669 Eh     change        0.5812456E-05 Eh
 * total energy  :   -26.5502938 Eh     change       -0.2694402E-04 Eh
 * total energy  :   -26.5503023 Eh     change       -0.8452345E-05 Eh
 * total energy  :   -26.5503121 Eh     change       -0.9755782E-05 Eh
 * total energy  :   -26.5503214 Eh     change       -0.9301091E-05 Eh
 * total energy  :   -26.5503324 Eh     change       -0.1104778E-04 Eh
 * total energy  :   -26.5503454 Eh     change       -0.1300135E-04 Eh
 * total energy  :   -26.5503478 Eh     change       -0.2423600E-05 Eh
 * total energy  :   -26.5503497 Eh     change       -0.1884474E-05 Eh
   *** GEOMETRY OPTIMIZATION CONVERGED AFTER 39 ITERATIONS ***

 final structure:
================
21
 xtb: 6.7.1 (edcfbbe)
Cl           0.72524870932436        0.17424421334645       -1.14542593911872
C            2.32491463141169       -0.22364567331419       -0.40827829994479
C            3.41618412182018        0.55850255674428       -1.12940150180799
N            3.03374063564744        1.97693018836978       -1.24996450478562
C            3.78330881980741        2.74748661812434       -2.27030457182672
C            3.47321141961166        4.21654736799051       -1.96062878999556
C            2.91467919548110        4.21506311559758       -0.52471256618593
C            3.15886069566356        2.79600860416982       -0.02194729313707
H            2.26526262859327        0.02375317172814        0.65044088774224
H            2.48462878722095       -1.29490471476893       -0.52050464102982
H            4.36164915710548        0.47373637143111       -0.58894249831547
H            3.54584913006259        0.15669050403671       -2.13675412267948
H            2.02743053233379        1.94450830443525       -1.50421215713573
H            3.48464731370133        2.44856269248091       -3.27394433339889
H            4.84630194870520        2.53515056950765       -2.13974593791515
H            4.37307738986264        4.82075709359761       -2.03974939411658
H            2.74409633089267        4.62285931098482       -2.65737556630423
H            3.40502372573177        4.94996577829872        0.10747726602806
H            1.84883755703816        4.43900591099933       -0.52698515463503
H            4.17345648080655        2.68369015823804        0.36467789881171
H            2.44405078917755        2.48260785800229        0.73582121975065

          :  Hamiltonian                  GFN2-xTB          :
         :: total energy             -26.550349711344 Eh    ::
         :: gradient norm              0.000690235974 Eh/a0 ::
         :: HOMO-LUMO gap              6.759843301243 eV    ::
         :: SCC energy               -26.851906166337 Eh    ::
         :: -> dispersion             -0.014048111231 Eh    ::
         :: repulsion energy           0.301556454993 Eh    ::

    * Orbital Energies and Occupations

         #    Occupation            Energy/Eh            Energy/eV
      -------------------------------------------------------------
         1        2.0000           -1.2017552             -32.7014
       ...           ...                  ...                  ...
        12        2.0000           -0.6957643             -18.9327
        13        2.0000           -0.6846622             -18.6306
        14        2.0000           -0.6725945             -18.3022
        15        2.0000           -0.6658000             -18.1173
        16        2.0000           -0.6556556             -17.8413
        17        2.0000           -0.6499046             -17.6848
        18        2.0000           -0.6370511             -17.3350
        19        2.0000           -0.6303929             -17.1539
        20        2.0000           -0.6231830             -16.9577
        21        2.0000           -0.6196040             -16.8603
        22        2.0000           -0.5861460             -15.9498
        23        2.0000           -0.5724218             -15.5764
        24        2.0000           -0.5659746             -15.4010 (HOMO)
        25                         -0.3175549              -8.6411 (LUMO)
        26                         -0.2318813              -6.3098
        27                         -0.1801849              -4.9031
        28                         -0.1570775              -4.2743
        29                         -0.1464848              -3.9861
        30                         -0.1373293              -3.7369
        31                         -0.1319479              -3.5905
        32                         -0.1282582              -3.4901
        33                         -0.0967745              -2.6334
        34                         -0.0798240              -2.1721
        35                         -0.0742882              -2.0215
       ...                                ...                  ...
        50                          0.1843943               5.0176
      -------------------------------------------------------------
                  HL-Gap            0.2484197 Eh            6.7598 eV

     #   Z          covCN         q      C6AA      α(0)
     1  17 Cl       0.919    -0.162   104.198    15.617
     2   6 C        3.712    -0.005    20.796     6.516
     3   6 C        3.768    -0.043    21.388     6.591
     4   7 N        3.597     0.023    20.833     6.779
     5   6 C        3.780    -0.032    21.175     6.556
     6   6 C        3.817    -0.079    21.999     6.675
     7   6 C        3.820    -0.078    21.979     6.672
     8   6 C        3.783    -0.034    21.198     6.559
     9   1 H        0.925     0.102     1.768     2.079
    10   1 H        0.925     0.114     1.659     2.014
    11   1 H        0.924     0.111     1.690     2.033
    12   1 H        0.924     0.114     1.664     2.017
    13   1 H        0.860     0.260     0.846     1.441
    14   1 H        0.925     0.093     1.850     2.127
    15   1 H        0.924     0.094     1.837     2.120
    16   1 H        0.925     0.087     1.904     2.158
    17   1 H        0.925     0.079     1.987     2.204
    18   1 H        0.925     0.091     1.869     2.138
    19   1 H        0.925     0.074     2.040     2.233
    20   1 H        0.924     0.095     1.828     2.114
    21   1 H        0.925     0.095     1.834     2.118

Wiberg/Mayer (AO) data.
largest (>0.10) Wiberg bond orders for each atom

     #   Z sym  total        # sym  WBO       # sym  WBO       # sym  WBO
 ---------------------------------------------------------------------------
     1  17 Cl   1.058 --     2 C    0.959
     2   6 C    3.934 --     3 C    1.017     9 H    0.971    10 H    0.968
                             1 Cl   0.959
     3   6 C    3.939 --     2 C    1.017    12 H    0.962    11 H    0.958
                             4 N    0.955
     4   7 N    3.757 --     3 C    0.955     5 C    0.935     8 C    0.935
                            13 H    0.865
     5   6 C    3.923 --     6 C    1.003    14 H    0.971    15 H    0.970
                             4 N    0.935
     6   6 C    3.982 --     5 C    1.003     7 C    0.998    17 H    0.978
                            16 H    0.974
     7   6 C    3.983 --     8 C    1.007     6 C    0.998    19 H    0.977
                            18 H    0.971
     8   6 C    3.925 --     7 C    1.007    21 H    0.969    20 H    0.968
                             4 N    0.935
     9   1 H    0.990 --     2 C    0.971
    10   1 H    0.986 --     2 C    0.968
    11   1 H    0.988 --     3 C    0.958
    12   1 H    0.987 --     3 C    0.962
    13   1 H    0.933 --     4 N    0.865
    14   1 H    0.991 --     5 C    0.971
    15   1 H    0.991 --     5 C    0.970
    16   1 H    0.992 --     6 C    0.974
    17   1 H    0.994 --     6 C    0.978
    18   1 H    0.991 --     7 C    0.971
    19   1 H    0.994 --     7 C    0.977
    20   1 H    0.991 --     8 C    0.968
    21   1 H    0.991 --     8 C    0.969
 ---------------------------------------------------------------------------

molecular dipole:
                 x           y           z       tot (Debye)
 q only:        6.516       3.974      -1.957
   full:        5.946       3.486      -1.996      18.238

           -------------------------------------------------
          | TOTAL ENERGY              -26.550349711344 Eh   |
          | GRADIENT NORM               0.000690235974 Eh/α |
          | HOMO-LUMO GAP               6.759843301243 eV   |
           -------------------------------------------------

 * finished run on 2024/12/20 at 02:07:46.311
