   * xtb version 6.7.1 (edcfbbe) compiled by 'conda@3ef47c1a292c' on 2024-11-25

   ID    Z sym.   atoms
    1    6 C      1-10, 12-14, 16-22
    2    7 N      11, 15
    3    1 H      23-53

          program call               : xtb C0138.xyz --opt --namespace C0138 --charge +1
          :  Hamiltonian                  GFN2-xTB          :
 * total energy  :   -64.1279847 Eh     change       -0.8217711E-09 Eh
 * total energy  :   -64.1343968 Eh     change       -0.6412124E-02 Eh
 * total energy  :   -64.1357854 Eh     change       -0.1388560E-02 Eh
 * total energy  :   -64.1360876 Eh     change       -0.3022502E-03 Eh
 * total energy  :   -64.1364143 Eh     change       -0.3267172E-03 Eh
 * total energy  :   -64.1365815 Eh     change       -0.1672075E-03 Eh
 * total energy  :   -64.1367353 Eh     change       -0.1537850E-03 Eh
 * total energy  :   -64.1368652 Eh     change       -0.1298961E-03 Eh
 * total energy  :   -64.1369780 Eh     change       -0.1127560E-03 Eh
 * total energy  :   -64.1370926 Eh     change       -0.1146305E-03 Eh
 * total energy  :   -64.1387896 Eh     change       -0.3535854E-04 Eh
 * total energy  :   -64.1388185 Eh     change       -0.2887845E-04 Eh
 * total energy  :   -64.1388390 Eh     change       -0.2055249E-04 Eh
 * total energy  :   -64.1388553 Eh     change       -0.1632544E-04 Eh
 * total energy  :   -64.1388666 Eh     change       -0.1125048E-04 Eh
 * total energy  :   -64.1388767 Eh     change       -0.1016136E-04 Eh
 * total energy  :   -64.1388846 Eh     change       -0.7877294E-05 Eh
 * total energy  :   -64.1388922 Eh     change       -0.7622760E-05 Eh
 * total energy  :   -64.1388949 Eh     change       -0.2614368E-05 Eh
   *** GEOMETRY OPTIMIZATION CONVERGED AFTER 48 ITERATIONS ***

 final structure:
================
53
 xtb: 6.7.1 (edcfbbe)
C            1.68497554604511        0.39638171195690       -0.17510275670307
C            1.59483545889671        0.34437206081992       -1.69539145471402
C            1.50988654810793       -1.07966317079513       -2.24771479246633
C            0.28737653696623       -1.87850597084261       -1.79050746615127
C           -1.06390017633097       -1.24450545537065       -2.12550137313631
C           -1.30644764444687       -0.96762834204306       -3.61187654982287
C           -1.27536841170295       -2.20916503595761       -4.50815949012435
C           -2.41646943729937       -3.19652908711073       -4.26609501321011
C           -3.79086490772124       -2.70170553728666       -4.76312880285067
C           -3.87518300072269       -2.60305994352615       -6.23872867942007
N           -3.81671772236938       -1.47394010676177       -6.96011485555675
C           -3.69636496186213       -0.13080223810179       -6.45422269187689
C           -3.93683234461345       -1.79205289338252       -8.28167963913982
C           -4.07248771076476       -3.13970612778711       -8.36125025926299
N           -4.03841659173152       -3.62783123879782       -7.08709407798215
C           -4.12489284680406       -5.03235084114958       -6.75871215680360
C           -2.76506455418438       -5.68465979980195       -6.60578405218818
C           -1.70575581107013       -5.33830108207884       -7.43456231861577
C           -0.47797584722363       -5.96134599703731       -7.29119248955814
C           -0.30254701257688       -6.94027769539839       -6.32807641362319
C           -1.35887091204560       -7.29559310754560       -5.50620476558307
C           -2.58498103183472       -6.66827177686471       -5.64121713400868
H            0.77047089587235        0.03510481600038        0.28800176640401
H            1.84803646245319        1.41900028650272        0.15566441308957
H            2.51409870400394       -0.21235596439443        0.17767486968155
H            0.73466251495101        0.92830360447915       -2.02911176008051
H            2.48664439356149        0.81457929643926       -2.11599135668031
H            1.53092892226522       -1.03538560047220       -3.33932493860806
H            2.40164685096136       -1.62584892622638       -1.93210266198708
H            0.34365101269002       -2.87696135216011       -2.23062966401720
H            0.33486124244628       -2.00899608280543       -0.70866663810776
H           -1.85268413855623       -1.89476796014867       -1.74011865395426
H           -1.15088598913815       -0.29613176707952       -1.59358403027516
H           -2.27225406712521       -0.46186228243828       -3.70025081752961
H           -0.54475097609819       -0.27214576831496       -3.96703330039090
H           -1.27498379656176       -1.90469341332712       -5.55917479966496
H           -0.33638806418922       -2.73486420678431       -4.33606014029973
H           -2.17772166743124       -4.14066636619612       -4.75614857122844
H           -2.50088077900151       -3.39292784387458       -3.19839495008891
H           -4.55195283489377       -3.40427299099408       -4.41536638191083
H           -4.00642604697479       -1.72961889799291       -4.32115811563482
H           -4.55825723891254        0.12270027710736       -5.83538825288463
H           -2.78845928058415       -0.02031540340182       -5.86211719546065
H           -3.65566002437055        0.55966512597866       -7.29317187138004
H           -3.91831904845356       -1.05230402122932       -9.05498236069774
H           -4.19967614893864       -3.77378030293590       -9.21448750730379
H           -4.69651586914747       -5.15223896867805       -5.83528427373211
H           -4.67477546068410       -5.52456738329796       -7.56700191246549
H           -1.83099557443035       -4.58166404673127       -8.19625801974077
H            0.33938319930523       -5.68432521220863       -7.93842797642908
H            0.65357388263905       -7.42759793095080       -6.22131627107637
H           -1.23050317385772       -8.06127156985854       -4.75753105978111
H           -3.40656106643099       -6.94755746915367       -4.99821033495589

          :  Hamiltonian                  GFN2-xTB          :
         :: total energy             -64.138894861658 Eh    ::
         :: gradient norm              0.000357964466 Eh/a0 ::
         :: HOMO-LUMO gap              2.672458075292 eV    ::
         :: SCC energy               -65.176806012694 Eh    ::
         :: -> dispersion             -0.050696054173 Eh    ::
         :: repulsion energy           1.037911151036 Eh    ::

    * Orbital Energies and Occupations

         #    Occupation            Energy/Eh            Energy/eV
      -------------------------------------------------------------
         1        2.0000           -0.8786054             -23.9081
       ...           ...                  ...                  ...
        48        2.0000           -0.5478077             -14.9066
        49        2.0000           -0.5409796             -14.7208
        50        2.0000           -0.5364696             -14.5981
        51        2.0000           -0.5352002             -14.5635
        52        2.0000           -0.5319526             -14.4752
        53        2.0000           -0.5222293             -14.2106
        54        2.0000           -0.5163837             -14.0515
        55        2.0000           -0.5158847             -14.0379
        56        2.0000           -0.5127834             -13.9535
        57        2.0000           -0.5118791             -13.9289
        58        2.0000           -0.4933858             -13.4257
        59        2.0000           -0.4897043             -13.3255
        60        2.0000           -0.4864600             -13.2373 (HOMO)
        61                         -0.3882490             -10.5648 (LUMO)
        62                         -0.3549411              -9.6584
        63                         -0.3383856              -9.2079
        64                         -0.3344259              -9.1002
        65                         -0.2088637              -5.6835
        66                         -0.1720032              -4.6804
        67                         -0.1186210              -3.2278
        68                         -0.0621882              -1.6922
        69                         -0.0531715              -1.4469
        70                         -0.0389983              -1.0612
        71                         -0.0374941              -1.0203
       ...                                ...                  ...
       119                          0.5518000              15.0152
      -------------------------------------------------------------
                  HL-Gap            0.0982110 Eh            2.6725 eV

     #   Z          covCN         q      C6AA      α(0)
     1   6 C        3.751    -0.104    22.557     6.773
     2   6 C        3.799    -0.053    21.528     6.606
     3   6 C        3.800    -0.059    21.637     6.623
     4   6 C        3.800    -0.060    21.661     6.627
     5   6 C        3.800    -0.061    21.667     6.627
     6   6 C        3.800    -0.061    21.671     6.628
     7   6 C        3.800    -0.063    21.701     6.633
     8   6 C        3.801    -0.065    21.752     6.640
     9   6 C        3.803    -0.074    21.918     6.665
    10   6 C        3.096     0.103    25.614     8.294
    11   7 N        2.872     0.046    20.442     6.715
    12   6 C        3.692    -0.079    22.196     6.742
    13   6 C        3.047    -0.012    28.260     8.719
    14   6 C        3.049    -0.009    28.187     8.707
    15   7 N        2.873     0.041    20.517     6.727
    16   6 C        3.747    -0.022    21.040     6.543
    17   6 C        2.970    -0.000    28.030     8.684
    18   6 C        2.922    -0.038    28.956     8.824
    19   6 C        2.920    -0.023    28.591     8.768
    20   6 C        2.920    -0.022    28.555     8.763
    21   6 C        2.920    -0.022    28.545     8.761
    22   6 C        2.923    -0.037    28.909     8.817
    23   1 H        0.925     0.034     2.525     2.485
    24   1 H        0.925     0.037     2.488     2.467
    25   1 H        0.925     0.038     2.472     2.459
    26   1 H        0.924     0.027     2.630     2.536
    27   1 H        0.924     0.032     2.558     2.501
    28   1 H        0.924     0.024     2.675     2.558
    29   1 H        0.924     0.036     2.501     2.473
    30   1 H        0.924     0.026     2.651     2.546
    31   1 H        0.924     0.043     2.411     2.428
    32   1 H        0.924     0.027     2.629     2.536
    33   1 H        0.924     0.045     2.390     2.417
    34   1 H        0.924     0.019     2.748     2.592
    35   1 H        0.924     0.044     2.396     2.421
    36   1 H        0.924     0.017     2.782     2.608
    37   1 H        0.925     0.057     2.237     2.339
    38   1 H        0.925     0.046     2.364     2.405
    39   1 H        0.925     0.069     2.100     2.266
    40   1 H        0.924     0.076     2.019     2.222
    41   1 H        0.925     0.082     1.963     2.191
    42   1 H        0.924     0.091     1.865     2.136
    43   1 H        0.925     0.103     1.762     2.076
    44   1 H        0.925     0.098     1.800     2.098
    45   1 H        0.927     0.099     1.797     2.096
    46   1 H        0.926     0.099     1.792     2.093
    47   1 H        0.924     0.080     1.974     2.197
    48   1 H        0.924     0.087     1.908     2.160
    49   1 H        0.926     0.028     2.615     2.529
    50   1 H        0.926     0.052     2.292     2.368
    51   1 H        0.926     0.058     2.228     2.334
    52   1 H        0.926     0.057     2.231     2.336
    53   1 H        0.926     0.043     2.414     2.430

Wiberg/Mayer (AO) data.
largest (>0.10) Wiberg bond orders for each atom

     #   Z sym  total        # sym  WBO       # sym  WBO       # sym  WBO
 ---------------------------------------------------------------------------
     1   6 C    3.996 --     2 C    1.020    25 H    0.987    24 H    0.987
                            23 H    0.986
     2   6 C    3.998 --     1 C    1.020     3 C    1.008    27 H    0.978
                            26 H    0.976
     3   6 C    3.997 --     2 C    1.008     4 C    1.008    29 H    0.976
                            28 H    0.976
     4   6 C    3.996 --     5 C    1.008     3 C    1.008    30 H    0.975
                            31 H    0.974
     5   6 C    3.996 --     4 C    1.008     6 C    1.007    32 H    0.974
                            33 H    0.973
     6   6 C    3.996 --     7 C    1.007     5 C    1.007    35 H    0.974
                            34 H    0.971
     7   6 C    3.994 --     8 C    1.008     6 C    1.007    36 H    0.975
                            37 H    0.969
     8   6 C    3.984 --     7 C    1.008    38 H    0.970    39 H    0.967
                             9 C    0.966
     9   6 C    3.980 --    10 C    1.032     8 C    0.966    41 H    0.959
                            40 H    0.950
    10   6 C    3.944 --    15 N    1.324    11 N    1.321     9 C    1.032
    11   7 N    3.694 --    10 C    1.321    13 C    1.211    12 C    0.990
    12   6 C    3.938 --    11 N    0.990    44 H    0.975    42 H    0.965
                            43 H    0.960
    13   6 C    3.948 --    14 C    1.604    11 N    1.211    45 H    0.962
    14   6 C    3.950 --    13 C    1.604    15 N    1.211    46 H    0.962
    15   7 N    3.695 --    10 C    1.324    14 C    1.211    16 C    0.972
    16   6 C    3.941 --    17 C    0.978    15 N    0.972    47 H    0.957
                            48 H    0.954
    17   6 C    3.979 --    18 C    1.415    22 C    1.409    16 C    0.978
                            20 C    0.109
    18   6 C    3.992 --    19 C    1.442    17 C    1.415    49 H    0.968
                            21 C    0.111
    19   6 C    3.991 --    18 C    1.442    20 C    1.440    50 H    0.969
                            22 C    0.111
    20   6 C    3.990 --    19 C    1.440    21 C    1.439    51 H    0.969
                            17 C    0.109
    21   6 C    3.989 --    22 C    1.443    20 C    1.439    52 H    0.969
                            18 C    0.111
    22   6 C    3.990 --    21 C    1.443    17 C    1.409    53 H    0.968
                            19 C    0.111
    23   1 H    0.999 --     1 C    0.986
    24   1 H    0.999 --     1 C    0.987
    25   1 H    0.999 --     1 C    0.987
    26   1 H    0.999 --     2 C    0.976
    27   1 H    0.999 --     2 C    0.978
    28   1 H    0.999 --     3 C    0.976
    29   1 H    0.999 --     3 C    0.976
    30   1 H    0.999 --     4 C    0.975
    31   1 H    0.998 --     4 C    0.974
    32   1 H    0.999 --     5 C    0.974
    33   1 H    0.998 --     5 C    0.973
    34   1 H    1.000 --     6 C    0.971
    35   1 H    0.998 --     6 C    0.974
    36   1 H    1.000 --     7 C    0.975
    37   1 H    0.997 --     7 C    0.969
    38   1 H    0.998 --     8 C    0.970
    39   1 H    0.994 --     8 C    0.967
    40   1 H    0.994 --     9 C    0.950
    41   1 H    0.993 --     9 C    0.959
    42   1 H    0.991 --    12 C    0.965
    43   1 H    0.989 --    12 C    0.960
    44   1 H    0.990 --    12 C    0.975
    45   1 H    0.990 --    13 C    0.962
    46   1 H    0.990 --    14 C    0.962
    47   1 H    0.993 --    16 C    0.957
    48   1 H    0.992 --    16 C    0.954
    49   1 H    0.999 --    18 C    0.968
    50   1 H    0.997 --    19 C    0.969
    51   1 H    0.996 --    20 C    0.969
    52   1 H    0.996 --    21 C    0.969
    53   1 H    0.998 --    22 C    0.968
 ---------------------------------------------------------------------------

molecular dipole:
                 x           y           z       tot (Debye)
 q only:       -6.336      -5.253     -11.975
   full:       -6.517      -5.241     -12.134      37.458

           -------------------------------------------------
          | TOTAL ENERGY              -64.138894861658 Eh   |
          | GRADIENT NORM               0.000357964466 Eh/α |
          | HOMO-LUMO GAP               2.672458075292 eV   |
           -------------------------------------------------

 * finished run on 2024/12/20 at 02:07:49.718
