   * xtb version 6.7.1 (edcfbbe) compiled by 'conda@3ef47c1a292c' on 2024-11-25

   ID    Z sym.   atoms
    1    6 C      1-5, 8, 10
    2    8 O      6, 7
    3    7 N      9
    4    1 H      11-26

          program call               : xtb C0135.xyz --opt --namespace C0135 --charge +1
          :  Hamiltonian                  GFN2-xTB          :
 * total energy  :   -33.7797623 Eh     change       -0.4638210E-09 Eh
 * total energy  :   -33.7851720 Eh     change       -0.5409755E-02 Eh
 * total energy  :   -33.7863875 Eh     change       -0.1215498E-02 Eh
 * total energy  :   -33.7868158 Eh     change       -0.4282767E-03 Eh
 * total energy  :   -33.7872618 Eh     change       -0.4459826E-03 Eh
 * total energy  :   -33.7876522 Eh     change       -0.3903980E-03 Eh
 * total energy  :   -33.7881000 Eh     change       -0.4477824E-03 Eh
 * total energy  :   -33.7887996 Eh     change       -0.6996177E-03 Eh
 * total energy  :   -33.7886945 Eh     change        0.1051219E-03 Eh
 * total energy  :   -33.7893106 Eh     change       -0.6161084E-03 Eh
 * total energy  :   -33.7907272 Eh     change       -0.2710442E-04 Eh
 * total energy  :   -33.7907420 Eh     change       -0.1477011E-04 Eh
 * total energy  :   -33.7907616 Eh     change       -0.1963669E-04 Eh
 * total energy  :   -33.7907717 Eh     change       -0.1006989E-04 Eh
 * total energy  :   -33.7907866 Eh     change       -0.1493904E-04 Eh
 * total energy  :   -33.7907959 Eh     change       -0.9229993E-05 Eh
 * total energy  :   -33.7908029 Eh     change       -0.7073628E-05 Eh
 * total energy  :   -33.7908089 Eh     change       -0.5967108E-05 Eh
 * total energy  :   -33.7908139 Eh     change       -0.4979627E-05 Eh
   *** GEOMETRY OPTIMIZATION CONVERGED AFTER 29 ITERATIONS ***

 final structure:
================
26
 xtb: 6.7.1 (edcfbbe)
C            1.17885216183648       -0.13041972605056        0.16902274452876
C            0.61469864482415        1.28256957525586        0.26458063112258
C            0.91957198915511        2.16046883895784       -0.95667563094094
C            0.35299730456583        1.55244569497404       -2.25681452730378
C           -1.18387248810615        1.67231013873510       -2.37510785973465
O           -1.62608697106677        2.35878380473584       -3.27495810626991
O           -1.85244129921031        0.99473223103781       -1.50010105097520
C           -3.28489547775939        1.04865712807614       -1.56120411613591
N            0.84015836755958        2.29323149657639       -3.45354906797177
C            0.39542008936666        3.57939429063058       -0.73797648221966
H            0.62228496203174       -0.74279284936253       -0.53638633077447
H            1.10935638371015       -0.61259854242185        1.13912374366921
H            2.22691820124101       -0.11528696363671       -0.12064773875594
H           -0.46136838742039        1.23534701817106        0.42699210399686
H            1.05562713586916        1.77673892986716        1.13080863003127
H            2.00969950806742        2.19154209226341       -1.07370379730102
H            0.63331979261498        0.49876233457060       -2.31257434391688
H           -3.63104461923161        2.06747232183737       -1.38475465931225
H           -3.63131137406442        0.71742515005268       -2.54050983011318
H           -3.64151452341289        0.38184031587957       -0.78135320783933
H            1.45518011804148        3.07191878684498       -3.19680756517366
H            1.30154123042792        1.70688734210051       -4.15247895984687
H           -0.09014739179323        2.67182695248059       -3.84694789512336
H            0.85935194763630        4.00516236484763        0.14701736633066
H            0.61171042019775        4.24603930087083       -1.57095926289807
H           -0.67952572508022        3.57392197270661       -0.57559478707225

          :  Hamiltonian                  GFN2-xTB          :
         :: total energy             -33.790813871011 Eh    ::
         :: gradient norm              0.000374528743 Eh/a0 ::
         :: HOMO-LUMO gap              4.273167441729 eV    ::
         :: SCC energy               -34.189517209836 Eh    ::
         :: -> dispersion             -0.017801568850 Eh    ::
         :: repulsion energy           0.398703338825 Eh    ::

    * Orbital Energies and Occupations

         #    Occupation            Energy/Eh            Energy/eV
      -------------------------------------------------------------
         1        2.0000           -0.9161646             -24.9301
       ...           ...                  ...                  ...
        18        2.0000           -0.6626116             -18.0306
        19        2.0000           -0.6584548             -17.9175
        20        2.0000           -0.6410507             -17.4439
        21        2.0000           -0.6280476             -17.0900
        22        2.0000           -0.6203349             -16.8802
        23        2.0000           -0.6121957             -16.6587
        24        2.0000           -0.6067813             -16.5114
        25        2.0000           -0.6030275             -16.4092
        26        2.0000           -0.5989560             -16.2984
        27        2.0000           -0.5878581             -15.9964
        28        2.0000           -0.5778596             -15.7244
        29        2.0000           -0.5653670             -15.3844
        30        2.0000           -0.5584239             -15.1955 (HOMO)
        31                         -0.4013879             -10.9223 (LUMO)
        32                         -0.2445690              -6.6551
        33                         -0.1693852              -4.6092
        34                         -0.1573911              -4.2828
        35                         -0.1103996              -3.0041
        36                         -0.0832499              -2.2653
        37                         -0.0722191              -1.9652
        38                         -0.0618098              -1.6819
        39                         -0.0321000              -0.8735
        40                         -0.0104306              -0.2838
        41                         -0.0043949              -0.1196
       ...                                ...                  ...
        56                          0.4577447              12.4559
      -------------------------------------------------------------
                  HL-Gap            0.1570360 Eh            4.2732 eV

     #   Z          covCN         q      C6AA      α(0)
     1   6 C        3.751    -0.120    22.854     6.818
     2   6 C        3.803    -0.073    21.893     6.661
     3   6 C        3.849    -0.025    20.990     6.517
     4   6 C        3.781    -0.013    20.835     6.502
     5   6 C        2.729     0.352    21.021     7.506
     6   8 O        0.857    -0.403    21.741     6.251
     7   8 O        1.703    -0.191    17.192     5.598
     8   6 C        3.657     0.010    20.708     6.532
     9   7 N        3.486    -0.170    24.666     7.376
    10   6 C        3.755    -0.128    23.014     6.840
    11   1 H        0.925     0.038     2.475     2.460
    12   1 H        0.925     0.067     2.116     2.275
    13   1 H        0.925     0.047     2.362     2.403
    14   1 H        0.925     0.060     2.199     2.319
    15   1 H        0.924     0.070     2.081     2.256
    16   1 H        0.924     0.062     2.181     2.310
    17   1 H        0.924     0.117     1.638     2.001
    18   1 H        0.924     0.092     1.863     2.134
    19   1 H        0.924     0.092     1.856     2.130
    20   1 H        0.925     0.106     1.732     2.058
    21   1 H        0.859     0.267     0.819     1.418
    22   1 H        0.859     0.261     0.842     1.437
    23   1 H        0.853     0.309     0.689     1.301
    24   1 H        0.925     0.076     2.016     2.220
    25   1 H        0.925     0.042     2.424     2.435
    26   1 H        0.925     0.055     2.255     2.348

Wiberg/Mayer (AO) data.
largest (>0.10) Wiberg bond orders for each atom

     #   Z sym  total        # sym  WBO       # sym  WBO       # sym  WBO
 ---------------------------------------------------------------------------
     1   6 C    3.992 --     2 C    1.020    13 H    0.986    11 H    0.983
                            12 H    0.982
     2   6 C    3.987 --     1 C    1.020     3 C    0.989    14 H    0.972
                            15 H    0.969
     3   6 C    3.974 --    10 C    1.009     2 C    0.989    16 H    0.959
                             4 C    0.959
     4   6 C    3.913 --     3 C    0.959     9 N    0.947    17 H    0.941
                             5 C    0.931
     5   6 C    3.932 --     6 O    1.667     7 O    1.259     4 C    0.931
     6   8 O    2.100 --     5 C    1.667     7 O    0.185
     7   8 O    2.412 --     5 C    1.259     8 C    0.920     6 O    0.185
     8   6 C    3.882 --    20 H    0.976    19 H    0.972    18 H    0.972
                             7 O    0.920
     9   7 N    3.642 --     4 C    0.947    22 H    0.920    21 H    0.906
                            23 H    0.791
    10   6 C    3.989 --     3 C    1.009    26 H    0.983    25 H    0.980
                            24 H    0.980
    11   1 H    0.999 --     1 C    0.983
    12   1 H    0.995 --     1 C    0.982
    13   1 H    0.998 --     1 C    0.986
    14   1 H    0.996 --     2 C    0.972
    15   1 H    0.995 --     2 C    0.969
    16   1 H    0.996 --     3 C    0.959
    17   1 H    0.986 --     4 C    0.941
    18   1 H    0.992 --     8 C    0.972
    19   1 H    0.991 --     8 C    0.972
    20   1 H    0.989 --     8 C    0.976
    21   1 H    0.928 --     9 N    0.906
    22   1 H    0.932 --     9 N    0.920
    23   1 H    0.905 --     9 N    0.791
    24   1 H    0.994 --    10 C    0.980
    25   1 H    0.998 --    10 C    0.980
    26   1 H    0.997 --    10 C    0.983
 ---------------------------------------------------------------------------

molecular dipole:
                 x           y           z       tot (Debye)
 q only:        0.568       3.485      -4.509
   full:        0.709       3.500      -4.710      15.024

           -------------------------------------------------
          | TOTAL ENERGY              -33.790813871011 Eh   |
          | GRADIENT NORM               0.000374528743 Eh/α |
          | HOMO-LUMO GAP               4.273167441729 eV   |
           -------------------------------------------------

 * finished run on 2024/12/20 at 02:07:45.706
