   * xtb version 6.7.1 (edcfbbe) compiled by 'conda@3ef47c1a292c' on 2024-11-25

   ID    Z sym.   atoms
    1    6 C      1, 2, 4, 6, 8, 9, 11-14
    2    7 N      3, 7, 10
    3    8 O      5
    4    1 H      15-32

          program call               : xtb C0145.xyz --opt --namespace C0145 --charge +1
          :  Hamiltonian                  GFN2-xTB          :
 * total energy  :   -43.0634733 Eh     change       -0.3408189E-09 Eh
 * total energy  :   -43.0707143 Eh     change       -0.7240969E-02 Eh
 * total energy  :   -43.0724226 Eh     change       -0.1708320E-02 Eh
 * total energy  :   -43.0727235 Eh     change       -0.3009046E-03 Eh
 * total energy  :   -43.0729047 Eh     change       -0.1812516E-03 Eh
 * total energy  :   -43.0729922 Eh     change       -0.8750260E-04 Eh
 * total energy  :   -43.0731233 Eh     change       -0.1310943E-03 Eh
 * total energy  :   -43.0732466 Eh     change       -0.1233143E-03 Eh
 * total energy  :   -43.0733792 Eh     change       -0.1325744E-03 Eh
 * total energy  :   -43.0734968 Eh     change       -0.1175483E-03 Eh
 * total energy  :   -43.0879892 Eh     change       -0.3650834E-04 Eh
 * total energy  :   -43.0880145 Eh     change       -0.2531402E-04 Eh
 * total energy  :   -43.0880370 Eh     change       -0.2249936E-04 Eh
 * total energy  :   -43.0880605 Eh     change       -0.2351174E-04 Eh
 * total energy  :   -43.0880812 Eh     change       -0.2064008E-04 Eh
 * total energy  :   -43.0880927 Eh     change       -0.1153498E-04 Eh
 * total energy  :   -43.0881089 Eh     change       -0.1619891E-04 Eh
 * total energy  :   -43.0881182 Eh     change       -0.9302153E-05 Eh
 * total energy  :   -43.0881229 Eh     change       -0.4658302E-05 Eh
   *** GEOMETRY OPTIMIZATION CONVERGED AFTER 123 ITERATIONS ***

 final structure:
================
32
 xtb: 6.7.1 (edcfbbe)
C            1.89716132499886        2.28791709113208       -1.19392131431220
C            1.50620742144692        1.32598474130999       -2.31423561055133
N            1.41013066795993       -0.04495582234310       -1.84714924879932
C            0.32933147522558       -0.61289105598779       -1.32333210334755
O            0.28644146873148       -1.73881293216526       -0.85962522537209
C           -0.98578951768814        0.23714209175240       -1.29008823644608
N           -2.03810646092185       -0.65211182126719       -0.90084975159250
C           -3.07261214259837       -1.08878895373539       -1.67522809888278
C           -3.67150585992179       -2.11155381973778       -1.00901846797516
N           -2.98541369211104       -2.29629076051307        0.15519289835529
C           -1.99331544388138       -1.41316671171469        0.19377866350936
C           -3.26077037871939       -3.31236900779823        1.13475448304633
C            2.63740417099152       -0.83597315143492       -1.90462054575533
C            2.83107243063390       -1.46660570013651       -3.27777015751613
H            1.14666705634072        2.31198843496929       -0.40780243036856
H            2.00510759010610        3.29070988347538       -1.59679773800096
H            2.84479505673934        1.99472524267613       -0.75062997599005
H            0.56720050104538        1.64317482224692       -2.76981976794287
H            2.27231197394227        1.35076962758930       -3.09149962541252
H           -0.87028636608890        1.04384190954028       -0.56259146304132
H           -1.21883905337737        0.65597171869265       -2.26861050713257
H           -3.31383903239900       -0.64704277275717       -2.62063981926674
H           -4.51845675333893       -2.70817497010189       -1.28009278562373
H           -1.28761862361118       -1.31076787382209        0.99446363695558
H           -2.79079230520940       -3.05219833279631        2.08068637228714
H           -4.33590829233342       -3.40846385352045        1.27883437856620
H           -2.86473901545771       -4.27268524214522        0.79931197225896
H            3.47647752215306       -0.18304336752032       -1.65981363961069
H            2.56210843541338       -1.61823749781754       -1.14760013295343
H            2.89382433422796       -0.70952624752508       -4.05565391517341
H            3.75208148097826       -2.04150362594616       -3.28507613118063
H            2.00553002672347       -2.13561204266079       -3.50498571274541

          :  Hamiltonian                  GFN2-xTB          :
         :: total energy             -43.088122858242 Eh    ::
         :: gradient norm              0.000929058668 Eh/a0 ::
         :: HOMO-LUMO gap              3.427941113419 eV    ::
         :: SCC energy               -43.686661953645 Eh    ::
         :: -> dispersion             -0.025293049542 Eh    ::
         :: repulsion energy           0.598539095403 Eh    ::

    * Orbital Energies and Occupations

         #    Occupation            Energy/Eh            Energy/eV
      -------------------------------------------------------------
         1        2.0000           -0.8806162             -23.9628
       ...           ...                  ...                  ...
        27        2.0000           -0.6255532             -17.0222
        28        2.0000           -0.6214452             -16.9104
        29        2.0000           -0.6104615             -16.6115
        30        2.0000           -0.6020366             -16.3823
        31        2.0000           -0.5948628             -16.1870
        32        2.0000           -0.5855044             -15.9324
        33        2.0000           -0.5771654             -15.7055
        34        2.0000           -0.5735255             -15.6064
        35        2.0000           -0.5643509             -15.3568
        36        2.0000           -0.5589214             -15.2090
        37        2.0000           -0.5449773             -14.8296
        38        2.0000           -0.5326878             -14.4952
        39        2.0000           -0.5164437             -14.0531 (HOMO)
        40                         -0.3904692             -10.6252 (LUMO)
        41                         -0.3584104              -9.7528
        42                         -0.3379744              -9.1968
        43                         -0.1691575              -4.6030
        44                         -0.1384297              -3.7669
        45                         -0.1124620              -3.0602
        46                         -0.0915122              -2.4902
        47                         -0.0486186              -1.3230
        48                         -0.0364813              -0.9927
        49                         -0.0211771              -0.5763
        50                         -0.0097396              -0.2650
       ...                                ...                  ...
        74                          0.4935749              13.4309
      -------------------------------------------------------------
                  HL-Gap            0.1259745 Eh            3.4279 eV

     #   Z          covCN         q      C6AA      α(0)
     1   6 C        3.752    -0.120    22.865     6.819
     2   6 C        3.743    -0.013    20.890     6.520
     3   7 N        2.732    -0.069    22.573     7.056
     4   6 C        2.766     0.259    22.632     7.791
     5   8 O        0.858    -0.440    22.505     6.360
     6   6 C        3.744    -0.050    21.552     6.623
     7   7 N        2.874     0.071    19.999     6.642
     8   6 C        3.064    -0.007    28.139     8.699
     9   6 C        3.070    -0.009    28.163     8.702
    10   7 N        2.867     0.078    19.884     6.623
    11   6 C        3.093     0.062    26.498     8.437
    12   6 C        3.692    -0.085    22.321     6.760
    13   6 C        3.755    -0.007    20.752     6.495
    14   6 C        3.752    -0.117    22.808     6.810
    15   1 H        0.925     0.042     2.423     2.434
    16   1 H        0.925     0.068     2.104     2.269
    17   1 H        0.925     0.062     2.181     2.309
    18   1 H        0.924     0.051     2.309     2.376
    19   1 H        0.924     0.078     1.995     2.209
    20   1 H        0.924     0.093     1.848     2.126
    21   1 H        0.925     0.092     1.861     2.133
    22   1 H        0.926     0.102     1.768     2.079
    23   1 H        0.926     0.107     1.721     2.052
    24   1 H        0.926     0.124     1.584     1.968
    25   1 H        0.925     0.099     1.795     2.095
    26   1 H        0.925     0.104     1.753     2.071
    27   1 H        0.924     0.108     1.713     2.047
    28   1 H        0.924     0.064     2.153     2.294
    29   1 H        0.924     0.083     1.948     2.183
    30   1 H        0.925     0.050     2.320     2.382
    31   1 H        0.925     0.067     2.120     2.277
    32   1 H        0.925     0.055     2.263     2.352

Wiberg/Mayer (AO) data.
largest (>0.10) Wiberg bond orders for each atom

     #   Z sym  total        # sym  WBO       # sym  WBO       # sym  WBO
 ---------------------------------------------------------------------------
     1   6 C    3.990 --     2 C    1.007    15 H    0.985    17 H    0.984
                            16 H    0.981
     2   6 C    3.963 --     1 C    1.007     3 N    0.980    19 H    0.967
                            18 H    0.966
     3   7 N    3.553 --     4 C    1.334     2 C    0.980    13 C    0.962
                             5 O    0.206
     4   6 C    3.965 --     5 O    1.637     3 N    1.334     6 C    0.900
     5   8 O    2.029 --     4 C    1.637     3 N    0.206
     6   6 C    3.947 --     7 N    0.998    21 H    0.958    20 H    0.949
                             4 C    0.900
     7   7 N    3.705 --    11 C    1.339     8 C    1.211     6 C    0.998
     8   6 C    3.947 --     9 C    1.604     7 N    1.211    22 H    0.962
     9   6 C    3.948 --     8 C    1.604    10 N    1.217    23 H    0.962
    10   7 N    3.716 --    11 C    1.363     9 C    1.217    12 C    0.991
    11   6 C    3.946 --    10 N    1.363     7 N    1.339    24 H    0.952
    12   6 C    3.935 --    10 N    0.991    25 H    0.974    26 H    0.969
                            27 H    0.959
    13   6 C    3.952 --    14 C    1.011    28 H    0.968    29 H    0.966
                             3 N    0.962
    14   6 C    3.990 --    13 C    1.011    32 H    0.986    30 H    0.984
                            31 H    0.980
    15   1 H    0.998 --     1 C    0.985
    16   1 H    0.994 --     1 C    0.981
    17   1 H    0.996 --     1 C    0.984
    18   1 H    0.997 --     2 C    0.966
    19   1 H    0.994 --     2 C    0.967
    20   1 H    0.991 --     6 C    0.949
    21   1 H    0.991 --     6 C    0.958
    22   1 H    0.989 --     8 C    0.962
    23   1 H    0.988 --     9 C    0.962
    24   1 H    0.985 --    11 C    0.952
    25   1 H    0.990 --    12 C    0.974
    26   1 H    0.989 --    12 C    0.969
    27   1 H    0.988 --    12 C    0.959
    28   1 H    0.995 --    13 C    0.968
    29   1 H    0.993 --    13 C    0.966
    30   1 H    0.997 --    14 C    0.984
    31   1 H    0.995 --    14 C    0.980
    32   1 H    0.997 --    14 C    0.986
 ---------------------------------------------------------------------------

molecular dipole:
                 x           y           z       tot (Debye)
 q only:       -2.940      -1.510      -1.522
   full:       -3.002      -1.276      -1.554       9.184

           -------------------------------------------------
          | TOTAL ENERGY              -43.088122858242 Eh   |
          | GRADIENT NORM               0.000929058668 Eh/α |
          | HOMO-LUMO GAP               3.427941113419 eV   |
           -------------------------------------------------

 * finished run on 2024/12/20 at 02:07:59.378
