   * xtb version 6.7.1 (edcfbbe) compiled by 'conda@3ef47c1a292c' on 2024-11-25

   ID    Z sym.   atoms
    1    8 O      1
    2    6 C      2-7, 9-11
    3    7 N      8
    4    1 H      12-25

          program call               : xtb C0148.xyz --opt --namespace C0148 --charge +1
          :  Hamiltonian                  GFN2-xTB          :
 * total energy  :   -32.9877771 Eh     change       -0.8179057E-10 Eh
 * total energy  :   -32.9919708 Eh     change       -0.4193644E-02 Eh
 * total energy  :   -32.9925968 Eh     change       -0.6260752E-03 Eh
 * total energy  :   -32.9926622 Eh     change       -0.6535293E-04 Eh
 * total energy  :   -32.9926946 Eh     change       -0.3239135E-04 Eh
 * total energy  :   -32.9927068 Eh     change       -0.1223838E-04 Eh
 * total energy  :   -32.9927212 Eh     change       -0.1439702E-04 Eh
 * total energy  :   -32.9927348 Eh     change       -0.1358600E-04 Eh
 * total energy  :   -32.9927448 Eh     change       -0.1001452E-04 Eh
 * total energy  :   -32.9927517 Eh     change       -0.6886652E-05 Eh
 * total energy  :   -32.9927576 Eh     change       -0.5857432E-05 Eh
 * total energy  :   -32.9927644 Eh     change       -0.6823177E-05 Eh
 * total energy  :   -32.9927726 Eh     change       -0.8235750E-05 Eh
 * total energy  :   -32.9927812 Eh     change       -0.8557978E-05 Eh
 * total energy  :   -32.9927880 Eh     change       -0.6841790E-05 Eh
 * total energy  :   -32.9927922 Eh     change       -0.4138427E-05 Eh
   *** GEOMETRY OPTIMIZATION CONVERGED AFTER 16 ITERATIONS ***

 final structure:
================
25
 xtb: 6.7.1 (edcfbbe)
O            1.67208444538470       -0.07678912132761       -0.56718713626971
C            0.56021316264417        0.59109477758460       -1.11575670153335
C            0.95075920145076        2.01285607842671       -1.43733396127731
C            0.22347375177505        3.06027144538016       -0.88428479930786
C            0.56980827088088        4.37589969731539       -1.13770066071738
C            1.66893720065126        4.62325607067558       -1.94951875216198
C            2.35355202993728        3.55283074821510       -2.47636960898305
N            1.99882905007552        2.28308348456843       -2.23593585271766
C            2.81749187042033        1.22385540751542       -2.85418473004754
C            2.95981653203981        1.44859393495882       -4.35727124778050
C            4.16688798945727        1.16060000645959       -2.14316664538371
H            1.39286817004713       -0.90279942049207       -0.15756369389634
H            0.20703797910548        0.09107286816689       -2.03420553643068
H           -0.27538047256537        0.61648923801388       -0.40790171339804
H           -0.61570757223826        2.83565392676933       -0.24530076586433
H            0.00469686141102        5.18640685865750       -0.70539293227093
H            1.99112391163553        5.62814488400082       -2.16906650850647
H            3.21163742353461        3.70558791708003       -3.11121413031945
H            2.30779048066802        0.27622813084928       -2.69214769456986
H            3.66973409534840        2.23491793265980       -4.59826803358347
H            3.32720208517024        0.53192140244027       -4.81026987537230
H            2.00024379054592        1.68625634828146       -4.81183191727741
H            4.02456488057313        0.93556724234961       -1.08936586755037
H            4.76231067790953        0.36619998362355       -2.58298452840573
H            4.71628418413762        2.09354015782744       -2.23974670637458

          :  Hamiltonian                  GFN2-xTB          :
         :: total energy             -32.992792151594 Eh    ::
         :: gradient norm              0.000270258167 Eh/a0 ::
         :: HOMO-LUMO gap              3.081130569939 eV    ::
         :: SCC energy               -33.483893883866 Eh    ::
         :: -> dispersion             -0.019808241655 Eh    ::
         :: repulsion energy           0.491101732272 Eh    ::

    * Orbital Energies and Occupations

         #    Occupation            Energy/Eh            Energy/eV
      -------------------------------------------------------------
         1        2.0000           -0.8702696             -23.6812
       ...           ...                  ...                  ...
        18        2.0000           -0.6723992             -18.2969
        19        2.0000           -0.6496662             -17.6783
        20        2.0000           -0.6411118             -17.4455
        21        2.0000           -0.6318934             -17.1947
        22        2.0000           -0.6217093             -16.9176
        23        2.0000           -0.6177168             -16.8089
        24        2.0000           -0.6138888             -16.7048
        25        2.0000           -0.6066766             -16.5085
        26        2.0000           -0.6014738             -16.3669
        27        2.0000           -0.5964303             -16.2297
        28        2.0000           -0.5869980             -15.9730
        29        2.0000           -0.5821576             -15.8413
        30        2.0000           -0.5652862             -15.3822 (HOMO)
        31                         -0.4520567             -12.3011 (LUMO)
        32                         -0.4222887             -11.4911
        33                         -0.3030738              -8.2471
        34                         -0.1831553              -4.9839
        35                         -0.1047449              -2.8503
        36                         -0.0956164              -2.6019
        37                         -0.0636556              -1.7322
        38                         -0.0478985              -1.3034
        39                         -0.0372259              -1.0130
        40                         -0.0302740              -0.8238
        41                         -0.0184048              -0.5008
       ...                                ...                  ...
        58                          0.4493299              12.2269
      -------------------------------------------------------------
                  HL-Gap            0.1132295 Eh            3.0811 eV

     #   Z          covCN         q      C6AA      α(0)
     1   8 O        1.656    -0.428    21.390     6.243
     2   6 C        3.678     0.071    19.607     6.343
     3   6 C        2.928     0.081    26.198     8.394
     4   6 C        2.922    -0.023    28.585     8.768
     5   6 C        2.923     0.011    27.761     8.640
     6   6 C        2.916    -0.015    28.382     8.736
     7   6 C        2.895     0.034    27.228     8.555
     8   7 N        2.751     0.098    19.545     6.566
     9   6 C        3.802     0.019    20.251     6.407
    10   6 C        3.754    -0.129    23.045     6.845
    11   6 C        3.755    -0.127    22.996     6.838
    12   1 H        0.805     0.320     0.663     1.279
    13   1 H        0.923     0.065     2.141     2.288
    14   1 H        0.924     0.066     2.129     2.282
    15   1 H        0.926     0.101     1.779     2.086
    16   1 H        0.926     0.106     1.732     2.058
    17   1 H        0.926     0.106     1.727     2.055
    18   1 H        0.926     0.115     1.656     2.012
    19   1 H        0.925     0.099     1.791     2.093
    20   1 H        0.925     0.066     2.135     2.285
    21   1 H        0.925     0.084     1.938     2.177
    22   1 H        0.925     0.058     2.224     2.332
    23   1 H        0.925     0.076     2.017     2.221
    24   1 H        0.925     0.085     1.928     2.171
    25   1 H        0.925     0.060     2.201     2.320

Wiberg/Mayer (AO) data.
largest (>0.10) Wiberg bond orders for each atom

     #   Z sym  total        # sym  WBO       # sym  WBO       # sym  WBO
 ---------------------------------------------------------------------------
     1   8 O    1.958 --     2 C    1.004    12 H    0.882
     2   6 C    3.961 --     3 C    1.004     1 O    1.004    14 H    0.964
                            13 H    0.940
     3   6 C    3.965 --     4 C    1.416     8 N    1.318     2 C    1.004
     4   6 C    3.983 --     5 C    1.444     3 C    1.416    15 H    0.959
     5   6 C    3.971 --     4 C    1.444     6 C    1.406    16 H    0.961
     6   6 C    3.982 --     7 C    1.474     5 C    1.406    17 H    0.959
     7   6 C    3.957 --     6 C    1.474     8 N    1.324    18 H    0.948
     8   7 N    3.757 --     7 C    1.324     3 C    1.318     9 C    0.928
     9   6 C    3.929 --    10 C    0.999    11 C    0.988    19 H    0.952
                             8 N    0.928
    10   6 C    3.984 --     9 C    0.999    22 H    0.983    20 H    0.979
                            21 H    0.975
    11   6 C    3.980 --     9 C    0.988    25 H    0.981    23 H    0.980
                            24 H    0.975
    12   1 H    0.897 --     1 O    0.882
    13   1 H    0.996 --     2 C    0.940
    14   1 H    0.995 --     2 C    0.964
    15   1 H    0.989 --     4 C    0.959
    16   1 H    0.988 --     5 C    0.961
    17   1 H    0.988 --     6 C    0.959
    18   1 H    0.986 --     7 C    0.948
    19   1 H    0.990 --     9 C    0.952
    20   1 H    0.996 --    10 C    0.979
    21   1 H    0.992 --    10 C    0.975
    22   1 H    0.997 --    10 C    0.983
    23   1 H    0.994 --    11 C    0.980
    24   1 H    0.991 --    11 C    0.975
    25   1 H    0.996 --    11 C    0.981
 ---------------------------------------------------------------------------

molecular dipole:
                 x           y           z       tot (Debye)
 q only:        3.056       4.429      -3.828
   full:        2.788       4.330      -3.763      16.213

           -------------------------------------------------
          | TOTAL ENERGY              -32.992792151594 Eh   |
          | GRADIENT NORM               0.000270258167 Eh/α |
          | HOMO-LUMO GAP               3.081130569939 eV   |
           -------------------------------------------------

 * finished run on 2024/12/20 at 02:08:03.537
