   * xtb version 6.7.1 (edcfbbe) compiled by 'conda@3ef47c1a292c' on 2024-11-25

   ID    Z sym.   atoms
    1    6 C      1, 2, 4, 6, 8-17
    2    8 O      3, 5
    3    7 N      7
    4    1 H      18-39

          program call               : xtb C0146.xyz --opt --namespace C0146 --charge +1
          :  Hamiltonian                  GFN2-xTB          :
 * total energy  :   -51.8357332 Eh     change       -0.1147221E-08 Eh
 * total energy  :   -51.8472899 Eh     change       -0.1155668E-01 Eh
 * total energy  :   -51.8504612 Eh     change       -0.3171342E-02 Eh
 * total energy  :   -51.8509688 Eh     change       -0.5075162E-03 Eh
 * total energy  :   -51.8511355 Eh     change       -0.1667331E-03 Eh
 * total energy  :   -51.8512179 Eh     change       -0.8237431E-04 Eh
 * total energy  :   -51.8512864 Eh     change       -0.6851559E-04 Eh
 * total energy  :   -51.8513537 Eh     change       -0.6734730E-04 Eh
 * total energy  :   -51.8514171 Eh     change       -0.6336562E-04 Eh
 * total energy  :   -51.8514733 Eh     change       -0.5621656E-04 Eh
 * total energy  :   -51.8586043 Eh     change       -0.1408730E-04 Eh
 * total energy  :   -51.8586153 Eh     change       -0.1094097E-04 Eh
 * total energy  :   -51.8586321 Eh     change       -0.1688633E-04 Eh
 * total energy  :   -51.8586554 Eh     change       -0.2329705E-04 Eh
 * total energy  :   -51.8586660 Eh     change       -0.1053097E-04 Eh
 * total energy  :   -51.8586833 Eh     change       -0.1737485E-04 Eh
 * total energy  :   -51.8586897 Eh     change       -0.6380844E-05 Eh
 * total energy  :   -51.8586979 Eh     change       -0.8128624E-05 Eh
 * total energy  :   -51.8587028 Eh     change       -0.4982372E-05 Eh
   *** GEOMETRY OPTIMIZATION CONVERGED AFTER 100 ITERATIONS ***

 final structure:
================
39
 xtb: 6.7.1 (edcfbbe)
C            0.05369795136908        0.58408824960136        1.76169978134630
C            1.53229198295204        0.41409482569989        1.45779279649055
O            2.22609065013181        1.67986899299095        1.45230350251092
C            2.14537626059521        2.42042855369911        0.37510755652848
O            1.54027494732017        2.13939969438102       -0.62775768626901
C            3.02826799954565        3.68537601265285        0.51663542090405
N            2.74180324036667        4.70495997643965       -0.55820055247475
C            1.27795937049128        5.02387441923146       -0.74746625706403
C            0.53895266961880        5.51971463729482        0.46612512242781
C            0.53473473294925        6.87111775344008        0.79968645534591
C           -0.17466062867253        7.31862574415755        1.90108574875525
C           -0.89894688266691        6.42533064490337        2.67239759566259
C           -0.92727584770093        5.08341929984894        2.32916758634743
C           -0.21591442662362        4.63425371369677        1.23093581744389
C            3.47769604644112        5.95000380322485       -0.26932452999781
C            3.23922914059290        4.17557803287143       -1.84882944464659
C            3.01576280533001        4.22480396070984        1.94527242875835
H           -0.08352018139591        1.14607080524250        2.68204715207716
H           -0.39652881629888       -0.39640849660635        1.88050310231633
H           -0.45084402089386        1.09493318116508        0.94527825777044
H            2.03332933960652       -0.16048986456087        2.23754399955951
H            1.67275720683990       -0.06613755433956        0.48533313284913
H            4.04625394934452        3.32340450302735        0.31727783644562
H            1.23271670317099        5.78509446715097       -1.52940429747918
H            0.79668096860417        4.11861143864383       -1.11883869544651
H            1.06236771511036        7.58605002574560        0.18526617679241
H           -0.17087830394671        8.36846958618445        2.14818239622914
H           -1.45454141755771        6.77635365884137        3.52735002882976
H           -1.51210460097420        4.38790175163534        2.91038819620499
H           -0.25697682282480        3.59107743043222        0.95710753663725
H            4.53203708669910        5.73458765306531       -0.10524724006962
H            3.39189603128632        6.62520431843567       -1.11906513553162
H            3.06643029206519        6.44024848274396        0.60911608678811
H            4.31534701042177        4.01806257311272       -1.80120714486880
H            2.74689057398060        3.23329884229538       -2.08089944951510
H            3.02818950717501        4.88499915901491       -2.64639352207778
H            3.15233339728438        3.38339828264726        2.61941383343566
H            3.83452142980262        4.91609103382050        2.11980770515524
H            2.07620294040696        4.70537040746984        2.19658870186570

          :  Hamiltonian                  GFN2-xTB          :
         :: total energy             -51.858702836103 Eh    ::
         :: gradient norm              0.000896661365 Eh/a0 ::
         :: HOMO-LUMO gap              4.113284600484 eV    ::
         :: SCC energy               -52.593664417975 Eh    ::
         :: -> dispersion             -0.037674856155 Eh    ::
         :: repulsion energy           0.734961581872 Eh    ::

    * Orbital Energies and Occupations

         #    Occupation            Energy/Eh            Energy/eV
      -------------------------------------------------------------
         1        2.0000           -0.8869258             -24.1345
       ...           ...                  ...                  ...
        35        2.0000           -0.6097089             -16.5910
        36        2.0000           -0.6025808             -16.3971
        37        2.0000           -0.5997573             -16.3202
        38        2.0000           -0.5974937             -16.2586
        39        2.0000           -0.5906925             -16.0736
        40        2.0000           -0.5776081             -15.7175
        41        2.0000           -0.5711674             -15.5423
        42        2.0000           -0.5622419             -15.2994
        43        2.0000           -0.5549464             -15.1009
        44        2.0000           -0.5465451             -14.8723
        45        2.0000           -0.5413500             -14.7309
        46        2.0000           -0.5276538             -14.3582
        47        2.0000           -0.5260874             -14.3156 (HOMO)
        48                         -0.3749269             -10.2023 (LUMO)
        49                         -0.3562470              -9.6940
        50                         -0.3454944              -9.4014
        51                         -0.2408323              -6.5534
        52                         -0.2162806              -5.8853
        53                         -0.1670492              -4.5456
        54                         -0.1499896              -4.0814
        55                         -0.1465788              -3.9886
        56                         -0.1214387              -3.3045
        57                         -0.0651765              -1.7735
        58                         -0.0460082              -1.2519
       ...                                ...                  ...
        90                          0.5400281              14.6949
      -------------------------------------------------------------
                  HL-Gap            0.1511604 Eh            4.1133 eV

     #   Z          covCN         q      C6AA      α(0)
     1   6 C        3.751    -0.120    22.853     6.818
     2   6 C        3.698     0.070    19.565     6.327
     3   8 O        1.702    -0.235    17.897     5.712
     4   6 C        2.713     0.360    20.886     7.481
     5   8 O        0.856    -0.408    21.843     6.266
     6   6 C        3.799    -0.010    20.752     6.486
     7   7 N        3.618     0.125    19.107     6.492
     8   6 C        3.762    -0.045    21.427     6.598
     9   6 C        2.967    -0.004    28.115     8.697
    10   6 C        2.922    -0.040    29.004     8.832
    11   6 C        2.918    -0.023    28.585     8.767
    12   6 C        2.920    -0.020    28.496     8.754
    13   6 C        2.918    -0.023    28.587     8.768
    14   6 C        2.924    -0.037    28.916     8.818
    15   6 C        3.720    -0.093    22.398     6.760
    16   6 C        3.727    -0.099    22.493     6.771
    17   6 C        3.752    -0.136    23.173     6.865
    18   1 H        0.925     0.063     2.170     2.304
    19   1 H        0.925     0.073     2.051     2.239
    20   1 H        0.925     0.062     2.171     2.304
    21   1 H        0.924     0.081     1.966     2.193
    22   1 H        0.924     0.073     2.058     2.243
    23   1 H        0.923     0.094     1.841     2.122
    24   1 H        0.924     0.083     1.949     2.183
    25   1 H        0.924     0.108     1.711     2.046
    26   1 H        0.926     0.041     2.436     2.441
    27   1 H        0.926     0.058     2.226     2.333
    28   1 H        0.926     0.061     2.190     2.314
    29   1 H        0.926     0.056     2.248     2.345
    30   1 H        0.926     0.041     2.439     2.442
    31   1 H        0.925     0.091     1.866     2.136
    32   1 H        0.925     0.097     1.817     2.108
    33   1 H        0.925     0.107     1.721     2.051
    34   1 H        0.925     0.090     1.881     2.145
    35   1 H        0.925     0.119     1.619     1.990
    36   1 H        0.925     0.097     1.816     2.108
    37   1 H        0.925     0.098     1.807     2.102
    38   1 H        0.925     0.071     2.071     2.250
    39   1 H        0.925     0.074     2.039     2.233

Wiberg/Mayer (AO) data.
largest (>0.10) Wiberg bond orders for each atom

     #   Z sym  total        # sym  WBO       # sym  WBO       # sym  WBO
 ---------------------------------------------------------------------------
     1   6 C    3.986 --     2 C    1.014    18 H    0.984    20 H    0.983
                            19 H    0.978
     2   6 C    3.896 --     1 C    1.014    21 H    0.969    22 H    0.968
                             3 O    0.903
     3   8 O    2.366 --     4 C    1.212     2 C    0.903     5 O    0.190
     4   6 C    3.933 --     5 O    1.721     3 O    1.212     6 C    0.928
     5   8 O    2.048 --     4 C    1.721     3 O    0.190
     6   6 C    3.942 --    17 C    1.005    23 H    0.939     4 C    0.928
                             7 N    0.923
     7   7 N    3.806 --    15 C    0.960    16 C    0.956     6 C    0.923
                             8 C    0.906
     8   6 C    3.920 --     9 C    1.007    24 H    0.963    25 H    0.956
                             7 N    0.906
     9   6 C    3.980 --    10 C    1.409    14 C    1.402     8 C    1.007
                            12 C    0.110
    10   6 C    3.991 --    11 C    1.443     9 C    1.409    26 H    0.967
                            13 C    0.109
    11   6 C    3.990 --    10 C    1.443    12 C    1.439    27 H    0.969
                            14 C    0.110
    12   6 C    3.988 --    11 C    1.439    13 C    1.435    28 H    0.969
                             9 C    0.110
    13   6 C    3.990 --    14 C    1.447    12 C    1.435    29 H    0.969
                            10 C    0.109
    14   6 C    3.991 --    13 C    1.447     9 C    1.402    30 H    0.965
                            11 C    0.110
    15   6 C    3.928 --    31 H    0.976    32 H    0.974    33 H    0.967
                             7 N    0.960
    16   6 C    3.921 --    34 H    0.975    36 H    0.974    35 H    0.965
                             7 N    0.956
    17   6 C    3.974 --     6 C    1.005    38 H    0.979    39 H    0.973
                            37 H    0.967
    18   1 H    0.996 --     1 C    0.984
    19   1 H    0.994 --     1 C    0.978
    20   1 H    0.996 --     1 C    0.983
    21   1 H    0.993 --     2 C    0.969
    22   1 H    0.995 --     2 C    0.968
    23   1 H    0.991 --     6 C    0.939
    24   1 H    0.993 --     8 C    0.963
    25   1 H    0.988 --     8 C    0.956
    26   1 H    0.998 --    10 C    0.967
    27   1 H    0.996 --    11 C    0.969
    28   1 H    0.996 --    12 C    0.969
    29   1 H    0.997 --    13 C    0.969
    30   1 H    0.998 --    14 C    0.965
    31   1 H    0.991 --    15 C    0.976
    32   1 H    0.990 --    15 C    0.974
    33   1 H    0.989 --    15 C    0.967
    34   1 H    0.991 --    16 C    0.975
    35   1 H    0.986 --    16 C    0.965
    36   1 H    0.990 --    16 C    0.974
    37   1 H    0.990 --    17 C    0.967
    38   1 H    0.995 --    17 C    0.979
    39   1 H    0.994 --    17 C    0.973
 ---------------------------------------------------------------------------

molecular dipole:
                 x           y           z       tot (Debye)
 q only:        4.550       8.494       0.712
   full:        4.725       8.495       0.629      24.760

           -------------------------------------------------
          | TOTAL ENERGY              -51.858702836103 Eh   |
          | GRADIENT NORM               0.000896661365 Eh/α |
          | HOMO-LUMO GAP               4.113284600484 eV   |
           -------------------------------------------------

 * finished run on 2024/12/20 at 02:08:01.881
