   * xtb version 6.7.1 (edcfbbe) compiled by 'conda@3ef47c1a292c' on 2024-11-25

   ID    Z sym.   atoms
    1    6 C      1-8, 10-17
    2    7 N      9
    3    1 H      18-45

          program call               : xtb C0140.xyz --opt --namespace C0140 --charge +1
          :  Hamiltonian                  GFN2-xTB          :
 * total energy  :   -51.0885975 Eh     change       -0.9542589E-10 Eh
 * total energy  :   -51.0916555 Eh     change       -0.3057970E-02 Eh
 * total energy  :   -51.0922402 Eh     change       -0.5847316E-03 Eh
 * total energy  :   -51.0923669 Eh     change       -0.1267109E-03 Eh
 * total energy  :   -51.0924874 Eh     change       -0.1204156E-03 Eh
 * total energy  :   -51.0925802 Eh     change       -0.9286531E-04 Eh
 * total energy  :   -51.0926688 Eh     change       -0.8852490E-04 Eh
 * total energy  :   -51.0927590 Eh     change       -0.9021099E-04 Eh
 * total energy  :   -51.0928265 Eh     change       -0.6751811E-04 Eh
 * total energy  :   -51.0928773 Eh     change       -0.5083608E-04 Eh
 * total energy  :   -51.0936416 Eh     change       -0.7752015E-05 Eh
 * total energy  :   -51.0936495 Eh     change       -0.7897593E-05 Eh
 * total energy  :   -51.0936596 Eh     change       -0.1009024E-04 Eh
 * total energy  :   -51.0936730 Eh     change       -0.1344793E-04 Eh
 * total energy  :   -51.0936921 Eh     change       -0.1910182E-04 Eh
 * total energy  :   -51.0937093 Eh     change       -0.1710958E-04 Eh
 * total energy  :   -51.0937181 Eh     change       -0.8824195E-05 Eh
 * total energy  :   -51.0937243 Eh     change       -0.6213022E-05 Eh
 * total energy  :   -51.0937282 Eh     change       -0.3896878E-05 Eh
   *** GEOMETRY OPTIMIZATION CONVERGED AFTER 38 ITERATIONS ***

 final structure:
================
45
 xtb: 6.7.1 (edcfbbe)
C            1.10364273647212       -0.26198592848422        0.38996927194687
C            0.55532659290048        0.64250556965511       -0.70711273947464
C            1.03767352140812        0.25492577135021       -2.10612824002116
C            0.60741170032134       -1.13713939201119       -2.57418807238599
C           -0.90513055538887       -1.37127569062431       -2.60657424701958
C           -1.69441695083727       -0.37671532712956       -3.46245837676307
C           -1.28891249172269       -0.33085158614685       -4.93538198709719
C           -1.60464625731378       -1.61844275888212       -5.70999923769973
N           -3.03874705265565       -1.81233359557789       -5.81679341897182
C           -3.69079242000103       -2.56588051962134       -4.92311862456585
C           -5.06038043630271       -2.69185706122395       -4.95493890387492
C           -5.80774439847333       -2.02464836111416       -5.92916328311106
C           -5.09294336326627       -1.24990046642561       -6.85016366778634
C           -3.72543219283112       -1.16043598693159       -6.76600920787495
C           -7.28120885873861       -2.16790149342187       -6.02583171149255
C           -7.66096022891138       -3.17803541925790       -7.13025027358614
C           -7.21363183947260       -4.59537053906892       -6.80266980547805
H            0.72248806002893       -1.27582805163646        0.29656544444890
H            0.81422563764629        0.11707604597725        1.36683332448995
H            2.18949911033388       -0.29611205584068        0.34608229175022
H           -0.53596661331967        0.64067265522156       -0.67036755196518
H            0.88192276413009        1.66626238422304       -0.51277175837144
H            0.69134750215230        1.00682219998776       -2.81914285208062
H            2.12925941254157        0.28459218445780       -2.11472074691352
H            1.02970868267054       -1.31334725398876       -3.56671030055469
H            1.04535777438539       -1.88387280109546       -1.91083440153439
H           -1.08186872268275       -2.39445889420815       -2.95068979596311
H           -1.29308948963205       -1.31233294438021       -1.58918866069223
H           -2.76230308696574       -0.60405004410411       -3.37891804496320
H           -1.55411405042957        0.62208523974307       -3.04977137418718
H           -1.79479330567991        0.50703402086992       -5.42053478307774
H           -0.21673104410416       -0.15587004745879       -5.01055998155218
H           -1.18398237622673       -1.55302443890874       -6.71527944081079
H           -1.16416379807592       -2.47651740511761       -5.20193912130731
H           -3.09692272905639       -3.07733767638822       -4.18057810148438
H           -5.55173245126674       -3.30863144261009       -4.21924980026554
H           -5.61237344778815       -0.71392973320694       -7.62889209948139
H           -3.15445471727482       -0.56365173966027       -7.46180197082617
H           -7.69232403601726       -2.51253658843758       -5.07674003221408
H           -7.72707482640292       -1.20389251918589       -6.27654822801421
H           -8.74541056705611       -3.15840268839937       -7.23729468242603
H           -7.22468862958537       -2.86101871663990       -8.07906366381126
H           -7.62818094911728       -4.92015586534395       -5.85130327338826
H           -7.56301676666474       -5.27810050550379       -7.57217224186259
H           -6.12853484172879       -4.66982053345268       -6.75350562767617

          :  Hamiltonian                  GFN2-xTB          :
         :: total energy             -51.093728192869 Eh    ::
         :: gradient norm              0.000430659719 Eh/a0 ::
         :: HOMO-LUMO gap              1.489825192894 eV    ::
         :: SCC energy               -51.908796517960 Eh    ::
         :: -> dispersion             -0.037173294585 Eh    ::
         :: repulsion energy           0.815068325091 Eh    ::

    * Orbital Energies and Occupations

         #    Occupation            Energy/Eh            Energy/eV
      -------------------------------------------------------------
         1        2.0000           -0.8657661             -23.5587
       ...           ...                  ...                  ...
        36        2.0000           -0.5745835             -15.6352
        37        2.0000           -0.5680161             -15.4565
        38        2.0000           -0.5629095             -15.3175
        39        2.0000           -0.5570625             -15.1584
        40        2.0000           -0.5554991             -15.1159
        41        2.0000           -0.5524945             -15.0341
        42        2.0000           -0.5486885             -14.9306
        43        2.0000           -0.5371438             -14.6164
        44        2.0000           -0.5303506             -14.4316
        45        2.0000           -0.5256461             -14.3036
        46        2.0000           -0.5044681             -13.7273
        47        2.0000           -0.5006462             -13.6233
        48        2.0000           -0.4962457             -13.5035 (HOMO)
        49                         -0.4414956             -12.0137 (LUMO)
        50                         -0.4131470             -11.2423
        51                         -0.2955208              -8.0415
        52                         -0.1578317              -4.2948
        53                         -0.0750035              -2.0409
        54                         -0.0581838              -1.5833
        55                         -0.0433248              -1.1789
        56                         -0.0316624              -0.8616
        57                         -0.0304758              -0.8293
        58                         -0.0242590              -0.6601
        59                         -0.0126885              -0.3453
       ...                                ...                  ...
        96                          0.4504338              12.2569
      -------------------------------------------------------------
                  HL-Gap            0.0547501 Eh            1.4898 eV

     #   Z          covCN         q      C6AA      α(0)
     1   6 C        3.751    -0.105    22.573     6.775
     2   6 C        3.799    -0.054    21.551     6.610
     3   6 C        3.800    -0.061    21.681     6.629
     4   6 C        3.800    -0.062    21.691     6.631
     5   6 C        3.800    -0.061    21.671     6.628
     6   6 C        3.800    -0.065    21.747     6.640
     7   6 C        3.801    -0.069    21.813     6.650
     8   6 C        3.758    -0.033    21.209     6.566
     9   7 N        2.750     0.098    19.556     6.568
    10   6 C        2.889     0.031    27.314     8.568
    11   6 C        2.920    -0.026    28.661     8.779
    12   6 C        2.974     0.068    26.476     8.440
    13   6 C        2.921    -0.026    28.643     8.777
    14   6 C        2.891     0.029    27.361     8.576
    15   6 C        3.808    -0.075    21.925     6.666
    16   6 C        3.802    -0.053    21.516     6.604
    17   6 C        3.752    -0.112    22.700     6.795
    18   1 H        0.925     0.033     2.544     2.494
    19   1 H        0.925     0.039     2.459     2.452
    20   1 H        0.925     0.040     2.448     2.447
    21   1 H        0.924     0.027     2.627     2.534
    22   1 H        0.924     0.036     2.507     2.476
    23   1 H        0.924     0.026     2.643     2.543
    24   1 H        0.924     0.041     2.436     2.441
    25   1 H        0.924     0.025     2.652     2.547
    26   1 H        0.924     0.047     2.357     2.401
    27   1 H        0.924     0.017     2.780     2.607
    28   1 H        0.924     0.050     2.316     2.380
    29   1 H        0.924     0.022     2.711     2.575
    30   1 H        0.925     0.064     2.149     2.293
    31   1 H        0.924     0.049     2.338     2.391
    32   1 H        0.925     0.082     1.962     2.190
    33   1 H        0.924     0.084     1.939     2.178
    34   1 H        0.925     0.092     1.861     2.134
    35   1 H        0.926     0.103     1.754     2.071
    36   1 H        0.926     0.099     1.797     2.096
    37   1 H        0.926     0.097     1.809     2.103
    38   1 H        0.926     0.100     1.781     2.087
    39   1 H        0.924     0.074     2.044     2.236
    40   1 H        0.924     0.077     2.008     2.216
    41   1 H        0.925     0.066     2.125     2.280
    42   1 H        0.924     0.046     2.371     2.408
    43   1 H        0.925     0.050     2.318     2.381
    44   1 H        0.925     0.060     2.197     2.318
    45   1 H        0.925     0.029     2.600     2.522

Wiberg/Mayer (AO) data.
largest (>0.10) Wiberg bond orders for each atom

     #   Z sym  total        # sym  WBO       # sym  WBO       # sym  WBO
 ---------------------------------------------------------------------------
     1   6 C    3.996 --     2 C    1.020    20 H    0.987    19 H    0.987
                            18 H    0.986
     2   6 C    3.998 --     1 C    1.020     3 C    1.008    22 H    0.978
                            21 H    0.976
     3   6 C    3.996 --     2 C    1.008     4 C    1.008    24 H    0.976
                            23 H    0.976
     4   6 C    3.996 --     3 C    1.008     5 C    1.007    25 H    0.975
                            26 H    0.973
     5   6 C    3.995 --     4 C    1.007     6 C    1.007    27 H    0.973
                            28 H    0.973
     6   6 C    3.993 --     7 C    1.009     5 C    1.007    29 H    0.973
                            30 H    0.967
     7   6 C    3.981 --     6 C    1.009     8 C    0.975    31 H    0.974
                            32 H    0.961
     8   6 C    3.935 --     7 C    0.975     9 N    0.965    33 H    0.963
                            34 H    0.961
     9   7 N    3.753 --    10 C    1.313    14 C    1.304     8 C    0.965
    10   6 C    3.959 --    11 C    1.482     9 N    1.313    35 H    0.953
    11   6 C    3.984 --    10 C    1.482    12 C    1.368    36 H    0.959
    12   6 C    3.966 --    11 C    1.368    13 C    1.357    15 C    1.047
    13   6 C    3.984 --    14 C    1.499    12 C    1.357    37 H    0.959
    14   6 C    3.960 --    13 C    1.499     9 N    1.304    38 H    0.956
    15   6 C    3.987 --    12 C    1.047    39 H    0.968    40 H    0.955
                            16 C    0.953
    16   6 C    3.986 --    17 C    1.023    42 H    0.977    41 H    0.971
                            15 C    0.953
    17   6 C    3.994 --    16 C    1.023    45 H    0.987    43 H    0.986
                            44 H    0.982
    18   1 H    0.999 --     1 C    0.986
    19   1 H    0.998 --     1 C    0.987
    20   1 H    0.998 --     1 C    0.987
    21   1 H    0.999 --     2 C    0.976
    22   1 H    0.999 --     2 C    0.978
    23   1 H    0.999 --     3 C    0.976
    24   1 H    0.998 --     3 C    0.976
    25   1 H    0.999 --     4 C    0.975
    26   1 H    0.998 --     4 C    0.973
    27   1 H    1.000 --     5 C    0.973
    28   1 H    0.997 --     5 C    0.973
    29   1 H    0.999 --     6 C    0.973
    30   1 H    0.995 --     6 C    0.967
    31   1 H    0.998 --     7 C    0.974
    32   1 H    0.992 --     7 C    0.961
    33   1 H    0.992 --     8 C    0.963
    34   1 H    0.991 --     8 C    0.961
    35   1 H    0.989 --    10 C    0.953
    36   1 H    0.990 --    11 C    0.959
    37   1 H    0.990 --    13 C    0.959
    38   1 H    0.990 --    14 C    0.956
    39   1 H    0.994 --    15 C    0.968
    40   1 H    0.993 --    15 C    0.955
    41   1 H    0.994 --    16 C    0.971
    42   1 H    0.998 --    16 C    0.977
    43   1 H    0.997 --    17 C    0.986
    44   1 H    0.995 --    17 C    0.982
    45   1 H    0.999 --    17 C    0.987
 ---------------------------------------------------------------------------

molecular dipole:
                 x           y           z       tot (Debye)
 q only:       -7.315      -3.442     -10.653
   full:       -7.260      -3.436     -10.733      34.074

           -------------------------------------------------
          | TOTAL ENERGY              -51.093728192869 Eh   |
          | GRADIENT NORM               0.000430659719 Eh/α |
          | HOMO-LUMO GAP               1.489825192894 eV   |
           -------------------------------------------------

 * finished run on 2024/12/20 at 02:07:52.834
