   * xtb version 6.7.1 (edcfbbe) compiled by 'conda@3ef47c1a292c' on 2024-11-25

   ID    Z sym.   atoms
    1    6 C      1-4, 6-10
    2    7 N      5
    3    1 H      11-30

          program call               : xtb C0143.xyz --opt --namespace C0143 --charge +1
          :  Hamiltonian                  GFN2-xTB          :
 * total energy  :   -32.0041516 Eh     change       -0.4337863E-10 Eh
 * total energy  :   -32.0089247 Eh     change       -0.4773096E-02 Eh
 * total energy  :   -32.0100531 Eh     change       -0.1128335E-02 Eh
 * total energy  :   -32.0101070 Eh     change       -0.5396600E-04 Eh
 * total energy  :   -32.0101697 Eh     change       -0.6267687E-04 Eh
 * total energy  :   -32.0102097 Eh     change       -0.3996529E-04 Eh
 * total energy  :   -32.0103335 Eh     change       -0.1238083E-03 Eh
 * total energy  :   -32.0104230 Eh     change       -0.8947455E-04 Eh
 * total energy  :   -32.0104928 Eh     change       -0.6981020E-04 Eh
 * total energy  :   -32.0105933 Eh     change       -0.1005604E-03 Eh
 * total energy  :   -32.0108228 Eh     change       -0.3669870E-04 Eh
 * total energy  :   -32.0108507 Eh     change       -0.2793323E-04 Eh
 * total energy  :   -32.0108541 Eh     change       -0.3335378E-05 Eh
 * total energy  :   -32.0108601 Eh     change       -0.6058242E-05 Eh
 * total energy  :   -32.0108643 Eh     change       -0.4232543E-05 Eh
 * total energy  :   -32.0108696 Eh     change       -0.5287764E-05 Eh
 * total energy  :   -32.0108764 Eh     change       -0.6801471E-05 Eh
 * total energy  :   -32.0108758 Eh     change        0.6576557E-06 Eh
 * total energy  :   -32.0108807 Eh     change       -0.4955626E-05 Eh
   *** GEOMETRY OPTIMIZATION CONVERGED AFTER 22 ITERATIONS ***

 final structure:
================
30
 xtb: 6.7.1 (edcfbbe)
C            1.53927585898921       -0.49795088178560        0.27113081710687
C            0.73820263021387       -0.45144144935146        1.56783466643172
C            0.92690521243622        0.85084675310835        2.35063292730453
C            0.42466709332677        2.14347434998853        1.70298361327869
N           -1.05199754248638        2.30997620338230        1.53224190746487
C           -1.75918813818572        1.95496218460949        2.77582356752398
C           -1.61055555275629        1.52483177191426        0.37792822856518
C           -2.34763543669283        2.51122798333164       -0.53368191490153
C           -2.60847764745687        3.71316688704837        0.36824316247325
C           -1.34053519085275        3.74302718579599        1.20483024098651
H            1.22244570869258        0.25604546326681       -0.44724835646605
H            1.42392701783126       -1.47041779274067       -0.19880663272860
H            2.59608315751533       -0.34653248150192        0.47510876676847
H           -0.31723768475405       -0.64358552931312        1.36795447813785
H            1.08818374286277       -1.26175809233563        2.20915678084800
H            0.50159311682323        0.73921286602774        3.34805493751362
H            2.00060672528720        0.99914747723736        2.48798964435703
H            0.75790050508443        2.97257923077730        2.33262960808354
H            0.88262114432907        2.26232907572231        0.71962305708532
H           -1.68389972314240        0.88673522706279        2.96479573186586
H           -1.32621494120620        2.49394123450794        3.61708477577260
H           -2.81055244278352        2.22080131604407        2.69016900973593
H           -2.29287998592571        0.76749562680287        0.76076498552178
H           -0.80483587436613        1.02466619078230       -0.15340471288925
H           -1.71708837973059        2.80460248238079       -1.37238855180748
H           -3.26133229447820        2.08093292518779       -0.93491080110619
H           -2.74209666669250        4.63429723552328       -0.19250408810441
H           -3.49459265818689        3.56174338322821        0.98406158474083
H           -0.51823467875555        4.13481180116424        0.60386963582145
H           -1.42433707493963        4.33087137213323        2.11719293061619

          :  Hamiltonian                  GFN2-xTB          :
         :: total energy             -32.010880735729 Eh    ::
         :: gradient norm              0.000481428305 Eh/a0 ::
         :: HOMO-LUMO gap              8.754545302527 eV    ::
         :: SCC energy               -32.465521882960 Eh    ::
         :: -> dispersion             -0.021863559657 Eh    ::
         :: repulsion energy           0.454641147231 Eh    ::

    * Orbital Energies and Occupations

         #    Occupation            Energy/Eh            Energy/eV
      -------------------------------------------------------------
         1        2.0000           -0.8615922             -23.4451
       ...           ...                  ...                  ...
        18        2.0000           -0.6493150             -17.6688
        19        2.0000           -0.6441473             -17.5281
        20        2.0000           -0.6406025             -17.4317
        21        2.0000           -0.6231001             -16.9554
        22        2.0000           -0.6209942             -16.8981
        23        2.0000           -0.6160139             -16.7626
        24        2.0000           -0.6132246             -16.6867
        25        2.0000           -0.6076215             -16.5342
        26        2.0000           -0.5959092             -16.2155
        27        2.0000           -0.5866997             -15.9649
        28        2.0000           -0.5713822             -15.5481
        29        2.0000           -0.5625248             -15.3071
        30        2.0000           -0.5563168             -15.1382 (HOMO)
        31                         -0.2345932              -6.3836 (LUMO)
        32                         -0.1873875              -5.0991
        33                         -0.1635094              -4.4493
        34                         -0.1509165              -4.1066
        35                         -0.0870444              -2.3686
        36                         -0.0654318              -1.7805
        37                         -0.0475422              -1.2937
        38                         -0.0435666              -1.1855
        39                         -0.0348762              -0.9490
        40                         -0.0310809              -0.8458
        41                         -0.0239951              -0.6529
       ...                                ...                  ...
        60                          0.1848667               5.0305
      -------------------------------------------------------------
                  HL-Gap            0.3217236 Eh            8.7545 eV

     #   Z          covCN         q      C6AA      α(0)
     1   6 C        3.751    -0.113    22.728     6.799
     2   6 C        3.799    -0.064    21.739     6.639
     3   6 C        3.800    -0.077    21.969     6.674
     4   6 C        3.751    -0.036    21.282     6.579
     5   7 N        3.627     0.115    19.263     6.519
     6   6 C        3.713    -0.089    22.329     6.752
     7   6 C        3.777    -0.038    21.277     6.572
     8   6 C        3.831    -0.074    21.894     6.658
     9   6 C        3.822    -0.071    21.848     6.652
    10   6 C        3.802    -0.034    21.186     6.553
    11   1 H        0.925     0.028     2.622     2.532
    12   1 H        0.925     0.057     2.236     2.339
    13   1 H        0.925     0.053     2.288     2.365
    14   1 H        0.924     0.032     2.560     2.502
    15   1 H        0.924     0.060     2.194     2.316
    16   1 H        0.925     0.056     2.242     2.341
    17   1 H        0.924     0.078     2.001     2.212
    18   1 H        0.924     0.078     1.999     2.211
    19   1 H        0.924     0.086     1.920     2.167
    20   1 H        0.925     0.099     1.795     2.095
    21   1 H        0.925     0.093     1.854     2.129
    22   1 H        0.925     0.098     1.799     2.098
    23   1 H        0.925     0.088     1.900     2.156
    24   1 H        0.925     0.098     1.807     2.102
    25   1 H        0.925     0.070     2.083     2.257
    26   1 H        0.925     0.082     1.961     2.190
    27   1 H        0.925     0.086     1.922     2.168
    28   1 H        0.925     0.066     2.125     2.280
    29   1 H        0.924     0.088     1.896     2.153
    30   1 H        0.925     0.087     1.908     2.160

Wiberg/Mayer (AO) data.
largest (>0.10) Wiberg bond orders for each atom

     #   Z sym  total        # sym  WBO       # sym  WBO       # sym  WBO
 ---------------------------------------------------------------------------
     1   6 C    3.993 --     2 C    1.021    13 H    0.986    12 H    0.984
                            11 H    0.981
     2   6 C    3.993 --     1 C    1.021     3 C    1.006    14 H    0.974
                            15 H    0.974
     3   6 C    3.983 --     2 C    1.006     4 C    1.005    16 H    0.971
                            17 H    0.962
     4   6 C    3.931 --     3 C    1.005    18 H    0.969    19 H    0.965
                             5 N    0.929
     5   7 N    3.803 --     6 C    0.965    10 C    0.929     4 C    0.929
                             7 C    0.926
     6   6 C    3.932 --    21 H    0.975    22 H    0.973    20 H    0.972
                             5 N    0.965
     7   6 C    3.931 --     8 C    1.004    23 H    0.971    24 H    0.963
                             5 N    0.926
     8   6 C    3.986 --     7 C    1.004     9 C    1.004    25 H    0.977
                            26 H    0.972
     9   6 C    3.986 --    10 C    1.011     8 C    1.004    28 H    0.973
                            27 H    0.968
    10   6 C    3.935 --     9 C    1.011    30 H    0.969    29 H    0.968
                             5 N    0.929
    11   1 H    0.999 --     1 C    0.981
    12   1 H    0.997 --     1 C    0.984
    13   1 H    0.997 --     1 C    0.986
    14   1 H    0.999 --     2 C    0.974
    15   1 H    0.996 --     2 C    0.974
    16   1 H    0.997 --     3 C    0.971
    17   1 H    0.994 --     3 C    0.962
    18   1 H    0.994 --     4 C    0.969
    19   1 H    0.993 --     4 C    0.965
    20   1 H    0.990 --     6 C    0.972
    21   1 H    0.991 --     6 C    0.975
    22   1 H    0.990 --     6 C    0.973
    23   1 H    0.992 --     7 C    0.971
    24   1 H    0.990 --     7 C    0.963
    25   1 H    0.995 --     8 C    0.977
    26   1 H    0.993 --     8 C    0.972
    27   1 H    0.992 --     9 C    0.968
    28   1 H    0.996 --     9 C    0.973
    29   1 H    0.992 --    10 C    0.968
    30   1 H    0.992 --    10 C    0.969
 ---------------------------------------------------------------------------

molecular dipole:
                 x           y           z       tot (Debye)
 q only:       -1.984       4.155       2.603
   full:       -1.929       4.203       2.693      13.603

           -------------------------------------------------
          | TOTAL ENERGY              -32.010880735729 Eh   |
          | GRADIENT NORM               0.000481428305 Eh/α |
          | HOMO-LUMO GAP               8.754545302527 eV   |
           -------------------------------------------------

 * finished run on 2024/12/20 at 02:07:55.231
