   * xtb version 6.7.1 (edcfbbe) compiled by 'conda@3ef47c1a292c' on 2024-11-25

   ID    Z sym.   atoms
    1    6 C      1, 3, 5-10
    2    8 O      2
    3    7 N      4
    4    1 H      11-30

          program call               : xtb C0141.xyz --opt --namespace C0141 --charge +1
          :  Hamiltonian                  GFN2-xTB          :
 * total energy  :   -33.9004293 Eh     change       -0.3571898E-10 Eh
 * total energy  :   -33.9063271 Eh     change       -0.5897746E-02 Eh
 * total energy  :   -33.9078444 Eh     change       -0.1517298E-02 Eh
 * total energy  :   -33.9080459 Eh     change       -0.2015219E-03 Eh
 * total energy  :   -33.9082289 Eh     change       -0.1829773E-03 Eh
 * total energy  :   -33.9083104 Eh     change       -0.8156481E-04 Eh
 * total energy  :   -33.9083820 Eh     change       -0.7160447E-04 Eh
 * total energy  :   -33.9084264 Eh     change       -0.4438716E-04 Eh
 * total energy  :   -33.9084747 Eh     change       -0.4825936E-04 Eh
 * total energy  :   -33.9085081 Eh     change       -0.3346274E-04 Eh
 * total energy  :   -33.9085531 Eh     change       -0.4495550E-04 Eh
 * total energy  :   -33.9085723 Eh     change       -0.1920915E-04 Eh
 * total energy  :   -33.9085878 Eh     change       -0.1546651E-04 Eh
 * total energy  :   -33.9086009 Eh     change       -0.1307681E-04 Eh
 * total energy  :   -33.9086062 Eh     change       -0.5368660E-05 Eh
 * total energy  :   -33.9086082 Eh     change       -0.1980659E-05 Eh
   *** GEOMETRY OPTIMIZATION CONVERGED AFTER 16 ITERATIONS ***

 final structure:
================
30
 xtb: 6.7.1 (edcfbbe)
C            0.95269621308991       -1.05458482411925        0.74639535271493
O            0.49903465770099       -0.66219933888063       -0.53790073573750
C            1.11931292407448       -1.34596008403174       -1.57846701101653
N            0.62424306950010       -0.77925746860581       -2.85923486911814
C            0.96146751904522        0.68764847663073       -2.90433059031654
C            2.43262033353855        1.04315523268064       -3.05186249159196
C            1.28395451981918       -1.45786405201733       -4.01660957924937
C            0.86495067624027       -2.88931409415304       -4.31070029395564
C           -0.87845478248989       -0.86702631551050       -2.93926113042893
C           -1.54185377080666       -2.07179189584367       -2.28830317644861
H            0.38926925649018       -0.45600665641967        1.45670069350879
H            2.02172630536035       -0.85489049046656        0.86249911616568
H            0.76082515726210       -2.11649844562185        0.92511968621021
H            2.21310715292013       -1.22573310043284       -1.53827383592739
H            0.88822503097511       -2.42001924381207       -1.54675765590038
H            0.40601353836611        1.11729321641122       -3.74011074411940
H            0.58469270327045        1.11186204238923       -1.97179571624842
H            2.84217565304092        0.75588888683309       -4.01591333014173
H            2.51093400509462        2.12526237942938       -2.97659440709067
H            3.04736722035251        0.62304101857715       -2.26093121616708
H            1.07819739931621       -0.84592439754859       -4.89771938416636
H            2.35862681574261       -1.44168553875822       -3.82985982164095
H           -0.16994403021069       -2.95987095032541       -4.63012974334572
H            1.48160406287968       -3.24546580382891       -5.13300593474808
H            1.03409115035083       -3.55504671323147       -3.46957764439811
H           -1.27566845773139        0.01958999765548       -2.44383061432486
H           -1.13781307077442       -0.81774467669536       -3.99789501715640
H           -1.44079194197548       -2.03749808205658       -1.20784716342879
H           -2.60392409969811       -2.01353272647791       -2.51588087646619
H           -1.17953521074461       -3.02479635176935       -2.65671186546649

          :  Hamiltonian                  GFN2-xTB          :
         :: total energy             -33.908608199470 Eh    ::
         :: gradient norm              0.000350781244 Eh/a0 ::
         :: HOMO-LUMO gap              8.525702697379 eV    ::
         :: SCC energy               -34.336472970608 Eh    ::
         :: -> dispersion             -0.021560018862 Eh    ::
         :: repulsion energy           0.427864771138 Eh    ::

    * Orbital Energies and Occupations

         #    Occupation            Energy/Eh            Energy/eV
      -------------------------------------------------------------
         1        2.0000           -0.8726763             -23.7467
       ...           ...                  ...                  ...
        19        2.0000           -0.6549167             -17.8212
        20        2.0000           -0.6421844             -17.4747
        21        2.0000           -0.6340844             -17.2543
        22        2.0000           -0.6319918             -17.1974
        23        2.0000           -0.6237893             -16.9742
        24        2.0000           -0.6166988             -16.7812
        25        2.0000           -0.6106467             -16.6165
        26        2.0000           -0.6051228             -16.4662
        27        2.0000           -0.6005735             -16.3424
        28        2.0000           -0.5996731             -16.3179
        29        2.0000           -0.5953218             -16.1995
        30        2.0000           -0.5892470             -16.0342
        31        2.0000           -0.5561070             -15.1324 (HOMO)
        32                         -0.2427932              -6.6067 (LUMO)
        33                         -0.1791537              -4.8750
        34                         -0.1686908              -4.5903
        35                         -0.1595203              -4.3408
        36                         -0.1007204              -2.7407
        37                         -0.0656012              -1.7851
        38                         -0.0567080              -1.5431
        39                         -0.0463816              -1.2621
        40                         -0.0252595              -0.6873
        41                         -0.0145193              -0.3951
        42                         -0.0117334              -0.3193
       ...                                ...                  ...
        60                          0.1497374               4.0746
      -------------------------------------------------------------
                  HL-Gap            0.3133138 Eh            8.5257 eV

     #   Z          covCN         q      C6AA      α(0)
     1   6 C        3.654     0.021    20.520     6.504
     2   8 O        1.701    -0.297    18.934     5.875
     3   6 C        3.661     0.122    18.844     6.228
     4   7 N        3.617     0.095    19.601     6.576
     5   6 C        3.762    -0.035    21.252     6.571
     6   6 C        3.750    -0.129    23.042     6.846
     7   6 C        3.752    -0.033    21.221     6.569
     8   6 C        3.751    -0.129    23.033     6.844
     9   6 C        3.753    -0.029    21.156     6.559
    10   6 C        3.751    -0.130    23.064     6.849
    11   1 H        0.925     0.093     1.845     2.124
    12   1 H        0.924     0.053     2.283     2.363
    13   1 H        0.924     0.053     2.286     2.364
    14   1 H        0.923     0.064     2.155     2.296
    15   1 H        0.923     0.073     2.057     2.243
    16   1 H        0.924     0.083     1.948     2.183
    17   1 H        0.924     0.105     1.739     2.062
    18   1 H        0.925     0.067     2.124     2.279
    19   1 H        0.925     0.090     1.881     2.145
    20   1 H        0.925     0.063     2.162     2.299
    21   1 H        0.924     0.088     1.899     2.155
    22   1 H        0.924     0.085     1.926     2.170
    23   1 H        0.925     0.074     2.038     2.233
    24   1 H        0.925     0.087     1.909     2.161
    25   1 H        0.925     0.061     2.184     2.311
    26   1 H        0.924     0.095     1.831     2.116
    27   1 H        0.924     0.083     1.948     2.183
    28   1 H        0.925     0.076     2.017     2.221
    29   1 H        0.925     0.084     1.941     2.179
    30   1 H        0.925     0.067     2.119     2.276

Wiberg/Mayer (AO) data.
largest (>0.10) Wiberg bond orders for each atom

     #   Z sym  total        # sym  WBO       # sym  WBO       # sym  WBO
 ---------------------------------------------------------------------------
     1   6 C    3.921 --    13 H    0.979    12 H    0.978    11 H    0.975
                             2 O    0.963
     2   8 O    2.083 --     3 C    1.017     1 C    0.963
     3   6 C    3.933 --     2 O    1.017    14 H    0.952    15 H    0.951
                             4 N    0.942
     4   7 N    3.793 --     3 C    0.942     7 C    0.929     5 C    0.918
                             9 C    0.915
     5   6 C    3.926 --     6 C    1.024    16 H    0.969    17 H    0.962
                             4 N    0.918
     6   6 C    3.982 --     5 C    1.024    18 H    0.981    20 H    0.979
                            19 H    0.971
     7   6 C    3.932 --     8 C    1.022    21 H    0.967    22 H    0.966
                             4 N    0.929
     8   6 C    3.981 --     7 C    1.022    25 H    0.980    23 H    0.979
                            24 H    0.972
     9   6 C    3.925 --    10 C    1.022    27 H    0.969    26 H    0.967
                             4 N    0.915
    10   6 C    3.980 --     9 C    1.022    28 H    0.980    30 H    0.978
                            29 H    0.971
    11   1 H    0.991 --     1 C    0.975
    12   1 H    0.997 --     1 C    0.978
    13   1 H    0.997 --     1 C    0.979
    14   1 H    0.996 --     3 C    0.952
    15   1 H    0.995 --     3 C    0.951
    16   1 H    0.993 --     5 C    0.969
    17   1 H    0.989 --     5 C    0.962
    18   1 H    0.996 --     6 C    0.981
    19   1 H    0.992 --     6 C    0.971
    20   1 H    0.996 --     6 C    0.979
    21   1 H    0.992 --     7 C    0.967
    22   1 H    0.993 --     7 C    0.966
    23   1 H    0.994 --     8 C    0.979
    24   1 H    0.992 --     8 C    0.972
    25   1 H    0.996 --     8 C    0.980
    26   1 H    0.991 --     9 C    0.967
    27   1 H    0.993 --     9 C    0.969
    28   1 H    0.994 --    10 C    0.980
    29   1 H    0.993 --    10 C    0.971
    30   1 H    0.995 --    10 C    0.978
 ---------------------------------------------------------------------------

molecular dipole:
                 x           y           z       tot (Debye)
 q only:        1.394      -1.855      -5.103
   full:        1.546      -1.926      -5.112      14.430

           -------------------------------------------------
          | TOTAL ENERGY              -33.908608199470 Eh   |
          | GRADIENT NORM               0.000350781244 Eh/α |
          | HOMO-LUMO GAP               8.525702697379 eV   |
           -------------------------------------------------

 * finished run on 2024/12/20 at 02:07:53.567
