   * xtb version 6.7.1 (edcfbbe) compiled by 'conda@3ef47c1a292c' on 2024-11-25

   ID    Z sym.   atoms
    1    6 C      1-4, 6-11, 14, 15
    2    7 N      5
    3    8 O      12, 13
    4    1 H      16-33

          program call               : xtb C0142.xyz --opt --namespace C0142 --charge +1
          :  Hamiltonian                  GFN2-xTB          :
 * total energy  :   -45.5376946 Eh     change       -0.8649721E-09 Eh
 * total energy  :   -45.5419797 Eh     change       -0.4285095E-02 Eh
 * total energy  :   -45.5427289 Eh     change       -0.7492185E-03 Eh
 * total energy  :   -45.5428860 Eh     change       -0.1571220E-03 Eh
 * total energy  :   -45.5430183 Eh     change       -0.1322287E-03 Eh
 * total energy  :   -45.5430838 Eh     change       -0.6557552E-04 Eh
 * total energy  :   -45.5431565 Eh     change       -0.7267709E-04 Eh
 * total energy  :   -45.5432133 Eh     change       -0.5678218E-04 Eh
 * total energy  :   -45.5432479 Eh     change       -0.3457333E-04 Eh
 * total energy  :   -45.5432785 Eh     change       -0.3064051E-04 Eh
 * total energy  :   -45.5433319 Eh     change       -0.1556096E-06 Eh
 * total energy  :   -45.5433408 Eh     change       -0.8846697E-05 Eh
 * total energy  :   -45.5433529 Eh     change       -0.1207521E-04 Eh
 * total energy  :   -45.5433592 Eh     change       -0.6328580E-05 Eh
 * total energy  :   -45.5433792 Eh     change       -0.2001429E-04 Eh
 * total energy  :   -45.5433873 Eh     change       -0.8049875E-05 Eh
 * total energy  :   -45.5434102 Eh     change       -0.2293027E-04 Eh
 * total energy  :   -45.5434183 Eh     change       -0.8128269E-05 Eh
 * total energy  :   -45.5434232 Eh     change       -0.4901595E-05 Eh
   *** GEOMETRY OPTIMIZATION CONVERGED AFTER 22 ITERATIONS ***

 final structure:
================
33
 xtb: 6.7.1 (edcfbbe)
C            1.30999723997584        0.14547070895130       -0.46380627737628
C            0.77212567423589       -1.03757369330221       -1.26072400770787
C            1.10149803093835       -2.39123933192301       -0.63289046001579
C            0.37821354297678       -2.65904588393874        0.69757375828430
N           -1.05096548059131       -2.78438635998006        0.48746516493691
C           -1.56194819939057       -3.96743255143700        0.12126101219869
C           -2.90245241227911       -4.10912043456359       -0.15517657210825
C           -3.74105539755066       -2.99829889276896       -0.06159760985809
C           -3.18965887880264       -1.77634969066551        0.31334319025734
C           -1.83820667635951       -1.70624166174585        0.58194332233121
C           -5.21085829372465       -3.18318405374548       -0.36248037806438
O           -5.66195163969189       -4.25955541512407       -0.64455138661785
O           -5.87263242175513       -2.04857368066943       -0.25826662332864
C           -7.28685392505459       -2.08221632706826       -0.53105168026436
C           -7.56388955132131       -2.03849806370574       -2.02493831423105
H            0.86673895748528        0.21587980615275        0.52721387489223
H            1.09730956754362        1.07258977833297       -0.98810231313073
H            2.38733137548278        0.06479038609035       -0.34759526967027
H           -0.30792008106936       -0.93654929813953       -1.40341219957508
H            1.22452273950538       -1.01664473559565       -2.25291742763944
H            0.85727782460076       -3.18994893865251       -1.33623622445051
H            2.17232435891376       -2.43891177522772       -0.43350653964840
H            0.75382692598894       -3.58684839137934        1.13231907762493
H            0.57016530592459       -1.84293780050073        1.39447389324773
H           -0.88017932691126       -4.80305257730899        0.05818663585701
H           -3.31991761473382       -5.06349224379913       -0.44048021838714
H           -3.81096071067920       -0.89885893320786        0.39659922099426
H           -1.37628165167963       -0.77999843787579        0.89045323596205
H           -7.70620766628479       -2.99114445855173       -0.09026134090075
H           -7.68362443729050       -1.20033944205654       -0.02646146979655
H           -7.18485822728443       -2.93554731099133       -2.50832563846755
H           -8.63606137827389       -1.98504696307914       -2.18548392598464
H           -7.09735757284419       -1.16507333252230       -2.47403650936373

          :  Hamiltonian                  GFN2-xTB          :
         :: total energy             -45.543423222109 Eh    ::
         :: gradient norm              0.000532186860 Eh/a0 ::
         :: HOMO-LUMO gap              2.074584144118 eV    ::
         :: SCC energy               -46.184163508966 Eh    ::
         :: -> dispersion             -0.026083152420 Eh    ::
         :: repulsion energy           0.640740286857 Eh    ::

    * Orbital Energies and Occupations

         #    Occupation            Energy/Eh            Energy/eV
      -------------------------------------------------------------
         1        2.0000           -0.8817511             -23.9937
       ...           ...                  ...                  ...
        29        2.0000           -0.6222713             -16.9329
        30        2.0000           -0.6187774             -16.8378
        31        2.0000           -0.6147938             -16.7294
        32        2.0000           -0.6093573             -16.5815
        33        2.0000           -0.6023844             -16.3917
        34        2.0000           -0.5988328             -16.2951
        35        2.0000           -0.5733730             -15.6023
        36        2.0000           -0.5686280             -15.4732
        37        2.0000           -0.5638976             -15.3444
        38        2.0000           -0.5614803             -15.2787
        39        2.0000           -0.5580060             -15.1841
        40        2.0000           -0.5534571             -15.0603
        41        2.0000           -0.5457468             -14.8505 (HOMO)
        42                         -0.4695073             -12.7759 (LUMO)
        43                         -0.4294879             -11.6870
        44                         -0.3636549              -9.8956
        45                         -0.2810631              -7.6481
        46                         -0.1707848              -4.6473
        47                         -0.1351386              -3.6773
        48                         -0.0825543              -2.2464
        49                         -0.0677861              -1.8446
        50                         -0.0501673              -1.3651
        51                         -0.0352259              -0.9585
        52                         -0.0329266              -0.8960
       ...                                ...                  ...
        78                          0.5679844              15.4556
      -------------------------------------------------------------
                  HL-Gap            0.0762396 Eh            2.0746 eV

     #   Z          covCN         q      C6AA      α(0)
     1   6 C        3.752    -0.115    22.761     6.804
     2   6 C        3.800    -0.062    21.699     6.632
     3   6 C        3.802    -0.071    21.851     6.655
     4   6 C        3.759    -0.038    21.304     6.580
     5   7 N        2.750     0.116    19.256     6.517
     6   6 C        2.891     0.032    27.275     8.562
     7   6 C        2.918    -0.008    28.220     8.711
     8   6 C        2.977     0.026    27.413     8.588
     9   6 C        2.915    -0.011    28.294     8.722
    10   6 C        2.891     0.033    27.261     8.560
    11   6 C        2.721     0.360    20.898     7.483
    12   8 O        0.857    -0.367    21.030     6.148
    13   8 O        1.703    -0.241    18.002     5.728
    14   6 C        3.699     0.071    19.550     6.323
    15   6 C        3.750    -0.121    22.875     6.821
    16   1 H        0.925     0.031     2.575     2.510
    17   1 H        0.925     0.058     2.228     2.334
    18   1 H        0.925     0.056     2.250     2.346
    19   1 H        0.924     0.029     2.606     2.525
    20   1 H        0.924     0.065     2.136     2.285
    21   1 H        0.924     0.055     2.257     2.350
    22   1 H        0.924     0.084     1.936     2.176
    23   1 H        0.924     0.092     1.858     2.132
    24   1 H        0.925     0.098     1.799     2.098
    25   1 H        0.926     0.113     1.667     2.019
    26   1 H        0.926     0.129     1.544     1.943
    27   1 H        0.926     0.119     1.624     1.993
    28   1 H        0.926     0.116     1.648     2.008
    29   1 H        0.924     0.074     2.041     2.234
    30   1 H        0.924     0.078     2.004     2.214
    31   1 H        0.925     0.067     2.124     2.279
    32   1 H        0.925     0.073     2.057     2.243
    33   1 H        0.925     0.061     2.188     2.313

Wiberg/Mayer (AO) data.
largest (>0.10) Wiberg bond orders for each atom

     #   Z sym  total        # sym  WBO       # sym  WBO       # sym  WBO
 ---------------------------------------------------------------------------
     1   6 C    3.992 --     2 C    1.021    18 H    0.985    17 H    0.984
                            16 H    0.983
     2   6 C    3.993 --     1 C    1.021     3 C    1.010    19 H    0.972
                            20 H    0.969
     3   6 C    3.979 --     2 C    1.010    21 H    0.974     4 C    0.970
                            22 H    0.963
     4   6 C    3.930 --     3 C    0.970     5 N    0.966    23 H    0.962
                            24 H    0.959
     5   7 N    3.768 --    10 C    1.325     6 C    1.320     4 C    0.966
     6   6 C    3.957 --     7 C    1.473     5 N    1.320    25 H    0.953
     7   6 C    3.973 --     6 C    1.473     8 C    1.383    26 H    0.951
     8   6 C    3.973 --     9 C    1.395     7 C    1.383    11 C    0.952
     9   6 C    3.978 --    10 C    1.460     8 C    1.395    27 H    0.954
    10   6 C    3.957 --     9 C    1.460     5 N    1.325    28 H    0.950
    11   6 C    3.939 --    12 O    1.743    13 O    1.184     8 C    0.952
    12   8 O    2.075 --    11 C    1.743    13 O    0.202
    13   8 O    2.355 --    11 C    1.184    14 C    0.909    12 O    0.202
    14   6 C    3.898 --    15 C    1.011    30 H    0.970    29 H    0.967
                            13 O    0.909
    15   6 C    3.984 --    14 C    1.011    33 H    0.985    31 H    0.984
                            32 H    0.978
    16   1 H    0.999 --     1 C    0.983
    17   1 H    0.997 --     1 C    0.984
    18   1 H    0.997 --     1 C    0.985
    19   1 H    0.999 --     2 C    0.972
    20   1 H    0.994 --     2 C    0.969
    21   1 H    0.997 --     3 C    0.974
    22   1 H    0.991 --     3 C    0.963
    23   1 H    0.991 --     4 C    0.962
    24   1 H    0.990 --     4 C    0.959
    25   1 H    0.987 --     6 C    0.953
    26   1 H    0.983 --     7 C    0.951
    27   1 H    0.986 --     9 C    0.954
    28   1 H    0.986 --    10 C    0.950
    29   1 H    0.994 --    14 C    0.967
    30   1 H    0.994 --    14 C    0.970
    31   1 H    0.996 --    15 C    0.984
    32   1 H    0.994 --    15 C    0.978
    33   1 H    0.996 --    15 C    0.985
 ---------------------------------------------------------------------------

molecular dipole:
                 x           y           z       tot (Debye)
 q only:       -3.285      -4.228       0.188
   full:       -3.243      -4.208       0.326      13.528

           -------------------------------------------------
          | TOTAL ENERGY              -45.543423222109 Eh   |
          | GRADIENT NORM               0.000532186860 Eh/α |
          | HOMO-LUMO GAP               2.074584144118 eV   |
           -------------------------------------------------

 * finished run on 2024/12/20 at 02:07:54.438
