   * xtb version 6.7.1 (edcfbbe) compiled by 'conda@3ef47c1a292c' on 2024-11-25

   ID    Z sym.   atoms
    1    6 C      1, 4, 5, 7-9, 11-16
    2    8 O      2, 10
    3    7 N      3, 6
    4   17 Cl     17
    5    1 H      18-29

          program call               : xtb C0147.xyz --opt --namespace C0147 --charge +1
          :  Hamiltonian                  GFN2-xTB          :
 * total energy  :   -49.8844060 Eh     change       -0.5552181E-09 Eh
 * total energy  :   -49.8910707 Eh     change       -0.6664735E-02 Eh
 * total energy  :   -49.8931120 Eh     change       -0.2041270E-02 Eh
 * total energy  :   -49.8933582 Eh     change       -0.2461889E-03 Eh
 * total energy  :   -49.8935466 Eh     change       -0.1884332E-03 Eh
 * total energy  :   -49.8936725 Eh     change       -0.1258881E-03 Eh
 * total energy  :   -49.8938779 Eh     change       -0.2054040E-03 Eh
 * total energy  :   -49.8941685 Eh     change       -0.2906521E-03 Eh
 * total energy  :   -49.8944815 Eh     change       -0.3129223E-03 Eh
 * total energy  :   -49.8947898 Eh     change       -0.3083039E-03 Eh
 * total energy  :   -49.8990552 Eh     change       -0.4291124E-04 Eh
 * total energy  :   -49.8990942 Eh     change       -0.3901804E-04 Eh
 * total energy  :   -49.8991111 Eh     change       -0.1685981E-04 Eh
 * total energy  :   -49.8991311 Eh     change       -0.2006229E-04 Eh
 * total energy  :   -49.8991399 Eh     change       -0.8771193E-05 Eh
 * total energy  :   -49.8991481 Eh     change       -0.8245348E-05 Eh
 * total energy  :   -49.8991507 Eh     change       -0.2581600E-05 Eh
 * total energy  :   -49.8991558 Eh     change       -0.5113012E-05 Eh
 * total energy  :   -49.8991576 Eh     change       -0.1765791E-05 Eh
   *** GEOMETRY OPTIMIZATION CONVERGED AFTER 45 ITERATIONS ***

 final structure:
================
29
 xtb: 6.7.1 (edcfbbe)
C           -0.34053560495707       -0.87683715911380        0.26253808417033
O           -0.68776841551827       -0.13888857348313        1.42303502746343
N            0.32291579471369        0.54638224844459        2.01701253056181
C            1.66246219281255        0.45726246712526        1.80469270036373
C            2.24791165389899        1.33150195197345        2.67334643767135
N            1.26197252379551        1.91520050717985        3.40366044415171
C            0.09003730177197        1.43814177065813        2.97657700492642
C            1.39244902158226        3.03122545781833        4.29301554308576
C            0.64561414019277        4.24420317571160        3.65668484266643
O           -0.04989264850171        4.03743698664739        2.68863562285428
C            0.82936375755778        5.54189705235718        4.28868463891518
C            1.56410551638607        5.74239884829030        5.46452121972710
C            1.67914593137916        7.00344905952936        6.00615474154060
C            1.06646101025406        8.09080318443536        5.38437049256637
C            0.33044518407981        7.90779152137024        4.21642465690234
C            0.21412143621666        6.64649505020354        3.67968667591260
Cl           1.21930182011632        9.65320622558055        6.06358147463181
H           -1.29361304149176       -1.26195271277850       -0.09404970600713
H            0.32056545463566       -1.71376113408678        0.49900292355207
H            0.10163297428895       -0.23592187918257       -0.50348208750413
H            2.11399024636536       -0.18809815091979        1.08034866946098
H            3.28563106899856        1.55852521852674        2.81054869573384
H           -0.88399620689834        1.69846118104888        3.33951980876769
H            0.92542061274826        2.81181718614377        5.25688723589795
H            2.44863642034213        3.25680019720591        4.43745520135317
H            2.04076160916771        4.91871318982925        5.97195844977894
H            2.24180617902471        7.15771239570607        6.91262954778721
H           -0.14342064526677        8.75217815590867        3.74218063249689
H           -0.35398528770264        6.48410657786648        2.77623849057508

          :  Hamiltonian                  GFN2-xTB          :
         :: total energy             -49.899157603778 Eh    ::
         :: gradient norm              0.000672790693 Eh/a0 ::
         :: HOMO-LUMO gap              2.505862476669 eV    ::
         :: SCC energy               -50.553523633538 Eh    ::
         :: -> dispersion             -0.027262135695 Eh    ::
         :: repulsion energy           0.654366029760 Eh    ::

    * Orbital Energies and Occupations

         #    Occupation            Energy/Eh            Energy/eV
      -------------------------------------------------------------
         1        2.0000           -1.1493748             -31.2761
       ...           ...                  ...                  ...
        32        2.0000           -0.6201607             -16.8754
        33        2.0000           -0.6134241             -16.6921
        34        2.0000           -0.6089000             -16.5690
        35        2.0000           -0.6019568             -16.3801
        36        2.0000           -0.5881137             -16.0034
        37        2.0000           -0.5743760             -15.6296
        38        2.0000           -0.5683956             -15.4668
        39        2.0000           -0.5623140             -15.3013
        40        2.0000           -0.5512496             -15.0003
        41        2.0000           -0.5366108             -14.6019
        42        2.0000           -0.5353724             -14.5682
        43        2.0000           -0.5149211             -14.0117
        44        2.0000           -0.5063100             -13.7774 (HOMO)
        45                         -0.4142213             -11.2715 (LUMO)
        46                         -0.3978808             -10.8269
        47                         -0.3687901             -10.0353
        48                         -0.3505974              -9.5402
        49                         -0.3220101              -8.7623
        50                         -0.2468228              -6.7164
        51                         -0.2268807              -6.1737
        52                         -0.2157161              -5.8699
        53                         -0.1450480              -3.9470
        54                         -0.1079438              -2.9373
        55                         -0.0886745              -2.4130
       ...                                ...                  ...
        85                          0.5387240              14.6594
      -------------------------------------------------------------
                  HL-Gap            0.0920888 Eh            2.5059 eV

     #   Z          covCN         q      C6AA      α(0)
     1   6 C        3.634     0.006    20.872     6.575
     2   8 O        1.769    -0.190    17.158     5.593
     3   7 N        2.907     0.211    17.770     6.261
     4   6 C        3.043    -0.029    28.675     8.783
     5   6 C        3.078    -0.010    28.189     8.705
     6   7 N        2.873     0.080    19.858     6.619
     7   6 C        3.072     0.041    27.016     8.522
     8   6 C        3.743    -0.055    21.633     6.635
     9   6 C        2.822     0.227    23.240     7.899
    10   8 O        0.857    -0.354    20.792     6.114
    11   6 C        2.969    -0.021    28.517     8.759
    12   6 C        2.919    -0.025    28.638     8.776
    13   6 C        2.955    -0.032    28.796     8.802
    14   6 C        2.887     0.119    25.391     8.261
    15   6 C        2.952    -0.031    28.760     8.796
    16   6 C        2.928    -0.008    28.216     8.711
    17  17 Cl       0.972    -0.093   102.066    15.456
    18   1 H        0.925     0.121     1.609     1.983
    19   1 H        0.924     0.076     2.017     2.221
    20   1 H        0.924     0.078     2.000     2.212
    21   1 H        0.927     0.115     1.651     2.009
    22   1 H        0.926     0.111     1.686     2.031
    23   1 H        0.926     0.140     1.464     1.892
    24   1 H        0.924     0.106     1.736     2.060
    25   1 H        0.925     0.104     1.746     2.066
    26   1 H        0.926     0.056     2.247     2.344
    27   1 H        0.926     0.083     1.946     2.182
    28   1 H        0.926     0.087     1.906     2.159
    29   1 H        0.926     0.088     1.896     2.153

Wiberg/Mayer (AO) data.
largest (>0.10) Wiberg bond orders for each atom

     #   Z sym  total        # sym  WBO       # sym  WBO       # sym  WBO
 ---------------------------------------------------------------------------
     1   6 C    3.894 --    20 H    0.975    19 H    0.975    18 H    0.960
                             2 O    0.956
     2   8 O    2.154 --     3 N    1.012     1 C    0.956
     3   7 N    3.730 --     7 C    1.337     4 C    1.211     2 O    1.012
     4   6 C    3.936 --     5 C    1.568     3 N    1.211    21 H    0.958
     5   6 C    3.946 --     4 C    1.568     6 N    1.231    22 H    0.960
     6   7 N    3.710 --     7 C    1.328     5 C    1.231     8 C    0.994
     7   6 C    3.933 --     3 N    1.337     6 N    1.328    23 H    0.949
     8   6 C    3.942 --     6 N    0.994    25 H    0.956    24 H    0.942
                             9 C    0.917
     9   6 C    3.923 --    10 O    1.797    11 C    1.092     8 C    0.917
    10   8 O    2.093 --     9 C    1.797
    11   6 C    3.983 --    12 C    1.341    16 C    1.335     9 C    1.092
    12   6 C    3.990 --    13 C    1.491    11 C    1.341    26 H    0.964
    13   6 C    3.986 --    12 C    1.491    14 C    1.362    27 H    0.964
    14   6 C    3.929 --    15 C    1.371    13 C    1.362    17 Cl   1.042
    15   6 C    3.985 --    16 C    1.484    14 C    1.371    28 H    0.962
    16   6 C    3.982 --    15 C    1.484    11 C    1.335    29 H    0.961
    17  17 Cl   1.203 --    14 C    1.042
    18   1 H    0.985 --     1 C    0.960
    19   1 H    0.994 --     1 C    0.975
    20   1 H    0.994 --     1 C    0.975
    21   1 H    0.986 --     4 C    0.958
    22   1 H    0.988 --     5 C    0.960
    23   1 H    0.981 --     7 C    0.949
    24   1 H    0.988 --     8 C    0.942
    25   1 H    0.988 --     8 C    0.956
    26   1 H    0.997 --    12 C    0.964
    27   1 H    0.993 --    13 C    0.964
    28   1 H    0.992 --    15 C    0.962
    29   1 H    0.992 --    16 C    0.961
 ---------------------------------------------------------------------------

molecular dipole:
                 x           y           z       tot (Debye)
 q only:        2.230       3.583       5.659
   full:        2.431       3.870       5.933      19.035

           -------------------------------------------------
          | TOTAL ENERGY              -49.899157603778 Eh   |
          | GRADIENT NORM               0.000672790693 Eh/α |
          | HOMO-LUMO GAP               2.505862476669 eV   |
           -------------------------------------------------

 * finished run on 2024/12/20 at 02:08:03.040
