   * xtb version 6.7.1 (edcfbbe) compiled by 'conda@3ef47c1a292c' on 2024-11-25

   ID    Z sym.   atoms
    1    9 F      1
    2    6 C      2, 3, 5, 6, 8-10, 13-15
    3    7 N      4, 7
    4    8 O      11
    5   14 Si     12
    6    1 H      16-35

          program call               : xtb C0149.xyz --opt --namespace C0149 --charge +1
          :  Hamiltonian                  GFN2-xTB          :
 * total energy  :   -47.6340169 Eh     change       -0.8417373E-09 Eh
 * total energy  :   -47.6427336 Eh     change       -0.8716702E-02 Eh
 * total energy  :   -47.6451343 Eh     change       -0.2400737E-02 Eh
 * total energy  :   -47.6458943 Eh     change       -0.7599986E-03 Eh
 * total energy  :   -47.6464824 Eh     change       -0.5881271E-03 Eh
 * total energy  :   -47.6467484 Eh     change       -0.2660018E-03 Eh
 * total energy  :   -47.6469123 Eh     change       -0.1638727E-03 Eh
 * total energy  :   -47.6470535 Eh     change       -0.1411774E-03 Eh
 * total energy  :   -47.6471772 Eh     change       -0.1236978E-03 Eh
 * total energy  :   -47.6472888 Eh     change       -0.1116399E-03 Eh
 * total energy  :   -47.6522193 Eh     change       -0.4086283E-04 Eh
 * total energy  :   -47.6522346 Eh     change       -0.1529710E-04 Eh
 * total energy  :   -47.6522530 Eh     change       -0.1837895E-04 Eh
 * total energy  :   -47.6522669 Eh     change       -0.1391005E-04 Eh
 * total energy  :   -47.6522754 Eh     change       -0.8500439E-05 Eh
 * total energy  :   -47.6522865 Eh     change       -0.1111737E-04 Eh
 * total energy  :   -47.6522934 Eh     change       -0.6941950E-05 Eh
 * total energy  :   -47.6522999 Eh     change       -0.6448495E-05 Eh
 * total energy  :   -47.6523034 Eh     change       -0.3515878E-05 Eh
   *** GEOMETRY OPTIMIZATION CONVERGED AFTER 68 ITERATIONS ***

 final structure:
================
35
 xtb: 6.7.1 (edcfbbe)
F            2.29371435424303       -0.41741207193720        1.76733108685402
C            1.83771117998682        0.01713608684418        0.55407523337734
C            0.61568254153144        0.91488118120035        0.77635047268480
N            0.98300312237163        2.05638978520951        1.58000820108326
C            1.13157353733873        2.04466861470201        2.93535665304122
C            1.59309447402547        3.27233387530696        3.29883652549986
N            1.71093978436674        4.01386094746729        2.16242005042097
C            1.34532042021600        3.25702884351589        1.13278880430293
C            2.30880682881502        5.31763408371013        2.03536831461905
C            3.73731961502937        5.14223844384222        1.48347123070455
O            3.65505028432085        4.38423656443379        0.32183966357591
Si           4.83235825410572        4.11833158753220       -0.83308984049803
C            6.26639735661341        3.12476867625061       -0.07645847857437
C            3.81099788853089        3.10050276467189       -2.07118697628756
C            5.43757998975178        5.76908101637584       -1.55063596922821
H            2.65974500840211        0.56362925832409        0.08000685525747
H            1.57099525451682       -0.86424942983620       -0.03480422048283
H            0.23032025969908        1.24962295032748       -0.18729209504121
H           -0.15583746770131        0.34825270473192        1.30384008827644
H            0.91889091561280        1.18008847210108        3.53088924547412
H            1.83219489129583        3.65804459819225        4.26871745065354
H            1.36230034484651        3.56786483742209        0.10677178382962
H            1.72366563166543        5.90965731481763        1.32893405373237
H            2.32702601303892        5.81163519264895        3.00623109936546
H            4.16473553035525        6.12944279488588        1.28664140505781
H            4.36396013675331        4.63038493171347        2.22410025545250
H            5.92369625280897        2.21277209458686        0.40604473717531
H            6.98446638921859        2.83597103798719       -0.83651079921563
H            6.80648123295196        3.70414837642857        0.66795829695564
H            2.94535394929580        3.64611917751914       -2.43352474138669
H            4.42213279276852        2.86071860526565       -2.93324577081713
H            3.46514202693228        2.15970085375682       -1.65326717857876
H            4.61019685307763        6.39404140964991       -1.87654343263121
H            6.01438784112631        6.33836485950526       -0.82606137071801
H            6.07842651208874        5.60928956084104       -2.41122063394324

          :  Hamiltonian                  GFN2-xTB          :
         :: total energy             -47.652303406666 Eh    ::
         :: gradient norm              0.000338452987 Eh/a0 ::
         :: HOMO-LUMO gap              2.498491898782 eV    ::
         :: SCC energy               -48.249261976023 Eh    ::
         :: -> dispersion             -0.028579421441 Eh    ::
         :: repulsion energy           0.596958569357 Eh    ::

    * Orbital Energies and Occupations

         #    Occupation            Energy/Eh            Energy/eV
      -------------------------------------------------------------
         1        2.0000           -0.9416802             -25.6244
       ...           ...                  ...                  ...
        31        2.0000           -0.5908783             -16.0786
        32        2.0000           -0.5874812             -15.9862
        33        2.0000           -0.5803052             -15.7909
        34        2.0000           -0.5713661             -15.5477
        35        2.0000           -0.5681210             -15.4594
        36        2.0000           -0.5618842             -15.2896
        37        2.0000           -0.5598028             -15.2330
        38        2.0000           -0.5569525             -15.1554
        39        2.0000           -0.5529558             -15.0467
        40        2.0000           -0.5505228             -14.9805
        41        2.0000           -0.5487538             -14.9324
        42        2.0000           -0.4992991             -13.5866
        43        2.0000           -0.4937242             -13.4349 (HOMO)
        44                         -0.4019063             -10.9364 (LUMO)
        45                         -0.3650131              -9.9325
        46                         -0.2385168              -6.4904
        47                         -0.2222715              -6.0483
        48                         -0.2125758              -5.7845
        49                         -0.1832152              -4.9855
        50                         -0.1312661              -3.5719
        51                         -0.1150311              -3.1302
        52                         -0.0941896              -2.5630
        53                         -0.0894428              -2.4339
        54                         -0.0637187              -1.7339
       ...                                ...                  ...
        85                          0.6022407              16.3878
      -------------------------------------------------------------
                  HL-Gap            0.0918179 Eh            2.4985 eV

     #   Z          covCN         q      C6AA      α(0)
     1   9 F        0.785    -0.235    11.601     4.023
     2   6 C        3.609     0.096    19.485     6.376
     3   6 C        3.742    -0.033    21.240     6.575
     4   7 N        2.874     0.070    20.016     6.645
     5   6 C        3.066    -0.002    27.998     8.677
     6   6 C        3.069    -0.008    28.153     8.700
     7   7 N        2.875     0.080    19.857     6.618
     8   6 C        3.090     0.050    26.768     8.480
     9   6 C        3.743    -0.034    21.255     6.577
    10   6 C        3.721     0.076    19.414     6.293
    11   8 O        1.621    -0.399    20.841     6.162
    12  14 Si       3.436     0.551   102.646    19.794
    13   6 C        3.649    -0.214    25.132     7.202
    14   6 C        3.650    -0.210    25.044     7.189
    15   6 C        3.650    -0.214    25.118     7.199
    16   1 H        0.924     0.077     2.007     2.215
    17   1 H        0.924     0.096     1.823     2.112
    18   1 H        0.924     0.096     1.823     2.111
    19   1 H        0.924     0.111     1.684     2.030
    20   1 H        0.926     0.120     1.617     1.988
    21   1 H        0.926     0.109     1.709     2.044
    22   1 H        0.926     0.130     1.535     1.938
    23   1 H        0.924     0.098     1.799     2.098
    24   1 H        0.925     0.094     1.837     2.120
    25   1 H        0.924     0.060     2.203     2.321
    26   1 H        0.924     0.046     2.369     2.407
    27   1 H        0.925     0.042     2.417     2.431
    28   1 H        0.925     0.051     2.306     2.375
    29   1 H        0.925     0.044     2.400     2.423
    30   1 H        0.925     0.041     2.442     2.444
    31   1 H        0.925     0.040     2.447     2.446
    32   1 H        0.925     0.026     2.647     2.544
    33   1 H        0.925     0.048     2.339     2.392
    34   1 H        0.925     0.044     2.396     2.421
    35   1 H        0.925     0.052     2.293     2.368

Wiberg/Mayer (AO) data.
largest (>0.10) Wiberg bond orders for each atom

     #   Z sym  total        # sym  WBO       # sym  WBO       # sym  WBO
 ---------------------------------------------------------------------------
     1   9 F    1.017 --     2 C    0.953
     2   6 C    3.901 --     3 C    0.985    16 H    0.965    17 H    0.962
                             1 F    0.953
     3   6 C    3.948 --     2 C    0.985     4 N    0.981    18 H    0.965
                            19 H    0.959
     4   7 N    3.712 --     8 C    1.352     5 C    1.220     3 C    0.981
     5   6 C    3.946 --     6 C    1.597     4 N    1.220    20 H    0.959
     6   6 C    3.947 --     5 C    1.597     7 N    1.221    21 H    0.961
     7   7 N    3.721 --     8 C    1.365     6 C    1.221     9 C    0.981
     8   6 C    3.943 --     7 N    1.365     4 N    1.352    22 H    0.949
     9   6 C    3.944 --     7 N    0.981    10 C    0.970    24 H    0.967
                            23 H    0.961
    10   6 C    3.957 --    11 O    1.014     9 C    0.970    26 H    0.970
                            25 H    0.967
    11   8 O    2.195 --    10 C    1.014    12 Si   1.002
    12  14 Si   3.782 --    11 O    1.002    15 C    0.908    13 C    0.904
                            14 C    0.883
    13   6 C    3.983 --    28 H    0.987    29 H    0.983    27 H    0.982
                            12 Si   0.904
    14   6 C    3.981 --    31 H    0.996    30 H    0.987    32 H    0.987
                            12 Si   0.883
    15   6 C    3.983 --    35 H    0.986    34 H    0.982    33 H    0.981
                            12 Si   0.908
    16   1 H    0.994 --     2 C    0.965
    17   1 H    0.990 --     2 C    0.962
    18   1 H    0.990 --     3 C    0.965
    19   1 H    0.987 --     3 C    0.959
    20   1 H    0.986 --     5 C    0.959
    21   1 H    0.988 --     6 C    0.961
    22   1 H    0.983 --     8 C    0.949
    23   1 H    0.990 --     9 C    0.961
    24   1 H    0.990 --     9 C    0.967
    25   1 H    0.996 --    10 C    0.967
    26   1 H    0.998 --    10 C    0.970
    27   1 H    0.998 --    13 C    0.982
    28   1 H    0.997 --    13 C    0.987
    29   1 H    0.998 --    13 C    0.983
    30   1 H    0.998 --    14 C    0.987
    31   1 H    0.998 --    14 C    0.996
    32   1 H    0.999 --    14 C    0.987
    33   1 H    0.998 --    15 C    0.981
    34   1 H    0.998 --    15 C    0.982
    35   1 H    0.997 --    15 C    0.986
 ---------------------------------------------------------------------------

molecular dipole:
                 x           y           z       tot (Debye)
 q only:        3.332       6.189       2.412
   full:        3.421       6.356       2.312      19.265

           -------------------------------------------------
          | TOTAL ENERGY              -47.652303406666 Eh   |
          | GRADIENT NORM               0.000338452987 Eh/α |
          | HOMO-LUMO GAP               2.498491898782 eV   |
           -------------------------------------------------

 * finished run on 2024/12/20 at 02:08:05.248
