   * xtb version 6.7.1 (edcfbbe) compiled by 'conda@3ef47c1a292c' on 2024-11-25

   ID    Z sym.   atoms
    1    6 C      1, 3, 5, 7, 8, 10-17, 19-25
    2    8 O      2, 4, 18
    3    7 N      6, 9
    4    1 H      26-46

          program call               : xtb C0144.xyz --opt --namespace C0144 --charge +1
          :  Hamiltonian                  GFN2-xTB          :
 * total energy  :   -71.2128109 Eh     change       -0.7778453E-09 Eh
 * total energy  :   -71.2253567 Eh     change       -0.1254574E-01 Eh
 * total energy  :   -71.2283344 Eh     change       -0.2977774E-02 Eh
 * total energy  :   -71.2290061 Eh     change       -0.6716227E-03 Eh
 * total energy  :   -71.2297040 Eh     change       -0.6979809E-03 Eh
 * total energy  :   -71.2303291 Eh     change       -0.6250184E-03 Eh
 * total energy  :   -71.2310713 Eh     change       -0.7422205E-03 Eh
 * total energy  :   -71.2318706 Eh     change       -0.7992757E-03 Eh
 * total energy  :   -71.2324947 Eh     change       -0.6241364E-03 Eh
 * total energy  :   -71.2329367 Eh     change       -0.4419619E-03 Eh
 * total energy  :   -71.2393041 Eh     change       -0.1109038E-04 Eh
 * total energy  :   -71.2393164 Eh     change       -0.1235189E-04 Eh
 * total energy  :   -71.2393234 Eh     change       -0.6994827E-05 Eh
 * total energy  :   -71.2393370 Eh     change       -0.1357755E-04 Eh
 * total energy  :   -71.2393523 Eh     change       -0.1534223E-04 Eh
 * total energy  :   -71.2393661 Eh     change       -0.1382646E-04 Eh
 * total energy  :   -71.2393764 Eh     change       -0.1023936E-04 Eh
 * total energy  :   -71.2393835 Eh     change       -0.7079937E-05 Eh
 * total energy  :   -71.2393854 Eh     change       -0.1933663E-05 Eh
   *** GEOMETRY OPTIMIZATION CONVERGED AFTER 44 ITERATIONS ***

 final structure:
================
46
 xtb: 6.7.1 (edcfbbe)
C            1.36454170851484        1.76206882842854        0.38163606898007
O            0.59021440712748        1.88952039921908       -0.81533002484382
C            0.86566332974286        1.10085016584799       -1.82687349044336
O            1.72606848918283        0.26518615017996       -1.89171880132371
C           -0.10138203463837        1.37154655462475       -2.99924729095602
N            0.35729831020100        0.67221214442662       -4.16543846766623
C            0.35849819512735       -0.66207177116510       -4.31817728266546
C           -0.30613426996107       -1.60703404031902       -3.40635195073348
N            1.02120057516944       -0.98939954927863       -5.43314297973711
C            1.47479899156472        0.17282770548118       -6.03291141135963
C            1.06739209045088        1.23556550626239       -5.20951191949481
C            1.37524042347565        2.55211772261940       -5.52376513825720
C            2.09147160264767        2.76999019327327       -6.68350148527068
C            2.48174343980012        1.71658186787492       -7.51198269733491
C            2.18121949409061        0.40447206344867       -7.20670422306251
C            1.22968872100175       -2.32776133322225       -5.92796170255013
C            1.94146597882702       -3.24658109929956       -4.89274165746653
O            1.26701726393049       -4.06048448729086       -4.30435132519714
C            3.37765895246888       -3.08813346923636       -4.69810709997915
C            4.14439407361985       -2.06753072215544       -5.27113573390442
C            5.50085317005471       -2.00641596097859       -5.03934461133416
C            6.14417678737417       -2.95419035218384       -4.24273666004949
C            5.37883708484523       -3.96466417288352       -3.66545102792011
C            4.02096335265371       -4.03007375965370       -3.88324227717651
C            7.61395871429125       -2.86865766978053       -4.00818097767109
H            0.74780348638809        1.28686262195104        1.14425497001761
H            1.63501153786253        2.76723254089928        0.69827436474028
H            2.25576429939736        1.16315588241990        0.19318445924430
H           -1.10169251932057        1.03873750100725       -2.70847952472298
H           -0.14209506264558        2.44225214987109       -3.19997594247649
H            0.33324745724218       -1.79592645372929       -2.54185169620322
H           -1.24774562988376       -1.19832844263286       -3.04438568210151
H           -0.48980326115557       -2.56418079404386       -3.88801672239425
H            1.07327535043495        3.37544813379551       -4.89752578679092
H            2.35202453915359        3.77865763209642       -6.96097673876531
H            3.02989705015241        1.93483410894702       -8.41436551139440
H            2.47926820258208       -0.39526650388779       -7.86577746241440
H            0.26270528301378       -2.79277435119191       -6.14824770929258
H            1.81175117578211       -2.27862283476648       -6.84724697363901
H            3.69287530791844       -1.31006732974073       -5.89178539021617
H            6.08188493030658       -1.21362817656191       -5.48735320345069
H            5.85732593385591       -4.70633983679949       -3.04404863046782
H            3.42673342631747       -4.81554404584099       -3.44178880669929
H            8.13812707333215       -2.61605992165097       -4.92743358229263
H            7.82582919306332       -2.08303833911076       -3.28225483196381
H            8.00533337463420       -3.80457445525505       -3.61964543129839

          :  Hamiltonian                  GFN2-xTB          :
         :: total energy             -71.239385402426 Eh    ::
         :: gradient norm              0.000291008623 Eh/a0 ::
         :: HOMO-LUMO gap              2.758318267406 eV    ::
         :: SCC energy               -72.301981400487 Eh    ::
         :: -> dispersion             -0.049161726629 Eh    ::
         :: repulsion energy           1.062595998061 Eh    ::

    * Orbital Energies and Occupations

         #    Occupation            Energy/Eh            Energy/eV
      -------------------------------------------------------------
         1        2.0000           -0.8775605             -23.8796
       ...           ...                  ...                  ...
        52        2.0000           -0.5747883             -15.6408
        53        2.0000           -0.5677620             -15.4496
        54        2.0000           -0.5651595             -15.3788
        55        2.0000           -0.5616449             -15.2831
        56        2.0000           -0.5572968             -15.1648
        57        2.0000           -0.5494704             -14.9519
        58        2.0000           -0.5424453             -14.7607
        59        2.0000           -0.5400784             -14.6963
        60        2.0000           -0.5361234             -14.5887
        61        2.0000           -0.5212423             -14.1837
        62        2.0000           -0.5109271             -13.9030
        63        2.0000           -0.5081922             -13.8286
        64        2.0000           -0.5015748             -13.6485 (HOMO)
        65                         -0.4002085             -10.8902 (LUMO)
        66                         -0.3928748             -10.6907
        67                         -0.3602963              -9.8042
        68                         -0.3560656              -9.6890
        69                         -0.3477402              -9.4625
        70                         -0.3266555              -8.8887
        71                         -0.2992622              -8.1433
        72                         -0.2310748              -6.2879
        73                         -0.1929257              -5.2498
        74                         -0.1695017              -4.6124
        75                         -0.1309511              -3.5634
       ...                                ...                  ...
       121                          0.5620559              15.2943
      -------------------------------------------------------------
                  HL-Gap            0.1013663 Eh            2.7583 eV

     #   Z          covCN         q      C6AA      α(0)
     1   6 C        3.650     0.013    20.670     6.531
     2   8 O        1.704    -0.229    17.797     5.696
     3   6 C        2.715     0.360    20.893     7.482
     4   8 O        0.856    -0.401    21.707     6.247
     5   6 C        3.742    -0.046    21.481     6.612
     6   7 N        2.833     0.013    21.024     6.810
     7   6 C        3.068     0.133    25.033     8.204
     8   6 C        3.755    -0.139    23.226     6.872
     9   7 N        2.828     0.017    20.953     6.799
    10   6 C        3.094     0.040    26.984     8.514
    11   6 C        3.090     0.040    27.000     8.517
    12   6 C        2.909    -0.034    28.845     8.807
    13   6 C        2.926    -0.019    28.494     8.754
    14   6 C        2.925    -0.021    28.522     8.758
    15   6 C        2.910    -0.034    28.837     8.805
    16   6 C        3.739    -0.043    21.428     6.605
    17   6 C        2.819     0.222    23.321     7.913
    18   8 O        0.858    -0.347    20.646     6.092
    19   6 C        2.970    -0.023    28.574     8.768
    20   6 C        2.917    -0.030    28.757     8.794
    21   6 C        2.923    -0.035    28.863     8.810
    22   6 C        2.966     0.044    27.021     8.526
    23   6 C        2.921    -0.031    28.768     8.796
    24   6 C        2.926    -0.012    28.317     8.727
    25   6 C        3.759    -0.120    22.851     6.815
    26   1 H        0.925     0.087     1.911     2.162
    27   1 H        0.925     0.092     1.861     2.134
    28   1 H        0.925     0.087     1.908     2.160
    29   1 H        0.924     0.104     1.752     2.070
    30   1 H        0.925     0.110     1.700     2.039
    31   1 H        0.924     0.119     1.623     1.992
    32   1 H        0.925     0.088     1.898     2.155
    33   1 H        0.925     0.115     1.656     2.012
    34   1 H        0.926     0.065     2.146     2.291
    35   1 H        0.926     0.077     2.005     2.214
    36   1 H        0.926     0.077     2.007     2.216
    37   1 H        0.926     0.066     2.129     2.282
    38   1 H        0.924     0.092     1.855     2.130
    39   1 H        0.925     0.091     1.871     2.139
    40   1 H        0.926     0.032     2.555     2.499
    41   1 H        0.926     0.049     2.328     2.386
    42   1 H        0.926     0.060     2.202     2.321
    43   1 H        0.926     0.073     2.049     2.238
    44   1 H        0.925     0.065     2.144     2.290
    45   1 H        0.924     0.070     2.081     2.256
    46   1 H        0.925     0.062     2.172     2.305

Wiberg/Mayer (AO) data.
largest (>0.10) Wiberg bond orders for each atom

     #   Z sym  total        # sym  WBO       # sym  WBO       # sym  WBO
 ---------------------------------------------------------------------------
     1   6 C    3.892 --    28 H    0.976    27 H    0.974    26 H    0.972
                             2 O    0.931
     2   8 O    2.361 --     3 C    1.200     1 C    0.931     4 O    0.191
     3   6 C    3.933 --     4 O    1.741     2 O    1.200     5 C    0.922
     4   8 O    2.055 --     3 C    1.741     2 O    0.191
     5   6 C    3.957 --     6 N    0.998    30 H    0.952    29 H    0.942
                             3 C    0.922
     6   7 N    3.648 --     7 C    1.306    11 C    1.111     5 C    0.998
     7   6 C    3.952 --     9 N    1.334     6 N    1.306     8 C    1.057
     8   6 C    3.972 --     7 C    1.057    33 H    0.959    32 H    0.958
                            31 H    0.931
     9   7 N    3.661 --     7 C    1.334    10 C    1.111    16 C    0.978
    10   6 C    3.953 --    15 C    1.345    11 C    1.279     9 N    1.111
    11   6 C    3.951 --    12 C    1.348    10 C    1.279     6 N    1.111
    12   6 C    3.984 --    13 C    1.485    11 C    1.348    34 H    0.962
                            15 C    0.117
    13   6 C    3.983 --    12 C    1.485    14 C    1.387    35 H    0.966
    14   6 C    3.983 --    15 C    1.485    13 C    1.387    36 H    0.966
    15   6 C    3.984 --    14 C    1.485    10 C    1.345    37 H    0.961
                            12 C    0.117
    16   6 C    3.940 --     9 N    0.978    39 H    0.958    38 H    0.955
                            17 C    0.921
    17   6 C    3.929 --    18 O    1.812    19 C    1.089    16 C    0.921
    18   8 O    2.087 --    17 C    1.812
    19   6 C    3.985 --    20 C    1.345    24 C    1.341    17 C    1.089
    20   6 C    3.992 --    21 C    1.489    19 C    1.345    40 H    0.963
    21   6 C    3.991 --    20 C    1.489    22 C    1.375    41 H    0.968
    22   6 C    3.982 --    23 C    1.388    21 C    1.375    25 C    1.041
    23   6 C    3.990 --    24 C    1.480    22 C    1.388    42 H    0.966
    24   6 C    3.985 --    23 C    1.480    19 C    1.341    43 H    0.964
    25   6 C    3.990 --    22 C    1.041    46 H    0.981    44 H    0.970
                            45 H    0.954
    26   1 H    0.992 --     1 C    0.972
    27   1 H    0.991 --     1 C    0.974
    28   1 H    0.992 --     1 C    0.976
    29   1 H    0.988 --     5 C    0.942
    30   1 H    0.988 --     5 C    0.952
    31   1 H    0.981 --     8 C    0.931
    32   1 H    0.991 --     8 C    0.958
    33   1 H    0.986 --     8 C    0.959
    34   1 H    0.995 --    12 C    0.962
    35   1 H    0.994 --    13 C    0.966
    36   1 H    0.994 --    14 C    0.966
    37   1 H    0.995 --    15 C    0.961
    38   1 H    0.990 --    16 C    0.955
    39   1 H    0.991 --    16 C    0.958
    40   1 H    0.999 --    20 C    0.963
    41   1 H    0.997 --    21 C    0.968
    42   1 H    0.996 --    23 C    0.966
    43   1 H    0.994 --    24 C    0.964
    44   1 H    0.994 --    25 C    0.970
    45   1 H    0.991 --    25 C    0.954
    46   1 H    0.995 --    25 C    0.981
 ---------------------------------------------------------------------------

molecular dipole:
                 x           y           z       tot (Debye)
 q only:        3.372       0.558      -8.215
   full:        3.237       0.763      -8.274      22.665

           -------------------------------------------------
          | TOTAL ENERGY              -71.239385402426 Eh   |
          | GRADIENT NORM               0.000291008623 Eh/α |
          | HOMO-LUMO GAP               2.758318267406 eV   |
           -------------------------------------------------

 * finished run on 2024/12/20 at 02:07:57.529
