   * xtb version 6.7.1 (edcfbbe) compiled by 'conda@3ef47c1a292c' on 2024-11-25

   ID    Z sym.   atoms
    1    8 O      1
    2    6 C      2, 3, 5-11
    3    7 N      4
    4    1 H      12-25

          program call               : xtb C0150.xyz --opt --namespace C0150 --charge +1
          :  Hamiltonian                  GFN2-xTB          :
 * total energy  :   -33.0054188 Eh     change       -0.1597847E-08 Eh
 * total energy  :   -33.0092296 Eh     change       -0.3810771E-02 Eh
 * total energy  :   -33.0100549 Eh     change       -0.8253276E-03 Eh
 * total energy  :   -33.0101802 Eh     change       -0.1252570E-03 Eh
 * total energy  :   -33.0102539 Eh     change       -0.7372674E-04 Eh
 * total energy  :   -33.0102906 Eh     change       -0.3672354E-04 Eh
 * total energy  :   -33.0103313 Eh     change       -0.4073127E-04 Eh
 * total energy  :   -33.0103732 Eh     change       -0.4185877E-04 Eh
 * total energy  :   -33.0103910 Eh     change       -0.1777489E-04 Eh
 * total energy  :   -33.0104351 Eh     change       -0.4416072E-04 Eh
 * total energy  :   -33.0104571 Eh     change       -0.2195285E-04 Eh
 * total energy  :   -33.0104787 Eh     change       -0.2156862E-04 Eh
 * total energy  :   -33.0104958 Eh     change       -0.1716796E-04 Eh
 * total energy  :   -33.0105077 Eh     change       -0.1183739E-04 Eh
 * total energy  :   -33.0105154 Eh     change       -0.7752797E-05 Eh
 * total energy  :   -33.0105191 Eh     change       -0.3676320E-05 Eh
   *** GEOMETRY OPTIMIZATION CONVERGED AFTER 16 ITERATIONS ***

 final structure:
================
25
 xtb: 6.7.1 (edcfbbe)
O            1.28944983479272       -0.36324920795248        0.73222281200625
C            0.67339641389133       -1.61741452258437        0.57477363776440
C            1.04029398209016       -2.13560333810968       -0.82399522865878
N            2.48131175799206       -2.25687911660883       -0.93929370449931
C            3.21214402944158       -1.16348143174395       -1.17721345991444
C            4.58662709198750       -1.23249225120910       -1.20523065646205
C            5.24502162645470       -2.44226883778471       -0.99358273328573
C            4.45341293913446       -3.58371863371166       -0.74785631746441
C            3.08091386555444       -3.43537674143360       -0.72382144489816
C            5.07311469147184       -4.91738992087731       -0.51852298661056
C            6.72307307068136       -2.53036270704754       -1.02499948630477
H            0.97529327598290        0.06017437140145        1.53758962876874
H            1.02555702822889       -2.32475754123116        1.34004323007862
H           -0.41844902050545       -1.54409029971718        0.63748610261763
H            0.56827773296789       -3.10255511139048       -0.99751150841384
H            0.68623870208137       -1.41685268820710       -1.56539339354187
H            2.68214641399606       -0.23581205117364       -1.32376823035811
H            5.15220075421873       -0.33449681607711       -1.39655220901685
H            2.43931432303210       -4.28324316694798       -0.53215466373391
H            5.66182703279723       -5.21408033895138       -1.38546000670392
H            5.75010936845086       -4.88096450872851        0.33349142703276
H            4.32040384239201       -5.67746273601409       -0.33377203358846
H            7.10089635635785       -2.89347758440078       -0.06936032148003
H            7.04494819386468       -3.24446616920757       -1.78253782549261
H            7.17294669264361       -1.56537865029064       -1.23653062784086

          :  Hamiltonian                  GFN2-xTB          :
         :: total energy             -33.010519087899 Eh    ::
         :: gradient norm              0.000446141608 Eh/a0 ::
         :: HOMO-LUMO gap              3.218007050028 eV    ::
         :: SCC energy               -33.504006111988 Eh    ::
         :: -> dispersion             -0.018714124516 Eh    ::
         :: repulsion energy           0.493487024089 Eh    ::

    * Orbital Energies and Occupations

         #    Occupation            Energy/Eh            Energy/eV
      -------------------------------------------------------------
         1        2.0000           -0.8607769             -23.4229
       ...           ...                  ...                  ...
        18        2.0000           -0.6545405             -17.8110
        19        2.0000           -0.6468120             -17.6006
        20        2.0000           -0.6405175             -17.4294
        21        2.0000           -0.6313034             -17.1786
        22        2.0000           -0.6222420             -16.9321
        23        2.0000           -0.6180500             -16.8180
        24        2.0000           -0.6132173             -16.6865
        25        2.0000           -0.6065155             -16.5041
        26        2.0000           -0.5944028             -16.1745
        27        2.0000           -0.5906196             -16.0716
        28        2.0000           -0.5848086             -15.9135
        29        2.0000           -0.5710447             -15.5389
        30        2.0000           -0.5533696             -15.0580 (HOMO)
        31                         -0.4351101             -11.8399 (LUMO)
        32                         -0.4033284             -10.9751
        33                         -0.2882912              -7.8448
        34                         -0.1624930              -4.4217
        35                         -0.0920848              -2.5058
        36                         -0.0587157              -1.5977
        37                         -0.0546994              -1.4884
        38                         -0.0379490              -1.0326
        39                         -0.0293147              -0.7977
        40                         -0.0161067              -0.4383
        41                         -0.0079826              -0.2172
       ...                                ...                  ...
        58                          0.4482271              12.1969
      -------------------------------------------------------------
                  HL-Gap            0.1182596 Eh            3.2180 eV

     #   Z          covCN         q      C6AA      α(0)
     1   8 O        1.656    -0.437    21.585     6.272
     2   6 C        3.674     0.077    19.521     6.331
     3   6 C        3.759    -0.035    21.244     6.571
     4   7 N        2.750     0.102    19.487     6.556
     5   6 C        2.890     0.031    27.310     8.568
     6   6 C        2.919    -0.030    28.739     8.791
     7   6 C        2.973     0.056    26.736     8.482
     8   6 C        2.966     0.032    27.276     8.566
     9   6 C        2.894     0.012    27.754     8.638
    10   6 C        3.759    -0.130    23.053     6.845
    11   6 C        3.759    -0.131    23.064     6.847
    12   1 H        0.805     0.314     0.680     1.295
    13   1 H        0.923     0.045     2.388     2.416
    14   1 H        0.924     0.063     2.159     2.298
    15   1 H        0.925     0.090     1.880     2.144
    16   1 H        0.924     0.106     1.733     2.059
    17   1 H        0.926     0.119     1.619     1.990
    18   1 H        0.926     0.098     1.803     2.099
    19   1 H        0.926     0.094     1.836     2.119
    20   1 H        0.925     0.090     1.880     2.144
    21   1 H        0.925     0.090     1.882     2.145
    22   1 H        0.925     0.073     2.050     2.239
    23   1 H        0.925     0.095     1.830     2.116
    24   1 H        0.925     0.095     1.832     2.117
    25   1 H        0.925     0.080     1.974     2.197

Wiberg/Mayer (AO) data.
largest (>0.10) Wiberg bond orders for each atom

     #   Z sym  total        # sym  WBO       # sym  WBO       # sym  WBO
 ---------------------------------------------------------------------------
     1   8 O    1.957 --     2 C    1.010    12 H    0.885
     2   6 C    3.958 --     1 O    1.010     3 C    0.981    13 H    0.967
                            14 H    0.964
     3   6 C    3.946 --     2 C    0.981     4 N    0.974    15 H    0.966
                            16 H    0.960
     4   7 N    3.755 --     5 C    1.317     9 C    1.302     3 C    0.974
     5   6 C    3.954 --     6 C    1.466     4 N    1.317    17 H    0.951
     6   6 C    3.984 --     5 C    1.466     7 C    1.392    18 H    0.959
     7   6 C    3.976 --     6 C    1.392     8 C    1.313    11 C    1.063
     8   6 C    3.984 --     9 C    1.453     7 C    1.313    10 C    1.045
     9   6 C    3.959 --     8 C    1.453     4 N    1.302    19 H    0.955
    10   6 C    3.985 --     8 C    1.045    22 H    0.981    21 H    0.954
                            20 H    0.953
    11   6 C    3.985 --     7 C    1.063    25 H    0.979    24 H    0.944
                            23 H    0.943
    12   1 H    0.901 --     1 O    0.885
    13   1 H    0.998 --     2 C    0.967
    14   1 H    0.995 --     2 C    0.964
    15   1 H    0.991 --     3 C    0.966
    16   1 H    0.988 --     3 C    0.960
    17   1 H    0.985 --     5 C    0.951
    18   1 H    0.990 --     6 C    0.959
    19   1 H    0.991 --     9 C    0.955
    20   1 H    0.992 --    10 C    0.953
    21   1 H    0.992 --    10 C    0.954
    22   1 H    0.994 --    10 C    0.981
    23   1 H    0.990 --    11 C    0.943
    24   1 H    0.990 --    11 C    0.944
    25   1 H    0.993 --    11 C    0.979
 ---------------------------------------------------------------------------

molecular dipole:
                 x           y           z       tot (Debye)
 q only:        6.367      -4.819      -1.213
   full:        6.112      -4.832      -1.039      19.978

           -------------------------------------------------
          | TOTAL ENERGY              -33.010519087899 Eh   |
          | GRADIENT NORM               0.000446141608 Eh/α |
          | HOMO-LUMO GAP               3.218007050028 eV   |
           -------------------------------------------------

 * finished run on 2024/12/20 at 02:08:05.780
