   * xtb version 6.7.1 (edcfbbe) compiled by 'conda@3ef47c1a292c' on 2024-11-25

   ID    Z sym.   atoms
    1    6 C      1-6, 8-13
    2    7 N      7
    3    1 H      14-41

          program call               : xtb C0154.xyz --opt --namespace C0154 --charge +1
          :  Hamiltonian                  GFN2-xTB          :
 * total energy  :   -42.4956013 Eh     change       -0.7698020E-10 Eh
 * total energy  :   -42.5026804 Eh     change       -0.7079105E-02 Eh
 * total energy  :   -42.5045166 Eh     change       -0.1836207E-02 Eh
 * total energy  :   -42.5046715 Eh     change       -0.1548804E-03 Eh
 * total energy  :   -42.5049026 Eh     change       -0.2310810E-03 Eh
 * total energy  :   -42.5051128 Eh     change       -0.2102072E-03 Eh
 * total energy  :   -42.5054857 Eh     change       -0.3729285E-03 Eh
 * total energy  :   -42.5059807 Eh     change       -0.4949897E-03 Eh
 * total energy  :   -42.5067334 Eh     change       -0.7526903E-03 Eh
 * total energy  :   -42.5073128 Eh     change       -0.5793381E-03 Eh
 * total energy  :   -42.5094469 Eh     change       -0.8832297E-04 Eh
 * total energy  :   -42.5094730 Eh     change       -0.2615275E-04 Eh
 * total energy  :   -42.5095200 Eh     change       -0.4699039E-04 Eh
 * total energy  :   -42.5095477 Eh     change       -0.2769502E-04 Eh
 * total energy  :   -42.5095904 Eh     change       -0.4264711E-04 Eh
 * total energy  :   -42.5096067 Eh     change       -0.1637491E-04 Eh
 * total energy  :   -42.5096330 Eh     change       -0.2628139E-04 Eh
 * total energy  :   -42.5096396 Eh     change       -0.6523334E-05 Eh
 * total energy  :   -42.5096443 Eh     change       -0.4700316E-05 Eh
   *** GEOMETRY OPTIMIZATION CONVERGED AFTER 27 ITERATIONS ***

 final structure:
================
41
 xtb: 6.7.1 (edcfbbe)
C            0.46685252869715       -0.46442594073168        0.51317373784452
C            0.19833198881430        0.88557353939541       -0.14065976195854
C            1.11239611799408        1.17343560458423       -1.33316705695664
C            1.02124547882166        0.16454477779455       -2.48142409857625
C           -0.37555299636870        0.00589440731515       -3.09560240780800
C           -0.94344156426086        1.27549830971820       -3.74571803611331
N           -0.87423523985646        1.35701440159475       -5.23505710391741
C           -1.58275021862129        0.19977801676962       -5.88257922763912
C           -2.94247603615875       -0.15911151577139       -5.30312666194255
C           -1.54689974788242        2.61305958878072       -5.72118267851531
C           -1.48208257905853        3.84875695117051       -4.83308575573903
C            0.54089748809159        1.29359292446240       -5.71920388767613
C            1.43554847497349        2.47426048958780       -5.37859842228905
H            0.20103897881780       -1.28890898934237       -0.14390803082607
H           -0.11933933884416       -0.56002190403814        1.42298444912710
H            1.51774797644692       -0.55664149661183        0.77550350030228
H           -0.84972256369465        0.94729412865290       -0.44250884436579
H            0.36377152815144        1.67107462020287        0.59888178251046
H            0.90190840847757        2.18406493715500       -1.69476436856229
H            2.14582986071424        1.17416529712281       -0.98203678178822
H            1.74822547950754        0.44835823898196       -3.24453818922356
H            1.32430687594066       -0.81250740805888       -2.10498639534759
H           -0.35118845197282       -0.82526763402791       -3.79958311040729
H           -1.05548843874220       -0.28923382696122       -2.29624680758167
H           -1.99432743701310        1.38661045343055       -3.48044979438275
H           -0.40868496464122        2.13446720899059       -3.34621193936356
H           -1.69222300022585        0.44911876645762       -6.94041896775548
H           -0.93608505092323       -0.67621441303933       -5.81863561355341
H           -3.62927822526100        0.68257511688848       -5.27627758177319
H           -3.38502101614809       -0.91672166634444       -5.94534512273552
H           -2.86301923303839       -0.58221210606170       -4.30649996011372
H           -1.11486725458050        2.84369390008754       -6.69660408875384
H           -2.60152228810749        2.38079550108783       -5.87209669890208
H           -0.47159570600537        4.14321013137564       -4.57376992951154
H           -1.92683072798556        4.66834991505772       -5.39342597865899
H           -2.06176455774609        3.73018027586556       -3.92246139517694
H            0.97947517451042        0.38462817334451       -5.30621568120974
H            0.50635201889997        1.18570944020747       -6.80602803814718
H            1.49191015362151        2.66131470257336       -4.31054066251496
H            2.44004436935595        2.23101882519085       -5.71732786483521
H            1.13383373528419        3.38177825714304       -5.89165652514980

          :  Hamiltonian                  GFN2-xTB          :
         :: total energy             -42.509644252050 Eh    ::
         :: gradient norm              0.000291964180 Eh/a0 ::
         :: HOMO-LUMO gap              7.694859505541 eV    ::
         :: SCC energy               -43.126806123546 Eh    ::
         :: -> dispersion             -0.032446218828 Eh    ::
         :: repulsion energy           0.617161871496 Eh    ::

    * Orbital Energies and Occupations

         #    Occupation            Energy/Eh            Energy/eV
      -------------------------------------------------------------
         1        2.0000           -0.8502295             -23.1359
       ...           ...                  ...                  ...
        28        2.0000           -0.6074404             -16.5293
        29        2.0000           -0.6023226             -16.3900
        30        2.0000           -0.5991244             -16.3030
        31        2.0000           -0.5961047             -16.2208
        32        2.0000           -0.5909216             -16.0798
        33        2.0000           -0.5879300             -15.9984
        34        2.0000           -0.5839355             -15.8897
        35        2.0000           -0.5672166             -15.4347
        36        2.0000           -0.5591232             -15.2145
        37        2.0000           -0.5520518             -15.0221
        38        2.0000           -0.5306309             -14.4392
        39        2.0000           -0.5236555             -14.2494
        40        2.0000           -0.5188396             -14.1183 (HOMO)
        41                         -0.2360587              -6.4235 (LUMO)
        42                         -0.1725389              -4.6950
        43                         -0.1572618              -4.2793
        44                         -0.1533957              -4.1741
        45                         -0.0649003              -1.7660
        46                         -0.0624318              -1.6989
        47                         -0.0521404              -1.4188
        48                         -0.0433673              -1.1801
        49                         -0.0349568              -0.9512
        50                         -0.0331012              -0.9007
        51                         -0.0208301              -0.5668
       ...                                ...                  ...
        80                          0.2062402               5.6121
      -------------------------------------------------------------
                  HL-Gap            0.2827809 Eh            7.6949 eV

     #   Z          covCN         q      C6AA      α(0)
     1   6 C        3.752    -0.109    22.638     6.785
     2   6 C        3.799    -0.057    21.601     6.617
     3   6 C        3.800    -0.063    21.704     6.633
     4   6 C        3.800    -0.069    21.828     6.652
     5   6 C        3.799    -0.072    21.881     6.660
     6   6 C        3.748    -0.039    21.329     6.587
     7   7 N        3.616     0.100    19.515     6.561
     8   6 C        3.764    -0.030    21.146     6.555
     9   6 C        3.751    -0.127    23.005     6.840
    10   6 C        3.753    -0.031    21.187     6.564
    11   6 C        3.750    -0.129    23.042     6.846
    12   6 C        3.759    -0.028    21.126     6.553
    13   6 C        3.751    -0.125    22.957     6.833
    14   1 H        0.925     0.033     2.538     2.491
    15   1 H        0.925     0.045     2.383     2.414
    16   1 H        0.925     0.044     2.396     2.421
    17   1 H        0.924     0.026     2.647     2.544
    18   1 H        0.924     0.042     2.417     2.431
    19   1 H        0.924     0.019     2.743     2.590
    20   1 H        0.924     0.049     2.328     2.386
    21   1 H        0.924     0.034     2.529     2.487
    22   1 H        0.925     0.059     2.211     2.325
    23   1 H        0.925     0.047     2.357     2.401
    24   1 H        0.925     0.071     2.079     2.255
    25   1 H        0.925     0.081     1.971     2.196
    26   1 H        0.925     0.097     1.815     2.107
    27   1 H        0.924     0.077     2.005     2.215
    28   1 H        0.924     0.082     1.961     2.190
    29   1 H        0.925     0.062     2.171     2.304
    30   1 H        0.925     0.084     1.941     2.179
    31   1 H        0.925     0.072     2.069     2.249
    32   1 H        0.924     0.080     1.975     2.197
    33   1 H        0.924     0.085     1.931     2.173
    34   1 H        0.925     0.069     2.097     2.264
    35   1 H        0.925     0.081     1.965     2.192
    36   1 H        0.925     0.065     2.142     2.289
    37   1 H        0.924     0.086     1.916     2.165
    38   1 H        0.924     0.074     2.041     2.234
    39   1 H        0.925     0.067     2.123     2.278
    40   1 H        0.925     0.080     1.982     2.201
    41   1 H        0.925     0.067     2.121     2.277

Wiberg/Mayer (AO) data.
largest (>0.10) Wiberg bond orders for each atom

     #   Z sym  total        # sym  WBO       # sym  WBO       # sym  WBO
 ---------------------------------------------------------------------------
     1   6 C    3.995 --     2 C    1.021    16 H    0.987    15 H    0.986
                            14 H    0.986
     2   6 C    3.997 --     1 C    1.021     3 C    1.007    18 H    0.977
                            17 H    0.976
     3   6 C    3.995 --     4 C    1.008     2 C    1.007    20 H    0.974
                            19 H    0.972
     4   6 C    3.993 --     3 C    1.008     5 C    1.005    21 H    0.972
                            22 H    0.971
     5   6 C    3.986 --     4 C    1.005     6 C    1.002    24 H    0.967
                            23 H    0.967
     6   6 C    3.928 --     5 C    1.002    25 H    0.967    26 H    0.954
                             7 N    0.930
     7   7 N    3.796 --    12 C    0.933     6 C    0.930     8 C    0.929
                            10 C    0.926
     8   6 C    3.939 --     9 C    1.023    27 H    0.969    28 H    0.964
                             7 N    0.929
     9   6 C    3.982 --     8 C    1.023    31 H    0.981    29 H    0.976
                            30 H    0.972
    10   6 C    3.936 --    11 C    1.022    32 H    0.968    33 H    0.964
                             7 N    0.926
    11   6 C    3.982 --    10 C    1.022    36 H    0.982    34 H    0.977
                            35 H    0.972
    12   6 C    3.938 --    13 C    1.022    38 H    0.969    37 H    0.962
                             7 N    0.933
    13   6 C    3.983 --    12 C    1.022    41 H    0.980    39 H    0.977
                            40 H    0.973
    14   1 H    0.999 --     1 C    0.986
    15   1 H    0.998 --     1 C    0.986
    16   1 H    0.998 --     1 C    0.987
    17   1 H    0.999 --     2 C    0.976
    18   1 H    0.998 --     2 C    0.977
    19   1 H    1.000 --     3 C    0.972
    20   1 H    0.998 --     3 C    0.974
    21   1 H    0.999 --     4 C    0.972
    22   1 H    0.996 --     4 C    0.971
    23   1 H    0.998 --     5 C    0.967
    24   1 H    0.995 --     5 C    0.967
    25   1 H    0.993 --     6 C    0.967
    26   1 H    0.991 --     6 C    0.954
    27   1 H    0.994 --     8 C    0.969
    28   1 H    0.993 --     8 C    0.964
    29   1 H    0.996 --     9 C    0.976
    30   1 H    0.993 --     9 C    0.972
    31   1 H    0.995 --     9 C    0.981
    32   1 H    0.993 --    10 C    0.968
    33   1 H    0.993 --    10 C    0.964
    34   1 H    0.995 --    11 C    0.977
    35   1 H    0.993 --    11 C    0.972
    36   1 H    0.996 --    11 C    0.982
    37   1 H    0.993 --    12 C    0.962
    38   1 H    0.994 --    12 C    0.969
    39   1 H    0.996 --    13 C    0.977
    40   1 H    0.993 --    13 C    0.973
    41   1 H    0.996 --    13 C    0.980
 ---------------------------------------------------------------------------

molecular dipole:
                 x           y           z       tot (Debye)
 q only:       -1.497       2.580      -9.278
   full:       -1.525       2.546      -9.434      25.136

           -------------------------------------------------
          | TOTAL ENERGY              -42.509644252050 Eh   |
          | GRADIENT NORM               0.000291964180 Eh/α |
          | HOMO-LUMO GAP               7.694859505541 eV   |
           -------------------------------------------------

 * finished run on 2024/12/20 at 02:08:17.849
