   * xtb version 6.7.1 (edcfbbe) compiled by 'conda@3ef47c1a292c' on 2024-11-25

   ID    Z sym.   atoms
    1    6 C      1-4, 7-11, 13, 15-22
    2    8 O      5, 6
    3    7 N      12, 14
    4   17 Cl     23
    5    1 H      24-45

          program call               : xtb C0157.xyz --opt --namespace C0157 --charge +1
          :  Hamiltonian                  GFN2-xTB          :
 * total energy  :   -67.9515696 Eh     change       -0.2203251E-08 Eh
 * total energy  :   -67.9583202 Eh     change       -0.6750654E-02 Eh
 * total energy  :   -67.9594913 Eh     change       -0.1171053E-02 Eh
 * total energy  :   -67.9597884 Eh     change       -0.2971184E-03 Eh
 * total energy  :   -67.9600352 Eh     change       -0.2468066E-03 Eh
 * total energy  :   -67.9601752 Eh     change       -0.1399682E-03 Eh
 * total energy  :   -67.9603477 Eh     change       -0.1725550E-03 Eh
 * total energy  :   -67.9605455 Eh     change       -0.1978000E-03 Eh
 * total energy  :   -67.9607574 Eh     change       -0.2118357E-03 Eh
 * total energy  :   -67.9609258 Eh     change       -0.1684047E-03 Eh
 * total energy  :   -67.9611936 Eh     change       -0.4330488E-04 Eh
 * total energy  :   -67.9612317 Eh     change       -0.3800473E-04 Eh
 * total energy  :   -67.9612692 Eh     change       -0.3758763E-04 Eh
 * total energy  :   -67.9613041 Eh     change       -0.3488674E-04 Eh
 * total energy  :   -67.9613338 Eh     change       -0.2964661E-04 Eh
 * total energy  :   -67.9613445 Eh     change       -0.1072411E-04 Eh
 * total energy  :   -67.9613651 Eh     change       -0.2058722E-04 Eh
 * total energy  :   -67.9613727 Eh     change       -0.7603462E-05 Eh
 * total energy  :   -67.9613769 Eh     change       -0.4213843E-05 Eh
   *** GEOMETRY OPTIMIZATION CONVERGED AFTER 23 ITERATIONS ***

 final structure:
================
45
 xtb: 6.7.1 (edcfbbe)
C            1.32907126936942        0.00004279623775       -0.09268405001536
C            0.45193559077736       -1.19309428799139        0.26557973055615
C            0.62036735049139       -1.61270746079435        1.72276899240224
C           -0.12456545146730       -2.90075117781339        2.06734734802427
O           -0.44305395484352       -3.78769564296682        1.34165316409429
O           -0.44447221012565       -2.88084256941227        3.38838285302219
C            0.05800645007552       -1.69335990570983        3.98368973412974
C            0.11465363550095       -0.67967378398342        2.83572767374019
C           -1.28622602055433       -0.12711898221188        2.48391241564725
C           -2.06503073794211        0.31364007200463        3.66893919270755
C           -1.97333300380657        1.45881406650356        4.41251699793967
N           -2.89700394685334        1.38856452476965        5.40946913854646
C           -3.54796207624463        0.23707941366206        5.28122494130694
N           -3.06232857819464       -0.43729853517090        4.24081952868790
C           -3.52267987600864       -1.72800353757168        3.79529161892572
C           -3.19362159084628        2.43040180448754        6.37386730987521
C           -4.34208395831726        3.28111925166235        5.87545356555451
C           -5.63059567760360        3.07844625791292        6.35014690303900
C           -6.67405376043868        3.85220246215852        5.86875717988831
C           -6.44595623613020        4.81948483314205        4.90672816243638
C           -5.15741293982983        5.01466689758308        4.42797452962237
C           -4.10544932014333        4.24913215489353        4.90912556795961
Cl          -4.85038413060942        6.21417771925993        3.22943097010375
H            1.06106090248658        0.87846963783735        0.49040195260766
H            1.21356934328438        0.24294187381869       -1.14489054507850
H            2.37659908171617       -0.22567281507616        0.08907698859117
H           -0.59211929161399       -0.96774505754013        0.04577867457429
H            0.72939391475872       -2.04933171978122       -0.35115966968852
H            1.68490699726054       -1.81462439341490        1.89777403686338
H            1.06181410749761       -1.88334134547475        4.38098880919241
H           -0.59584340873677       -1.42291856059507        4.81369384591704
H            0.79930999567725        0.13699288675320        3.06016882660685
H           -1.16227461431787        0.71806092906700        1.80613305854770
H           -1.84773828639597       -0.90238678296205        1.96190496490183
H           -1.31696174022720        2.29648667723989        4.29367790163160
H           -4.34249443075171       -0.09840586786165        5.91897490864690
H           -4.26883191344385       -2.10453852795199        4.49131255712401
H           -3.97591252560976       -1.64700923208200        2.80572751642469
H           -2.69497841967435       -2.43857353033661        3.74379248558094
H           -3.45261065993315        1.96395512305330        7.32634779164222
H           -2.29621300296406        3.03777095169143        6.50407399414431
H           -5.82031841808393        2.33351485338100        7.10828256804475
H           -7.67228766651447        3.70128502353836        6.24811602640812
H           -7.25658862359278        5.42337139532681        4.53241919257641
H           -3.10892216707717        4.42574211071178        4.53552064654116

          :  Hamiltonian                  GFN2-xTB          :
         :: total energy             -67.961376900584 Eh    ::
         :: gradient norm              0.000950278937 Eh/a0 ::
         :: HOMO-LUMO gap              2.656630239171 eV    ::
         :: SCC energy               -68.885195886893 Eh    ::
         :: -> dispersion             -0.046010282391 Eh    ::
         :: repulsion energy           0.923818986309 Eh    ::

    * Orbital Energies and Occupations

         #    Occupation            Energy/Eh            Energy/eV
      -------------------------------------------------------------
         1        2.0000           -1.1480780             -31.2408
       ...           ...                  ...                  ...
        49        2.0000           -0.5794799             -15.7685
        50        2.0000           -0.5645891             -15.3633
        51        2.0000           -0.5620409             -15.2939
        52        2.0000           -0.5572349             -15.1631
        53        2.0000           -0.5554069             -15.1134
        54        2.0000           -0.5550936             -15.1049
        55        2.0000           -0.5526231             -15.0376
        56        2.0000           -0.5390284             -14.6677
        57        2.0000           -0.5323074             -14.4848
        58        2.0000           -0.5308128             -14.4442
        59        2.0000           -0.5145269             -14.0010
        60        2.0000           -0.5135979             -13.9757
        61        2.0000           -0.5014386             -13.6448 (HOMO)
        62                         -0.4038092             -10.9882 (LUMO)
        63                         -0.3686673             -10.0319
        64                         -0.3548482              -9.6559
        65                         -0.3495053              -9.5105
        66                         -0.3345619              -9.1039
        67                         -0.2299215              -6.2565
        68                         -0.2289610              -6.2303
        69                         -0.1755618              -4.7773
        70                         -0.1367216              -3.7204
        71                         -0.1088907              -2.9631
        72                         -0.0861388              -2.3440
       ...                                ...                  ...
       119                          0.5851093              15.9216
      -------------------------------------------------------------
                  HL-Gap            0.0976294 Eh            2.6566 eV

     #   Z          covCN         q      C6AA      α(0)
     1   6 C        3.752    -0.112    22.699     6.794
     2   6 C        3.801    -0.061    21.677     6.629
     3   6 C        3.892    -0.057    21.534     6.597
     4   6 C        2.785     0.351    21.046     7.514
     5   8 O        0.856    -0.344    20.593     6.084
     6   8 O        1.706    -0.272    18.511     5.809
     7   6 C        3.785     0.064    19.516     6.292
     8   6 C        3.877    -0.029    21.047     6.523
     9   6 C        3.805    -0.077    21.969     6.673
    10   6 C        3.095     0.043    26.917     8.503
    11   6 C        3.077    -0.024    28.524     8.756
    12   7 N        2.858     0.060    20.184     6.673
    13   6 C        3.085     0.043    26.939     8.508
    14   7 N        2.867     0.056    20.265     6.686
    15   6 C        3.691    -0.085    22.319     6.760
    16   6 C        3.748    -0.030    21.168     6.562
    17   6 C        2.973     0.003    27.964     8.674
    18   6 C        2.921    -0.042    29.047     8.838
    19   6 C        2.921    -0.020    28.507     8.756
    20   6 C        2.953    -0.032    28.794     8.801
    21   6 C        2.886     0.106    25.647     8.303
    22   6 C        2.961    -0.050    29.234     8.869
    23  17 Cl       0.967    -0.138   103.478    15.563
    24   1 H        0.925     0.034     2.536     2.490
    25   1 H        0.925     0.056     2.244     2.343
    26   1 H        0.925     0.049     2.334     2.389
    27   1 H        0.924     0.043     2.414     2.430
    28   1 H        0.924     0.071     2.072     2.251
    29   1 H        0.924     0.079     1.994     2.208
    30   1 H        0.924     0.063     2.161     2.299
    31   1 H        0.924     0.048     2.345     2.395
    32   1 H        0.925     0.060     2.200     2.320
    33   1 H        0.924     0.089     1.889     2.149
    34   1 H        0.924     0.080     1.979     2.200
    35   1 H        0.926     0.100     1.785     2.089
    36   1 H        0.926     0.109     1.707     2.043
    37   1 H        0.925     0.095     1.833     2.118
    38   1 H        0.924     0.101     1.779     2.086
    39   1 H        0.924     0.121     1.602     1.979
    40   1 H        0.924     0.089     1.890     2.150
    41   1 H        0.924     0.095     1.830     2.116
    42   1 H        0.926     0.051     2.310     2.377
    43   1 H        0.926     0.072     2.067     2.248
    44   1 H        0.926     0.081     1.968     2.194
    45   1 H        0.926     0.062     2.179     2.308

Wiberg/Mayer (AO) data.
largest (>0.10) Wiberg bond orders for each atom

     #   Z sym  total        # sym  WBO       # sym  WBO       # sym  WBO
 ---------------------------------------------------------------------------
     1   6 C    3.994 --     2 C    1.019    24 H    0.987    26 H    0.986
                            25 H    0.985
     2   6 C    3.989 --     1 C    1.019     3 C    0.993    27 H    0.974
                            28 H    0.969
     3   6 C    3.988 --     2 C    0.993     8 C    0.978     4 C    0.947
                            29 H    0.934
     4   6 C    3.914 --     5 O    1.825     6 O    1.077     3 C    0.947
     5   8 O    2.111 --     4 C    1.825     6 O    0.159
     6   8 O    2.279 --     4 C    1.077     7 C    0.962     5 O    0.159
     7   6 C    3.938 --     8 C    0.989    31 H    0.969    30 H    0.966
                             6 O    0.962
     8   6 C    3.990 --     7 C    0.989     3 C    0.978    32 H    0.969
                             9 C    0.968
     9   6 C    3.984 --    10 C    1.028     8 C    0.968    34 H    0.961
                            33 H    0.956
    10   6 C    3.951 --    11 C    1.544    14 N    1.194     9 C    1.028
    11   6 C    3.942 --    10 C    1.544    12 N    1.222    35 H    0.962
    12   7 N    3.712 --    13 C    1.361    11 C    1.222    16 C    0.959
    13   6 C    3.945 --    12 N    1.361    14 N    1.354    36 H    0.954
    14   7 N    3.706 --    13 C    1.354    10 C    1.194    15 C    0.989
    15   6 C    3.930 --    14 N    0.989    37 H    0.975    38 H    0.960
                            39 H    0.953
    16   6 C    3.937 --    17 C    0.979    40 H    0.962    41 H    0.961
                            12 N    0.959
    17   6 C    3.980 --    22 C    1.416    18 C    1.413    16 C    0.979
                            20 C    0.105
    18   6 C    3.990 --    19 C    1.432    17 C    1.413    42 H    0.967
    19   6 C    3.988 --    20 C    1.447    18 C    1.432    43 H    0.966
                            22 C    0.107
    20   6 C    3.985 --    19 C    1.447    21 C    1.394    44 H    0.964
                            17 C    0.105
    21   6 C    3.927 --    22 C    1.400    20 C    1.394    23 Cl   1.004
    22   6 C    3.988 --    17 C    1.416    21 C    1.400    45 H    0.965
                            19 C    0.107
    23  17 Cl   1.154 --    21 C    1.004
    24   1 H    0.999 --     1 C    0.987
    25   1 H    0.996 --     1 C    0.985
    26   1 H    0.998 --     1 C    0.986
    27   1 H    0.998 --     2 C    0.974
    28   1 H    0.995 --     2 C    0.969
    29   1 H    0.992 --     3 C    0.934
    30   1 H    0.996 --     7 C    0.966
    31   1 H    0.997 --     7 C    0.969
    32   1 H    0.996 --     8 C    0.969
    33   1 H    0.992 --     9 C    0.956
    34   1 H    0.993 --     9 C    0.961
    35   1 H    0.990 --    11 C    0.962
    36   1 H    0.988 --    13 C    0.954
    37   1 H    0.991 --    15 C    0.975
    38   1 H    0.989 --    15 C    0.960
    39   1 H    0.985 --    15 C    0.953
    40   1 H    0.991 --    16 C    0.962
    41   1 H    0.990 --    16 C    0.961
    42   1 H    0.997 --    18 C    0.967
    43   1 H    0.994 --    19 C    0.966
    44   1 H    0.993 --    20 C    0.964
    45   1 H    0.996 --    22 C    0.965
 ---------------------------------------------------------------------------

molecular dipole:
                 x           y           z       tot (Debye)
 q only:       -5.307       1.924       9.183
   full:       -5.228       2.358       9.296      27.762

           -------------------------------------------------
          | TOTAL ENERGY              -67.961376900584 Eh   |
          | GRADIENT NORM               0.000950278937 Eh/α |
          | HOMO-LUMO GAP               2.656630239171 eV   |
           -------------------------------------------------

 * finished run on 2024/12/20 at 02:08:20.710
