   * xtb version 6.7.1 (edcfbbe) compiled by 'conda@3ef47c1a292c' on 2024-11-25

   ID    Z sym.   atoms
    1    6 C      1-12, 14-25
    2    7 N      13
    3    1 H      26-69

          program call               : xtb C0158.xyz --opt --namespace C0158 --charge +1
          :  Hamiltonian                  GFN2-xTB          :
 * total energy  :   -76.3615622 Eh     change       -0.2291671E-08 Eh
 * total energy  :   -76.3697532 Eh     change       -0.8191011E-02 Eh
 * total energy  :   -76.3718677 Eh     change       -0.2114510E-02 Eh
 * total energy  :   -76.3721206 Eh     change       -0.2529084E-03 Eh
 * total energy  :   -76.3723171 Eh     change       -0.1964946E-03 Eh
 * total energy  :   -76.3724251 Eh     change       -0.1080341E-03 Eh
 * total energy  :   -76.3725551 Eh     change       -0.1299201E-03 Eh
 * total energy  :   -76.3726890 Eh     change       -0.1339363E-03 Eh
 * total energy  :   -76.3727818 Eh     change       -0.9281994E-04 Eh
 * total energy  :   -76.3728389 Eh     change       -0.5710154E-04 Eh
 * total energy  :   -76.3742436 Eh     change       -0.4446876E-04 Eh
 * total energy  :   -76.3742765 Eh     change       -0.3292363E-04 Eh
 * total energy  :   -76.3742859 Eh     change       -0.9413145E-05 Eh
 * total energy  :   -76.3743053 Eh     change       -0.1939836E-04 Eh
 * total energy  :   -76.3743204 Eh     change       -0.1507791E-04 Eh
 * total energy  :   -76.3743330 Eh     change       -0.1260631E-04 Eh
 * total energy  :   -76.3743446 Eh     change       -0.1155596E-04 Eh
 * total energy  :   -76.3743522 Eh     change       -0.7655316E-05 Eh
 * total energy  :   -76.3743569 Eh     change       -0.4712318E-05 Eh
   *** GEOMETRY OPTIMIZATION CONVERGED AFTER 50 ITERATIONS ***

 final structure:
================
69
 xtb: 6.7.1 (edcfbbe)
C            1.89329332759315        0.60548667776790       -0.56646294065840
C            1.63748914543132        0.29976918235714       -2.03758902123480
C            1.73997249869978       -1.18902683028401       -2.37270571438173
C            0.73590773985477       -2.08678279890868       -1.64621404564548
C           -0.73493437804831       -1.73827437207111       -1.88200478125188
C           -1.18451378756746       -1.77976890736238       -3.34375003708519
C           -1.00705579907351       -3.13145341035805       -4.03877227209639
C           -1.72101971170244       -4.30463941154349       -3.36372618215731
C           -3.23061864233687       -4.12696265703325       -3.19208282792222
C           -4.01319788431629       -3.90527325731579       -4.48886803534677
C           -3.83651988474278       -4.99245043012112       -5.55795780923044
C           -4.17591544600043       -6.42085454064061       -5.11486203925935
N           -5.55381542007264       -6.91759782851970       -5.39673254943113
C           -5.81121477125272       -7.01996974314774       -6.88036543054751
C           -4.88321657665896       -7.92976141454239       -7.64259531008156
C           -5.25839053099408       -9.24314138578755       -7.91503546619656
C           -4.42414770075585      -10.07750067081841       -8.63803489120773
C           -3.20676401872150       -9.60894792609323       -9.10271727500973
C           -2.83498525577364       -8.29789929889176       -8.85681616346568
C           -3.66903613753715       -7.46127137511196       -8.13589480255028
C           -5.72365775432403       -8.29307724632430       -4.81819954874361
C           -5.17613996770981       -8.60964121271043       -3.42256101372220
C           -5.80685763207673       -7.91938390148876       -2.20965889936759
C           -7.29982559191657       -8.18882668199615       -2.06435935024280
C           -6.56424994059364       -5.99672768822457       -4.85018828202770
H            1.11682881995559        0.18121885475211        0.06501539266581
H            1.90939455495690        1.68053278678425       -0.40385220811199
H            2.85263486596285        0.19861688496399       -0.25429527883384
H            0.65484111339994        0.67998635480226       -2.32314101277326
H            2.37744015570588        0.83172679161647       -2.64044573265823
H            1.62445788670331       -1.31303784146825       -3.45189025516282
H            2.74454240901805       -1.53381465458487       -2.11474874370694
H            0.91851407879046       -3.11980474323134       -1.95175537490856
H            0.92639317557438       -2.03591096981089       -0.57272810592692
H           -1.34752554315804       -2.42475987513757       -1.29239009767506
H           -0.92880877542596       -0.73490462956234       -1.49935261899791
H           -2.23505605614990       -1.48186360339172       -3.38763140197660
H           -0.62182150709402       -1.03586612137177       -3.90981329963646
H           -1.35417437511091       -3.03380551083922       -5.07061255432724
H            0.05647864048072       -3.37013935192777       -4.08439310735068
H           -1.51862380224998       -5.21240571682038       -3.93886490689467
H           -1.28957377509753       -4.45667345505715       -2.37361286495672
H           -3.62065104402666       -4.99750594987451       -2.65566601559616
H           -3.41325645855685       -3.26532975533298       -2.54970094542026
H           -5.06615831929605       -3.77699412880354       -4.23256767276999
H           -3.68265475682817       -2.96630932700953       -4.93387118970551
H           -4.40314130689239       -4.70174755726113       -6.44309426113074
H           -2.78601017714408       -4.99432298410417       -5.85065695475699
H           -3.49567813830450       -7.12833983658669       -5.59291200241532
H           -4.02518448453478       -6.47553908795873       -4.03867620510029
H           -6.83747265454937       -7.37478857002750       -6.99880891431720
H           -5.75060305471477       -6.01325604906848       -7.29553307399856
H           -6.21813896444776       -9.61250696646955       -7.58190704172058
H           -4.73055227117579      -11.09082716932221       -8.84463534077468
H           -2.55766986943819      -10.25832091148038       -9.66828879440034
H           -1.89815210119054       -7.92038932004684       -9.23556474557571
H           -3.37904975365698       -6.43325738158836       -7.97867981523001
H           -6.79106656788332       -8.51819770915990       -4.84006903140183
H           -5.21740989345224       -8.97545677601460       -5.50461024473131
H           -5.34773408136816       -9.68299939502139       -3.30539190498698
H           -4.09450719763553       -8.47203251542864       -3.39728468037509
H           -5.30150888087483       -8.31543976247937       -1.32698642403412
H           -5.61624157713946       -6.84404868069873       -2.21422939009938
H           -7.49128969169589       -9.25875945286920       -2.06303969475414
H           -7.65757457644727       -7.78334904096841       -1.12235563690463
H           -7.88196005873141       -7.73475957360132       -2.86204646307581
H           -6.39638588270173       -5.83822580492655       -3.78928131736736
H           -6.51605572869159       -5.03941233739599       -5.36350345295701
H           -7.56222025407571       -6.40822202679867       -4.99179192665632

          :  Hamiltonian                  GFN2-xTB          :
         :: total energy             -76.374356948547 Eh    ::
         :: gradient norm              0.000371442632 Eh/a0 ::
         :: HOMO-LUMO gap              3.135814426713 eV    ::
         :: SCC energy               -77.562210196084 Eh    ::
         :: -> dispersion             -0.063874825959 Eh    ::
         :: repulsion energy           1.187853247537 Eh    ::

    * Orbital Energies and Occupations

         #    Occupation            Energy/Eh            Energy/eV
      -------------------------------------------------------------
         1        2.0000           -0.8443808             -22.9768
       ...           ...                  ...                  ...
        60        2.0000           -0.5317422             -14.4694
        61        2.0000           -0.5290402             -14.3959
        62        2.0000           -0.5249941             -14.2858
        63        2.0000           -0.5244764             -14.2717
        64        2.0000           -0.5185840             -14.1114
        65        2.0000           -0.5151577             -14.0182
        66        2.0000           -0.5074303             -13.8079
        67        2.0000           -0.4976045             -13.5405
        68        2.0000           -0.4936406             -13.4326
        69        2.0000           -0.4897102             -13.3257
        70        2.0000           -0.4750583             -12.9270
        71        2.0000           -0.4712371             -12.8230
        72        2.0000           -0.4689199             -12.7600 (HOMO)
        73                         -0.3536808              -9.6241 (LUMO)
        74                         -0.3432428              -9.3401
        75                         -0.2321320              -6.3166
        76                         -0.2067748              -5.6266
        77                         -0.1494367              -4.0664
        78                         -0.1467409              -3.9930
        79                         -0.1285785              -3.4988
        80                         -0.0662333              -1.8023
        81                         -0.0606149              -1.6494
        82                         -0.0553284              -1.5056
        83                         -0.0417319              -1.1356
       ...                                ...                  ...
       144                          0.5421257              14.7520
      -------------------------------------------------------------
                  HL-Gap            0.1152391 Eh            3.1358 eV

     #   Z          covCN         q      C6AA      α(0)
     1   6 C        3.751    -0.103    22.522     6.768
     2   6 C        3.799    -0.053    21.519     6.605
     3   6 C        3.800    -0.058    21.612     6.619
     4   6 C        3.800    -0.058    21.611     6.619
     5   6 C        3.800    -0.058    21.612     6.619
     6   6 C        3.800    -0.059    21.628     6.621
     7   6 C        3.800    -0.059    21.632     6.622
     8   6 C        3.800    -0.061    21.667     6.628
     9   6 C        3.800    -0.061    21.674     6.629
    10   6 C        3.799    -0.069    21.824     6.651
    11   6 C        3.798    -0.069    21.819     6.651
    12   6 C        3.752    -0.038    21.321     6.585
    13   7 N        3.618     0.115    19.266     6.519
    14   6 C        3.769    -0.039    21.299     6.577
    15   6 C        2.966    -0.007    28.200     8.710
    16   6 C        2.923    -0.039    28.972     8.827
    17   6 C        2.918    -0.022    28.560     8.764
    18   6 C        2.920    -0.018    28.469     8.750
    19   6 C        2.919    -0.023    28.572     8.765
    20   6 C        2.923    -0.039    28.958     8.825
    21   6 C        3.756    -0.040    21.348     6.588
    22   6 C        3.799    -0.074    21.913     6.665
    23   6 C        3.799    -0.059    21.646     6.624
    24   6 C        3.751    -0.115    22.759     6.803
    25   6 C        3.717    -0.085    22.259     6.740
    26   1 H        0.925     0.034     2.536     2.490
    27   1 H        0.925     0.034     2.527     2.486
    28   1 H        0.925     0.036     2.509     2.477
    29   1 H        0.924     0.029     2.595     2.519
    30   1 H        0.924     0.030     2.593     2.518
    31   1 H        0.924     0.026     2.637     2.540
    32   1 H        0.924     0.031     2.565     2.505
    33   1 H        0.924     0.025     2.656     2.549
    34   1 H        0.924     0.035     2.512     2.479
    35   1 H        0.924     0.024     2.673     2.557
    36   1 H        0.924     0.037     2.486     2.466
    37   1 H        0.924     0.024     2.668     2.555
    38   1 H        0.924     0.039     2.462     2.454
    39   1 H        0.924     0.023     2.693     2.566
    40   1 H        0.924     0.040     2.444     2.445
    41   1 H        0.924     0.020     2.735     2.586
    42   1 H        0.924     0.044     2.392     2.419
    43   1 H        0.924     0.016     2.795     2.615
    44   1 H        0.925     0.052     2.291     2.367
    45   1 H        0.924     0.031     2.571     2.507
    46   1 H        0.924     0.058     2.218     2.329
    47   1 H        0.924     0.044     2.396     2.421
    48   1 H        0.924     0.071     2.080     2.255
    49   1 H        0.924     0.077     2.015     2.220
    50   1 H        0.925     0.096     1.823     2.111
    51   1 H        0.924     0.078     2.005     2.214
    52   1 H        0.924     0.082     1.956     2.187
    53   1 H        0.926     0.040     2.451     2.448
    54   1 H        0.926     0.058     2.226     2.333
    55   1 H        0.926     0.061     2.190     2.314
    56   1 H        0.926     0.057     2.234     2.338
    57   1 H        0.926     0.043     2.408     2.426
    58   1 H        0.924     0.082     1.960     2.189
    59   1 H        0.924     0.084     1.940     2.178
    60   1 H        0.924     0.073     2.049     2.239
    61   1 H        0.924     0.052     2.300     2.372
    62   1 H        0.924     0.057     2.231     2.336
    63   1 H        0.924     0.030     2.592     2.518
    64   1 H        0.925     0.049     2.328     2.386
    65   1 H        0.925     0.055     2.255     2.349
    66   1 H        0.925     0.032     2.557     2.501
    67   1 H        0.925     0.103     1.755     2.072
    68   1 H        0.925     0.093     1.852     2.128
    69   1 H        0.925     0.083     1.946     2.181

Wiberg/Mayer (AO) data.
largest (>0.10) Wiberg bond orders for each atom

     #   Z sym  total        # sym  WBO       # sym  WBO       # sym  WBO
 ---------------------------------------------------------------------------
     1   6 C    3.997 --     2 C    1.020    28 H    0.988    27 H    0.987
                            26 H    0.986
     2   6 C    3.998 --     1 C    1.020     3 C    1.008    30 H    0.978
                            29 H    0.976
     3   6 C    3.997 --     2 C    1.008     4 C    1.008    32 H    0.977
                            31 H    0.976
     4   6 C    3.997 --     5 C    1.008     3 C    1.008    33 H    0.975
                            34 H    0.975
     5   6 C    3.997 --     4 C    1.008     6 C    1.008    35 H    0.975
                            36 H    0.974
     6   6 C    3.997 --     5 C    1.008     7 C    1.007    37 H    0.975
                            38 H    0.974
     7   6 C    3.997 --     6 C    1.007     8 C    1.007    39 H    0.976
                            40 H    0.974
     8   6 C    3.996 --     9 C    1.007     7 C    1.007    41 H    0.976
                            42 H    0.973
     9   6 C    3.995 --    10 C    1.007     8 C    1.007    44 H    0.971
                            43 H    0.971
    10   6 C    3.992 --     9 C    1.007    11 C    1.004    45 H    0.974
                            46 H    0.971
    11   6 C    3.986 --    10 C    1.004    12 C    1.003    48 H    0.966
                            47 H    0.965
    12   6 C    3.929 --    11 C    1.003    49 H    0.966    50 H    0.952
                            13 N    0.930
    13   7 N    3.803 --    25 C    0.965    12 C    0.930    21 C    0.925
                            14 C    0.914
    14   6 C    3.935 --    15 C    1.007    51 H    0.966    52 H    0.959
                            13 N    0.914
    15   6 C    3.980 --    20 C    1.407    16 C    1.404    14 C    1.007
                            18 C    0.109
    16   6 C    3.991 --    17 C    1.444    15 C    1.404    53 H    0.967
                            19 C    0.109
    17   6 C    3.990 --    16 C    1.444    18 C    1.438    54 H    0.969
                            20 C    0.109
    18   6 C    3.988 --    19 C    1.438    17 C    1.438    55 H    0.969
                            15 C    0.109
    19   6 C    3.990 --    20 C    1.445    18 C    1.438    56 H    0.969
                            16 C    0.109
    20   6 C    3.991 --    19 C    1.445    15 C    1.407    57 H    0.966
                            17 C    0.109
    21   6 C    3.931 --    22 C    1.006    58 H    0.966    59 H    0.959
                            13 N    0.925
    22   6 C    3.985 --    21 C    1.006    23 C    1.006    61 H    0.971
                            60 H    0.963
    23   6 C    3.994 --    24 C    1.021    22 C    1.006    62 H    0.973
                            63 H    0.968
    24   6 C    3.993 --    23 C    1.021    64 H    0.986    66 H    0.985
                            65 H    0.985
    25   6 C    3.933 --    69 H    0.975    68 H    0.971    13 N    0.965
                            67 H    0.964
    26   1 H    0.999 --     1 C    0.986
    27   1 H    0.999 --     1 C    0.987
    28   1 H    0.999 --     1 C    0.988
    29   1 H    0.999 --     2 C    0.976
    30   1 H    0.999 --     2 C    0.978
    31   1 H    0.999 --     3 C    0.976
    32   1 H    0.999 --     3 C    0.977
    33   1 H    0.999 --     4 C    0.975
    34   1 H    0.999 --     4 C    0.975
    35   1 H    0.999 --     5 C    0.975
    36   1 H    0.999 --     5 C    0.974
    37   1 H    0.999 --     6 C    0.975
    38   1 H    0.998 --     6 C    0.974
    39   1 H    0.999 --     7 C    0.976
    40   1 H    0.998 --     7 C    0.974
    41   1 H    1.000 --     8 C    0.976
    42   1 H    0.998 --     8 C    0.973
    43   1 H    1.000 --     9 C    0.971
    44   1 H    0.997 --     9 C    0.971
    45   1 H    0.999 --    10 C    0.974
    46   1 H    0.996 --    10 C    0.971
    47   1 H    0.998 --    11 C    0.965
    48   1 H    0.995 --    11 C    0.966
    49   1 H    0.994 --    12 C    0.966
    50   1 H    0.991 --    12 C    0.952
    51   1 H    0.994 --    14 C    0.966
    52   1 H    0.993 --    14 C    0.959
    53   1 H    0.998 --    16 C    0.967
    54   1 H    0.996 --    17 C    0.969
    55   1 H    0.996 --    18 C    0.969
    56   1 H    0.996 --    19 C    0.969
    57   1 H    0.998 --    20 C    0.966
    58   1 H    0.993 --    21 C    0.966
    59   1 H    0.993 --    21 C    0.959
    60   1 H    0.994 --    22 C    0.963
    61   1 H    0.997 --    22 C    0.971
    62   1 H    0.996 --    23 C    0.973
    63   1 H    0.999 --    23 C    0.968
    64   1 H    0.997 --    24 C    0.986
    65   1 H    0.997 --    24 C    0.985
    66   1 H    0.999 --    24 C    0.985
    67   1 H    0.989 --    25 C    0.964
    68   1 H    0.991 --    25 C    0.971
    69   1 H    0.993 --    25 C    0.975
 ---------------------------------------------------------------------------

molecular dipole:
                 x           y           z       tot (Debye)
 q only:       -9.594     -13.176     -10.083
   full:       -9.710     -13.208     -10.186      49.056

           -------------------------------------------------
          | TOTAL ENERGY              -76.374356948547 Eh   |
          | GRADIENT NORM               0.000371442632 Eh/α |
          | HOMO-LUMO GAP               3.135814426713 eV   |
           -------------------------------------------------

 * finished run on 2024/12/20 at 02:08:24.601
