   * xtb version 6.7.1 (edcfbbe) compiled by 'conda@3ef47c1a292c' on 2024-11-25

   ID    Z sym.   atoms
    1    6 C      1-10, 13, 14, 16, 18-24
    2    8 O      11, 12, 17
    3    7 N      15
    4    1 H      25-66

          program call               : xtb C0151.xyz --opt --namespace C0151 --charge +1
          :  Hamiltonian                  GFN2-xTB          :
 * total energy  :   -78.9689012 Eh     change       -0.8406715E-09 Eh
 * total energy  :   -78.9785513 Eh     change       -0.9650064E-02 Eh
 * total energy  :   -78.9817009 Eh     change       -0.3149598E-02 Eh
 * total energy  :   -78.9830139 Eh     change       -0.1312963E-02 Eh
 * total energy  :   -78.9845219 Eh     change       -0.1508058E-02 Eh
 * total energy  :   -78.9856249 Eh     change       -0.1102947E-02 Eh
 * total energy  :   -78.9864864 Eh     change       -0.8615470E-03 Eh
 * total energy  :   -78.9871715 Eh     change       -0.6850456E-03 Eh
 * total energy  :   -78.9877135 Eh     change       -0.5420292E-03 Eh
 * total energy  :   -78.9882090 Eh     change       -0.4955215E-03 Eh
 * total energy  :   -79.0023133 Eh     change       -0.9850064E-05 Eh
 * total energy  :   -79.0023222 Eh     change       -0.8866169E-05 Eh
 * total energy  :   -79.0023297 Eh     change       -0.7531854E-05 Eh
 * total energy  :   -79.0023364 Eh     change       -0.6693693E-05 Eh
 * total energy  :   -79.0023430 Eh     change       -0.6535347E-05 Eh
 * total energy  :   -79.0023496 Eh     change       -0.6612336E-05 Eh
 * total energy  :   -79.0023558 Eh     change       -0.6277271E-05 Eh
 * total energy  :   -79.0023615 Eh     change       -0.5658394E-05 Eh
 * total energy  :   -79.0023663 Eh     change       -0.4798418E-05 Eh
   *** GEOMETRY OPTIMIZATION CONVERGED AFTER 182 ITERATIONS ***

 final structure:
================
66
 xtb: 6.7.1 (edcfbbe)
C            2.42541897237854        0.84479584853549       -4.00141724897092
C            0.92106186305889        0.71160729964306       -4.20200345139616
C            0.49148741705262       -0.67181226743935       -4.69383330267710
C            0.79211710516615       -1.81577772145111       -3.72138876939527
C            0.10658992570903       -1.70613630256323       -2.35698882307860
C           -1.41845071008948       -1.59441460526933       -2.40655535091492
C           -2.08414165028205       -2.81572929816317       -3.03819840099554
C           -3.61118666910958       -2.79346769823605       -2.94755069989370
C           -4.24620175084637       -1.55714641441232       -3.60566251629946
C           -3.68161208097051       -1.30672979413364       -4.97252423487395
O           -2.96037387385524       -0.40009235557574       -5.28766133232596
O           -4.04806579035560       -2.26373467024810       -5.86503262005231
C           -3.58472226290249       -2.07389564969211       -7.19336984771002
C           -2.10544804879898       -2.44096931618342       -7.34544996002097
N           -1.79741770226893       -3.89290964143627       -7.55162256540374
C           -2.68597968909181       -4.77998757574657       -6.73369822001376
O           -3.90223842276530       -4.90583051192351       -7.38652229103321
C           -4.79082646896982       -5.87942032871828       -6.83340718493952
C           -5.33282776575821       -5.49046018359752       -5.45945604735423
C           -6.64865964229078       -6.19964535729360       -5.13277941960536
C           -6.55586640763570       -7.72579926812467       -5.08557552945875
C           -5.61162288972723       -8.24135813431972       -4.00576791768072
C           -1.94234479382320       -4.23905329016054       -8.98047210987945
C           -0.39715713417906       -4.12147886573470       -7.14360365438345
H            2.77505887833034        0.20587742280358       -3.19471511467057
H            2.67746832686667        1.87134349850955       -3.74855580175081
H            2.95959425554487        0.57737290482714       -4.91106806237570
H            0.40612921964309        0.94619630307625       -3.27014372236173
H            0.59610508185916        1.44487275264181       -4.94347582003609
H           -0.57947635934057       -0.63232336840905       -4.90551378346216
H            1.01079418730609       -0.87924903552387       -5.63552642939607
H            0.50846599581935       -2.76497090675125       -4.18997337158849
H            1.86917755154716       -1.86371872873326       -3.55563559675492
H            0.38037725790184       -2.58527305291542       -1.76794606926317
H            0.49721188639988       -0.83325380073214       -1.83397133628183
H           -1.78674755084152       -1.48623904631506       -1.38465315370590
H           -1.69560614805873       -0.69654474701937       -2.95762501093344
H           -1.79026710572723       -2.88168630026316       -4.09068864558783
H           -1.72055979943064       -3.71765925222099       -2.53892490734656
H           -4.01194535538316       -3.69277626919633       -3.42021689095621
H           -3.91041479321937       -2.80943973431304       -1.89925669194448
H           -5.32226581411186       -1.71216629675975       -3.69080650368041
H           -4.05987929192703       -0.66976640991503       -3.00240084426004
H           -4.23564614042298       -2.67752912396276       -7.82451504308757
H           -3.68596292655440       -1.01310309987076       -7.45013659719008
H           -1.68951097743203       -1.89414902827235       -8.19222704719043
H           -1.58939567234490       -2.10163168334481       -6.44314411926473
H           -2.19510491199373       -5.76369793369721       -6.63706641218330
H           -2.79135194555021       -4.33213324282265       -5.73545968986706
H           -5.60488069715620       -5.92386446300579       -7.55882355811850
H           -4.28467801798767       -6.85199119129429       -6.80293042529574
H           -4.59643662372132       -5.71735352796854       -4.68623125630942
H           -5.50770956086080       -4.41197824877868       -5.46152275813707
H           -6.99584202872500       -5.83981356696134       -4.16243071791129
H           -7.39572446248006       -5.91535068787994       -5.87644715548982
H           -7.55623985748652       -8.11340856320908       -4.88663933394628
H           -6.24751811640449       -8.11076979837633       -6.05927425286066
H           -5.88106724979759       -7.82891797895379       -3.03640069174593
H           -5.67330293487681       -9.32433979169790       -3.94270661408645
H           -4.57785978914273       -7.97780887409960       -4.21860329249498
H           -1.21351992083559       -3.68502853354732       -9.56788649299565
H           -1.77841238674377       -5.30587273350260       -9.12036382467407
H           -2.94687375299262       -3.99927690907827       -9.31934653189601
H           -0.28818104277882       -3.98898175900275       -6.06742904089296
H           -0.08651285816730       -5.13136124859945       -7.40660211732950
H            0.25630992188146       -3.41230784293858       -7.64897377318899

          :  Hamiltonian                  GFN2-xTB          :
         :: total energy             -79.002366301856 Eh    ::
         :: gradient norm              0.000184828482 Eh/a0 ::
         :: HOMO-LUMO gap              3.929390040550 eV    ::
         :: SCC energy               -80.001268634635 Eh    ::
         :: -> dispersion             -0.058900323459 Eh    ::
         :: repulsion energy           0.998902332779 Eh    ::

    * Orbital Energies and Occupations

         #    Occupation            Energy/Eh            Energy/eV
      -------------------------------------------------------------
         1        2.0000           -0.8740073             -23.7829
       ...           ...                  ...                  ...
        60        2.0000           -0.5408267             -14.7166
        61        2.0000           -0.5390999             -14.6697
        62        2.0000           -0.5332510             -14.5105
        63        2.0000           -0.5266308             -14.3304
        64        2.0000           -0.5214941             -14.1906
        65        2.0000           -0.5211014             -14.1799
        66        2.0000           -0.5180634             -14.0972
        67        2.0000           -0.5148278             -14.0092
        68        2.0000           -0.5120687             -13.9341
        69        2.0000           -0.5098025             -13.8724
        70        2.0000           -0.5023740             -13.6703
        71        2.0000           -0.4967274             -13.5166
        72        2.0000           -0.4921518             -13.3921 (HOMO)
        73                         -0.3477493              -9.4627 (LUMO)
        74                         -0.2393236              -6.5123
        75                         -0.1805698              -4.9136
        76                         -0.1626452              -4.4258
        77                         -0.1558468              -4.2408
        78                         -0.1222685              -3.3271
        79                         -0.1006106              -2.7378
        80                         -0.0765523              -2.0831
        81                         -0.0481506              -1.3102
        82                         -0.0331860              -0.9030
        83                         -0.0273458              -0.7441
       ...                                ...                  ...
       138                          0.5390063              14.6671
      -------------------------------------------------------------
                  HL-Gap            0.1444024 Eh            3.9294 eV

     #   Z          covCN         q      C6AA      α(0)
     1   6 C        3.751    -0.105    22.567     6.775
     2   6 C        3.800    -0.055    21.557     6.611
     3   6 C        3.800    -0.059    21.632     6.622
     4   6 C        3.799    -0.054    21.552     6.610
     5   6 C        3.801    -0.061    21.678     6.629
     6   6 C        3.801    -0.066    21.767     6.643
     7   6 C        3.801    -0.051    21.497     6.601
     8   6 C        3.802    -0.058    21.621     6.620
     9   6 C        3.803    -0.095    22.304     6.724
    10   6 C        2.719     0.359    20.902     7.484
    11   8 O        0.856    -0.398    21.640     6.237
    12   8 O        1.704    -0.274    18.553     5.815
    13   6 C        3.703     0.064    19.656     6.339
    14   6 C        3.758    -0.044    21.416     6.598
    15   7 N        3.620     0.120    19.177     6.504
    16   6 C        3.654     0.121    18.886     6.240
    17   8 O        1.700    -0.306    19.096     5.900
    18   6 C        3.695     0.066    19.638     6.340
    19   6 C        3.799    -0.073    21.892     6.662
    20   6 C        3.802    -0.066    21.766     6.642
    21   6 C        3.800    -0.060    21.660     6.626
    22   6 C        3.751    -0.106    22.590     6.778
    23   6 C        3.718    -0.095    22.444     6.767
    24   6 C        3.724    -0.096    22.443     6.765
    25   1 H        0.925     0.037     2.494     2.470
    26   1 H        0.925     0.040     2.444     2.445
    27   1 H        0.925     0.032     2.552     2.498
    28   1 H        0.925     0.039     2.461     2.453
    29   1 H        0.924     0.034     2.529     2.487
    30   1 H        0.924     0.032     2.560     2.502
    31   1 H        0.924     0.015     2.806     2.620
    32   1 H        0.924    -0.001     3.074     2.742
    33   1 H        0.924     0.042     2.427     2.436
    34   1 H        0.924     0.032     2.557     2.501
    35   1 H        0.925     0.047     2.352     2.398
    36   1 H        0.924     0.041     2.440     2.443
    37   1 H        0.925     0.050     2.314     2.379
    38   1 H        0.924    -0.000     3.060     2.736
    39   1 H        0.924     0.037     2.484     2.465
    40   1 H        0.924     0.038     2.478     2.462
    41   1 H        0.924     0.060     2.200     2.319
    42   1 H        0.924     0.077     2.006     2.215
    43   1 H        0.925     0.084     1.939     2.178
    44   1 H        0.925     0.097     1.812     2.105
    45   1 H        0.924     0.092     1.859     2.132
    46   1 H        0.924     0.096     1.818     2.108
    47   1 H        0.924     0.111     1.692     2.034
    48   1 H        0.923     0.062     2.178     2.308
    49   1 H        0.923     0.081     1.972     2.196
    50   1 H        0.924     0.079     1.987     2.205
    51   1 H        0.924     0.039     2.466     2.456
    52   1 H        0.924     0.037     2.487     2.466
    53   1 H        0.924     0.055     2.261     2.352
    54   1 H        0.924     0.050     2.319     2.381
    55   1 H        0.924     0.041     2.441     2.443
    56   1 H        0.924     0.047     2.355     2.400
    57   1 H        0.924     0.030     2.591     2.517
    58   1 H        0.925     0.043     2.414     2.430
    59   1 H        0.925     0.045     2.381     2.413
    60   1 H        0.925     0.025     2.656     2.549
    61   1 H        0.925     0.099     1.797     2.097
    62   1 H        0.925     0.103     1.754     2.071
    63   1 H        0.925     0.118     1.629     1.996
    64   1 H        0.925     0.098     1.802     2.099
    65   1 H        0.925     0.102     1.771     2.081
    66   1 H        0.925     0.106     1.729     2.056

Wiberg/Mayer (AO) data.
largest (>0.10) Wiberg bond orders for each atom

     #   Z sym  total        # sym  WBO       # sym  WBO       # sym  WBO
 ---------------------------------------------------------------------------
     1   6 C    3.996 --     2 C    1.021    27 H    0.988    26 H    0.987
                            25 H    0.986
     2   6 C    3.996 --     1 C    1.021     3 C    1.007    29 H    0.978
                            28 H    0.975
     3   6 C    3.998 --     4 C    1.007     2 C    1.007    31 H    0.978
                            30 H    0.969
     4   6 C    3.997 --     5 C    1.008     3 C    1.007    33 H    0.974
                            32 H    0.973
     5   6 C    3.996 --     4 C    1.008     6 C    1.007    34 H    0.977
                            35 H    0.974
     6   6 C    3.995 --     7 C    1.008     5 C    1.007    36 H    0.976
                            37 H    0.972
     7   6 C    3.997 --     6 C    1.008     8 C    1.008    39 H    0.976
                            38 H    0.969
     8   6 C    3.991 --     7 C    1.008     9 C    0.978    40 H    0.975
                            41 H    0.974
     9   6 C    3.989 --    10 C    0.987     8 C    0.978    43 H    0.969
                            42 H    0.955
    10   6 C    3.904 --    11 O    1.774    12 O    1.078     9 C    0.987
    11   8 O    2.055 --    10 C    1.774    12 O    0.158
    12   8 O    2.276 --    10 C    1.078    13 C    0.966    11 O    0.158
    13   6 C    3.936 --    14 C    1.001    12 O    0.966    44 H    0.958
                            45 H    0.956
    14   6 C    3.926 --    13 C    1.001    46 H    0.966    47 H    0.955
                            15 N    0.925
    15   7 N    3.806 --    24 C    0.957    23 C    0.952    14 C    0.925
                            16 C    0.922
    16   6 C    3.928 --    17 O    1.028    48 H    0.955    49 H    0.950
                            15 N    0.922
    17   8 O    2.083 --    16 C    1.028    18 C    0.933
    18   6 C    3.915 --    19 C    1.001    51 H    0.969    50 H    0.965
                            17 O    0.933
    19   6 C    3.993 --    20 C    1.003    18 C    1.001    52 H    0.974
                            53 H    0.972
    20   6 C    3.993 --    21 C    1.008    19 C    1.003    55 H    0.977
                            54 H    0.975
    21   6 C    3.996 --    22 C    1.020    20 C    1.008    57 H    0.978
                            56 H    0.976
    22   6 C    3.996 --    21 C    1.020    58 H    0.987    60 H    0.986
                            59 H    0.986
    23   6 C    3.917 --    61 H    0.974    62 H    0.974    63 H    0.969
                            15 N    0.952
    24   6 C    3.923 --    65 H    0.974    66 H    0.974    64 H    0.971
                            15 N    0.957
    25   1 H    0.999 --     1 C    0.986
    26   1 H    0.998 --     1 C    0.987
    27   1 H    0.999 --     1 C    0.988
    28   1 H    0.998 --     2 C    0.975
    29   1 H    0.999 --     2 C    0.978
    30   1 H    0.999 --     3 C    0.969
    31   1 H    1.000 --     3 C    0.978
    32   1 H    1.000 --     4 C    0.973
    33   1 H    0.998 --     4 C    0.974
    34   1 H    0.999 --     5 C    0.977
    35   1 H    0.997 --     5 C    0.974
    36   1 H    0.998 --     6 C    0.976
    37   1 H    0.997 --     6 C    0.972
    38   1 H    1.000 --     7 C    0.969
    39   1 H    0.999 --     7 C    0.976
    40   1 H    0.998 --     8 C    0.975
    41   1 H    0.996 --     8 C    0.974
    42   1 H    0.994 --     9 C    0.955
    43   1 H    0.993 --     9 C    0.969
    44   1 H    0.991 --    13 C    0.958
    45   1 H    0.991 --    13 C    0.956
    46   1 H    0.991 --    14 C    0.966
    47   1 H    0.988 --    14 C    0.955
    48   1 H    0.996 --    16 C    0.955
    49   1 H    0.993 --    16 C    0.950
    50   1 H    0.993 --    18 C    0.965
    51   1 H    0.998 --    18 C    0.969
    52   1 H    0.999 --    19 C    0.974
    53   1 H    0.997 --    19 C    0.972
    54   1 H    0.997 --    20 C    0.975
    55   1 H    0.998 --    20 C    0.977
    56   1 H    0.998 --    21 C    0.976
    57   1 H    0.999 --    21 C    0.978
    58   1 H    0.998 --    22 C    0.987
    59   1 H    0.998 --    22 C    0.986
    60   1 H    0.999 --    22 C    0.986
    61   1 H    0.990 --    23 C    0.974
    62   1 H    0.989 --    23 C    0.974
    63   1 H    0.986 --    23 C    0.969
    64   1 H    0.990 --    24 C    0.971
    65   1 H    0.989 --    24 C    0.974
    66   1 H    0.988 --    24 C    0.974
 ---------------------------------------------------------------------------

molecular dipole:
                 x           y           z       tot (Debye)
 q only:       -4.310      -8.000     -13.086
   full:       -4.235      -8.139     -13.057      40.561

           -------------------------------------------------
          | TOTAL ENERGY              -79.002366301856 Eh   |
          | GRADIENT NORM               0.000184828482 Eh/α |
          | HOMO-LUMO GAP               3.929390040550 eV   |
           -------------------------------------------------

 * finished run on 2024/12/20 at 02:08:14.451
