   * xtb version 6.7.1 (edcfbbe) compiled by 'conda@3ef47c1a292c' on 2024-11-25

   ID    Z sym.   atoms
    1    6 C      1, 3, 4, 6-8, 10-15
    2    7 N      2, 5
    3    8 O      9
    4   17 Cl     16, 17
    5    1 H      18-28

          program call               : xtb C0153.xyz --opt --namespace C0153 --charge +1
          :  Hamiltonian                  GFN2-xTB          :
 * total energy  :   -49.9247110 Eh     change       -0.2968250E-08 Eh
 * total energy  :   -49.9307179 Eh     change       -0.6006972E-02 Eh
 * total energy  :   -49.9323664 Eh     change       -0.1648484E-02 Eh
 * total energy  :   -49.9326246 Eh     change       -0.2581636E-03 Eh
 * total energy  :   -49.9327878 Eh     change       -0.1631745E-03 Eh
 * total energy  :   -49.9328906 Eh     change       -0.1027961E-03 Eh
 * total energy  :   -49.9330621 Eh     change       -0.1715806E-03 Eh
 * total energy  :   -49.9333037 Eh     change       -0.2415451E-03 Eh
 * total energy  :   -49.9335677 Eh     change       -0.2639780E-03 Eh
 * total energy  :   -49.9338463 Eh     change       -0.2786153E-03 Eh
 * total energy  :   -49.9377968 Eh     change       -0.6739959E-04 Eh
 * total energy  :   -49.9378336 Eh     change       -0.3686686E-04 Eh
 * total energy  :   -49.9378677 Eh     change       -0.3406179E-04 Eh
 * total energy  :   -49.9378910 Eh     change       -0.2329674E-04 Eh
 * total energy  :   -49.9379045 Eh     change       -0.1352884E-04 Eh
 * total energy  :   -49.9379127 Eh     change       -0.8139591E-05 Eh
 * total energy  :   -49.9379177 Eh     change       -0.5025753E-05 Eh
 * total energy  :   -49.9379206 Eh     change       -0.2849466E-05 Eh
 * total energy  :   -49.9379228 Eh     change       -0.2223529E-05 Eh
   *** GEOMETRY OPTIMIZATION CONVERGED AFTER 41 ITERATIONS ***

 final structure:
================
28
 xtb: 6.7.1 (edcfbbe)
C            1.36189057955726       -0.66736099379883        2.16915338309986
N            0.67211854403393       -1.25743803977626        1.05437507939503
C           -0.34377126035592       -0.67531327172055        0.35673061275503
C           -0.71939927327078       -1.54748863536089       -0.61733365955798
N            0.06234503525609       -2.65716733857025       -0.49006091122342
C            0.90718907727645       -2.45148371629826        0.52126582204429
C            0.16197413754887       -3.75010363639781       -1.41237294706443
C            1.58991896274502       -3.73117869366818       -2.03184967071052
O            2.41757663449006       -2.99920461620642       -1.53979962050770
C            1.83681193156364       -4.61806731725254       -3.16268250902890
C            3.09191901395748       -4.53971513143213       -3.78250543823383
C            3.40066988761107       -5.35117141130733       -4.85071703951748
C            2.46754674773599       -6.26842099719305       -5.32641162736989
C            1.21080783030001       -6.35916635934894       -4.70881382057437
C            0.89896384002484       -5.53999667927991       -3.64018880860972
Cl           0.05170637992173       -7.49184470479729       -5.27870597717520
Cl           2.84988517746489       -7.27721826191568       -6.64791533396912
H            0.69135774322821       -0.57929690619313        3.02539988109591
H            1.71578069802602        0.32832233486086        1.90175600413333
H            2.21384468066688       -1.28468394056829        2.44449181997155
H           -0.72047828324677        0.29919937173172        0.59189016919851
H           -1.47558206558268       -1.45490630372183       -1.36974370834195
H            1.64998635868484       -3.14664695208168        0.86000266618454
H            0.02650019017949       -4.70506695484538       -0.89684739794707
H           -0.59731456052568       -3.64069294228292       -2.18623845897263
H            3.81018291044308       -3.82707280271486       -3.40702646104204
H            4.36566348674256       -5.28671146168034       -5.32720255081414
H           -0.07354440447341       -5.64911363818620       -3.18853949721181

          :  Hamiltonian                  GFN2-xTB          :
         :: total energy             -49.937922778024 Eh    ::
         :: gradient norm              0.000724218075 Eh/a0 ::
         :: HOMO-LUMO gap              2.223161185410 eV    ::
         :: SCC energy               -50.579791685619 Eh    ::
         :: -> dispersion             -0.028655596178 Eh    ::
         :: repulsion energy           0.641868907595 Eh    ::

    * Orbital Energies and Occupations

         #    Occupation            Energy/Eh            Energy/eV
      -------------------------------------------------------------
         1        2.0000           -1.1545633             -31.4173
       ...           ...                  ...                  ...
        32        2.0000           -0.6178334             -16.8121
        33        2.0000           -0.6112081             -16.6318
        34        2.0000           -0.6032030             -16.4140
        35        2.0000           -0.5834881             -15.8775
        36        2.0000           -0.5784785             -15.7412
        37        2.0000           -0.5706596             -15.5284
        38        2.0000           -0.5645840             -15.3631
        39        2.0000           -0.5642874             -15.3550
        40        2.0000           -0.5442495             -14.8098
        41        2.0000           -0.5223764             -14.2146
        42        2.0000           -0.5208212             -14.1723
        43        2.0000           -0.5190840             -14.1250
        44        2.0000           -0.5022372             -13.6666 (HOMO)
        45                         -0.4205376             -11.4434 (LUMO)
        46                         -0.3985884             -10.8461
        47                         -0.3655492              -9.9471
        48                         -0.3590539              -9.7704
        49                         -0.3306590              -8.9977
        50                         -0.2447050              -6.6588
        51                         -0.2283453              -6.2136
        52                         -0.2268005              -6.1716
        53                         -0.1764235              -4.8007
        54                         -0.1260866              -3.4310
        55                         -0.0941158              -2.5610
       ...                                ...                  ...
        89                          0.5306918              14.4409
      -------------------------------------------------------------
                  HL-Gap            0.0816997 Eh            2.2232 eV

     #   Z          covCN         q      C6AA      α(0)
     1   6 C        3.693    -0.087    22.351     6.765
     2   7 N        2.867     0.081    19.834     6.615
     3   6 C        3.071    -0.008    28.153     8.700
     4   6 C        3.066    -0.008    28.145     8.699
     5   7 N        2.872     0.075    19.929     6.630
     6   6 C        3.095     0.056    26.625     8.457
     7   6 C        3.743    -0.055    21.638     6.636
     8   6 C        2.823     0.229    23.191     7.891
     9   8 O        0.857    -0.350    20.708     6.101
    10   6 C        2.969    -0.017    28.427     8.746
    11   6 C        2.926    -0.014    28.360     8.733
    12   6 C        2.954    -0.031    28.783     8.800
    13   6 C        2.916     0.105    25.677     8.309
    14   6 C        2.916     0.096    25.877     8.342
    15   6 C        2.959    -0.042    29.049     8.840
    16  17 Cl       0.993    -0.102   102.338    15.477
    17  17 Cl       0.994    -0.064   101.165    15.388
    18   1 H        0.924     0.105     1.739     2.062
    19   1 H        0.925     0.109     1.709     2.044
    20   1 H        0.925     0.102     1.770     2.081
    21   1 H        0.926     0.110     1.695     2.036
    22   1 H        0.926     0.105     1.736     2.060
    23   1 H        0.926     0.123     1.589     1.971
    24   1 H        0.924     0.106     1.734     2.059
    25   1 H        0.925     0.106     1.733     2.058
    26   1 H        0.926     0.096     1.820     2.110
    27   1 H        0.926     0.098     1.804     2.100
    28   1 H        0.926     0.077     2.015     2.220

Wiberg/Mayer (AO) data.
largest (>0.10) Wiberg bond orders for each atom

     #   Z sym  total        # sym  WBO       # sym  WBO       # sym  WBO
 ---------------------------------------------------------------------------
     1   6 C    3.933 --     2 N    0.991    20 H    0.975    19 H    0.964
                            18 H    0.961
     2   7 N    3.720 --     6 C    1.365     3 C    1.221     1 C    0.991
     3   6 C    3.948 --     4 C    1.601     2 N    1.221    21 H    0.961
     4   6 C    3.947 --     3 C    1.601     5 N    1.215    22 H    0.961
     5   7 N    3.710 --     6 C    1.342     4 C    1.215     7 C    0.997
     6   6 C    3.945 --     2 N    1.365     5 N    1.342    23 H    0.952
     7   6 C    3.947 --     5 N    0.997    25 H    0.955    24 H    0.941
                             8 C    0.923
     8   6 C    3.925 --     9 O    1.802    10 C    1.085     7 C    0.923
     9   8 O    2.092 --     8 C    1.802
    10   6 C    3.983 --    15 C    1.346    11 C    1.336     8 C    1.085
    11   6 C    3.982 --    12 C    1.473    10 C    1.336    26 H    0.960
    12   6 C    3.982 --    11 C    1.473    13 C    1.375    27 H    0.959
    13   6 C    3.936 --    12 C    1.375    14 C    1.316    17 Cl   1.057
    14   6 C    3.937 --    15 C    1.437    13 C    1.316    16 Cl   1.023
    15   6 C    3.986 --    14 C    1.437    10 C    1.346    28 H    0.960
    16  17 Cl   1.184 --    14 C    1.023
    17  17 Cl   1.230 --    13 C    1.057
    18   1 H    0.988 --     1 C    0.961
    19   1 H    0.988 --     1 C    0.964
    20   1 H    0.989 --     1 C    0.975
    21   1 H    0.988 --     3 C    0.961
    22   1 H    0.989 --     4 C    0.961
    23   1 H    0.985 --     6 C    0.952
    24   1 H    0.988 --     7 C    0.941
    25   1 H    0.988 --     7 C    0.955
    26   1 H    0.990 --    11 C    0.960
    27   1 H    0.990 --    12 C    0.959
    28   1 H    0.994 --    15 C    0.960
 ---------------------------------------------------------------------------

molecular dipole:
                 x           y           z       tot (Debye)
 q only:        1.243      -4.386      -0.400
   full:        0.995      -4.999      -0.872      13.144

           -------------------------------------------------
          | TOTAL ENERGY              -49.937922778024 Eh   |
          | GRADIENT NORM               0.000724218075 Eh/α |
          | HOMO-LUMO GAP               2.223161185410 eV   |
           -------------------------------------------------

 * finished run on 2024/12/20 at 02:08:16.606
