   * xtb version 6.7.1 (edcfbbe) compiled by 'conda@3ef47c1a292c' on 2024-11-25

   ID    Z sym.   atoms
    1    6 C      1-3, 5-8, 10-15
    2    7 N      4
    3    8 O      9
    4    1 H      16-29

          program call               : xtb C0152.xyz --opt --namespace C0152 --charge +1
          :  Hamiltonian                  GFN2-xTB          :
 * total energy  :   -41.5328413 Eh     change       -0.2537135E-09 Eh
 * total energy  :   -41.5368149 Eh     change       -0.3973646E-02 Eh
 * total energy  :   -41.5378233 Eh     change       -0.1008386E-02 Eh
 * total energy  :   -41.5381683 Eh     change       -0.3449675E-03 Eh
 * total energy  :   -41.5385782 Eh     change       -0.4099066E-03 Eh
 * total energy  :   -41.5388743 Eh     change       -0.2961073E-03 Eh
 * total energy  :   -41.5391388 Eh     change       -0.2645173E-03 Eh
 * total energy  :   -41.5393056 Eh     change       -0.1667965E-03 Eh
 * total energy  :   -41.5393694 Eh     change       -0.6374770E-04 Eh
 * total energy  :   -41.5394098 Eh     change       -0.4044909E-04 Eh
 * total energy  :   -41.5401367 Eh     change       -0.2751204E-04 Eh
 * total energy  :   -41.5401623 Eh     change       -0.2557820E-04 Eh
 * total energy  :   -41.5401838 Eh     change       -0.2155422E-04 Eh
 * total energy  :   -41.5402015 Eh     change       -0.1769489E-04 Eh
 * total energy  :   -41.5402163 Eh     change       -0.1483513E-04 Eh
 * total energy  :   -41.5402297 Eh     change       -0.1333757E-04 Eh
 * total energy  :   -41.5402428 Eh     change       -0.1307204E-04 Eh
 * total energy  :   -41.5402561 Eh     change       -0.1337981E-04 Eh
 * total energy  :   -41.5402603 Eh     change       -0.4191467E-05 Eh
   *** GEOMETRY OPTIMIZATION CONVERGED AFTER 44 ITERATIONS ***

 final structure:
================
29
 xtb: 6.7.1 (edcfbbe)
C           -0.59614374468409       -1.80621271585278        1.26647132314683
C           -0.17520433841489       -0.56988128467566        1.73514008204126
C            0.97441560314508       -0.00490506284937        1.21863340154574
N            1.67883356150111       -0.62959869103217        0.26721856419454
C            1.28967391434363       -1.82236367481700       -0.19919697715940
C            0.15992112923749       -2.44316982973641        0.28825557639698
C            2.78255320067127        0.07576709274922       -0.35230814587598
C            2.20803218167487        1.05533390229890       -1.39249543078927
O            1.31792417159339        1.88999070349208       -0.70048097205964
C            0.44653098952484        2.69270690974014       -1.42022615745713
C           -0.53757835561511        3.32500671368035       -0.66750492012420
C           -1.45377193501544        4.15042154310942       -1.28837331419130
C           -1.39976198421917        4.34380868101973       -2.65979348792596
C           -0.41739185873029        3.71552001866155       -3.40182880489550
C            0.51260606797679        2.88831233931034       -2.79014479806561
H           -1.49131859078494       -2.26684928515749        1.65381839397048
H           -0.73025719954873       -0.04454579840416        2.49568118927409
H            1.33807368741831        0.95422493471394        1.55389850480842
H            1.89635038863670       -2.27596833284417       -0.96941144086846
H           -0.12803027921292       -3.40777651775260       -0.09788147221366
H            3.31965858969390        0.64453052893801        0.40883847797791
H            3.46270712400629       -0.62619464707600       -0.83433573305105
H            3.03475455633726        1.62438129631488       -1.83578440276591
H            1.68829732818801        0.50050825867236       -2.18664644316865
H           -0.56229908130124        3.16603542395416        0.39932951998872
H           -2.21214035554369        4.64219870133582       -0.69958420036677
H           -2.11729291569903        4.98595360596913       -3.14487246400706
H           -0.36268636410761        3.86772618012262       -4.46849558613269
H            1.28077450893154        2.42340900611725       -3.38834028222826

          :  Hamiltonian                  GFN2-xTB          :
         :: total energy             -41.540260327555 Eh    ::
         :: gradient norm              0.000204447941 Eh/a0 ::
         :: HOMO-LUMO gap              0.842130070687 eV    ::
         :: SCC energy               -42.227093131549 Eh    ::
         :: -> dispersion             -0.025397949991 Eh    ::
         :: repulsion energy           0.686832803994 Eh    ::

    * Orbital Energies and Occupations

         #    Occupation            Energy/Eh            Energy/eV
      -------------------------------------------------------------
         1        2.0000           -0.8800322             -23.9469
       ...           ...                  ...                  ...
        26        2.0000           -0.6216511             -16.9160
        27        2.0000           -0.6144575             -16.7202
        28        2.0000           -0.6140023             -16.7079
        29        2.0000           -0.6087606             -16.5652
        30        2.0000           -0.6006001             -16.3432
        31        2.0000           -0.5847483             -15.9118
        32        2.0000           -0.5794143             -15.7667
        33        2.0000           -0.5767018             -15.6929
        34        2.0000           -0.5578924             -15.1810
        35        2.0000           -0.5298458             -14.4178
        36        2.0000           -0.5202551             -14.1569
        37        2.0000           -0.5041926             -13.7198
        38        2.0000           -0.4890667             -13.3082 (HOMO)
        39        0.0000           -0.4581190             -12.4661 (LUMO)
        40                         -0.4265778             -11.6078
        41                         -0.3226721              -8.7804
        42                         -0.3159333              -8.5970
        43                         -0.3066939              -8.3456
        44                         -0.1889338              -5.1411
        45                         -0.1739647              -4.7338
        46                         -0.1182200              -3.2169
        47                         -0.0741199              -2.0169
        48                         -0.0696132              -1.8943
        49                         -0.0388095              -1.0561
       ...                                ...                  ...
        74                          0.5735632              15.6074
      -------------------------------------------------------------
                  HL-Gap            0.0309477 Eh            0.8421 eV

     #   Z          covCN         q      C6AA      α(0)
     1   6 C        2.924     0.014    27.697     8.631
     2   6 C        2.916    -0.008    28.228     8.712
     3   6 C        2.893     0.040    27.100     8.535
     4   7 N        2.752     0.118    19.214     6.510
     5   6 C        2.889     0.031    27.308     8.568
     6   6 C        2.915    -0.010    28.272     8.719
     7   6 C        3.761    -0.040    21.339     6.585
     8   6 C        3.691     0.079    19.436     6.309
     9   8 O        1.705    -0.298    18.963     5.880
    10   6 C        2.863     0.131    25.124     8.216
    11   6 C        2.920    -0.052    29.291     8.875
    12   6 C        2.921    -0.023    28.589     8.768
    13   6 C        2.919    -0.031    28.769     8.796
    14   6 C        2.923    -0.024    28.606     8.771
    15   6 C        2.917    -0.062    29.553     8.915
    16   1 H        0.926     0.108     1.715     2.048
    17   1 H        0.926     0.110     1.701     2.039
    18   1 H        0.926     0.126     1.563     1.955
    19   1 H        0.926     0.107     1.724     2.054
    20   1 H        0.926     0.109     1.709     2.044
    21   1 H        0.924     0.110     1.693     2.035
    22   1 H        0.925     0.097     1.813     2.106
    23   1 H        0.924     0.074     2.037     2.232
    24   1 H        0.923     0.050     2.322     2.383
    25   1 H        0.926     0.043     2.404     2.425
    26   1 H        0.926     0.055     2.259     2.350
    27   1 H        0.926     0.056     2.242     2.342
    28   1 H        0.926     0.054     2.268     2.355
    29   1 H        0.926     0.036     2.499     2.472

Wiberg/Mayer (AO) data.
largest (>0.10) Wiberg bond orders for each atom

     #   Z sym  total        # sym  WBO       # sym  WBO       # sym  WBO
 ---------------------------------------------------------------------------
     1   6 C    3.967 --     2 C    1.432     6 C    1.411    16 H    0.961
     2   6 C    3.981 --     3 C    1.451     1 C    1.432    17 H    0.959
     3   6 C    3.949 --     2 C    1.451     4 N    1.321    18 H    0.950
     4   7 N    3.767 --     3 C    1.321     5 C    1.320     7 C    0.975
     5   6 C    3.957 --     6 C    1.471     4 N    1.320    19 H    0.955
     6   6 C    3.979 --     5 C    1.471     1 C    1.411    20 H    0.959
     7   6 C    3.942 --     4 N    0.975     8 C    0.970    22 H    0.965
                            21 H    0.958
     8   6 C    3.955 --     9 O    0.996     7 C    0.970    24 H    0.964
                            23 H    0.956
     9   8 O    2.183 --     8 C    0.996    10 C    0.991
    10   6 C    3.915 --    15 C    1.398    11 C    1.370     9 O    0.991
    11   6 C    3.987 --    12 C    1.459    10 C    1.370    25 H    0.968
                            14 C    0.113
    12   6 C    3.990 --    11 C    1.459    13 C    1.425    26 H    0.969
                            15 C    0.107
    13   6 C    3.988 --    14 C    1.450    12 C    1.425    27 H    0.969
    14   6 C    3.990 --    13 C    1.450    15 C    1.429    28 H    0.969
                            11 C    0.113
    15   6 C    3.987 --    14 C    1.429    10 C    1.398    29 H    0.966
                            12 C    0.107
    16   1 H    0.988 --     1 C    0.961
    17   1 H    0.988 --     2 C    0.959
    18   1 H    0.984 --     3 C    0.950
    19   1 H    0.989 --     5 C    0.955
    20   1 H    0.988 --     6 C    0.959
    21   1 H    0.987 --     7 C    0.958
    22   1 H    0.990 --     7 C    0.965
    23   1 H    0.992 --     8 C    0.956
    24   1 H    0.998 --     8 C    0.964
    25   1 H    0.998 --    11 C    0.968
    26   1 H    0.996 --    12 C    0.969
    27   1 H    0.997 --    13 C    0.969
    28   1 H    0.997 --    14 C    0.969
    29   1 H    0.999 --    15 C    0.966
 ---------------------------------------------------------------------------

molecular dipole:
                 x           y           z       tot (Debye)
 q only:        1.835      -1.030       0.176
   full:        1.996      -1.107       0.035       5.802

           -------------------------------------------------
          | TOTAL ENERGY              -41.540260327555 Eh   |
          | GRADIENT NORM               0.000204447941 Eh/α |
          | HOMO-LUMO GAP               0.842130070687 eV   |
           -------------------------------------------------

 * finished run on 2024/12/20 at 02:08:15.458
