   * xtb version 6.7.1 (edcfbbe) compiled by 'conda@3ef47c1a292c' on 2024-11-25

   ID    Z sym.   atoms
    1    6 C      1-14, 16-21
    2    7 N      15
    3    1 H      22-57

          program call               : xtb C0159.xyz --opt --namespace C0159 --charge +1
          :  Hamiltonian                  GFN2-xTB          :
 * total energy  :   -63.7392016 Eh     change       -0.8809309E-10 Eh
 * total energy  :   -63.7426359 Eh     change       -0.3434306E-02 Eh
 * total energy  :   -63.7432012 Eh     change       -0.5652943E-03 Eh
 * total energy  :   -63.7433214 Eh     change       -0.1202493E-03 Eh
 * total energy  :   -63.7434855 Eh     change       -0.1640721E-03 Eh
 * total energy  :   -63.7436388 Eh     change       -0.1532490E-03 Eh
 * total energy  :   -63.7438189 Eh     change       -0.1801837E-03 Eh
 * total energy  :   -63.7440221 Eh     change       -0.2031653E-03 Eh
 * total energy  :   -63.7441789 Eh     change       -0.1567668E-03 Eh
 * total energy  :   -63.7442873 Eh     change       -0.1084175E-03 Eh
 * total energy  :   -63.7450431 Eh     change       -0.2014477E-04 Eh
 * total energy  :   -63.7450557 Eh     change       -0.1259611E-04 Eh
 * total energy  :   -63.7450643 Eh     change       -0.8534705E-05 Eh
 * total energy  :   -63.7450719 Eh     change       -0.7601708E-05 Eh
 * total energy  :   -63.7450786 Eh     change       -0.6725250E-05 Eh
 * total energy  :   -63.7450842 Eh     change       -0.5579819E-05 Eh
 * total energy  :   -63.7450893 Eh     change       -0.5118112E-05 Eh
 * total energy  :   -63.7450944 Eh     change       -0.5112792E-05 Eh
 * total energy  :   -63.7450985 Eh     change       -0.4044683E-05 Eh
   *** GEOMETRY OPTIMIZATION CONVERGED AFTER 37 ITERATIONS ***

 final structure:
================
57
 xtb: 6.7.1 (edcfbbe)
C            1.10068573448087       -0.46987530622337        0.44732915262924
C            0.83371074492150        0.74403608140134        1.32942410749274
C            1.20234112097468        2.06909782131684        0.66024915653552
C            0.41541733724083        2.39092666493319       -0.61181603080951
C           -1.09997140134328        2.49272820008404       -0.42732481483665
C           -1.55987636649281        3.54856262051556        0.58011782821871
C           -1.10185279747789        4.97605125449476        0.27403053175896
C           -1.53663481274030        5.51452353568294       -1.09049019498410
C           -3.04941110771938        5.55528565039247       -1.31509890238267
C           -3.82281003280112        6.43638935005910       -0.33202332331099
C           -3.39445482003394        7.90614940811091       -0.30664687504385
C           -3.45381924286835        8.61720112988606       -1.66149643364246
C           -4.83604602689083        8.64296793726417       -2.31323367014932
C           -5.86800997958689        9.48866482554618       -1.55329713311750
N           -5.51525859925505       10.89493275172936       -1.61221212716601
C           -4.78120865865402       11.45163771173320       -0.64194293701673
C           -4.36243488276090       12.76040465306825       -0.72050625054248
C           -4.69691657953599       13.54276021586909       -1.82828842228778
C           -5.46716249293527       12.92789154211266       -2.82375961243804
C           -5.85277190085496       11.61735463727213       -2.69024650635726
C           -4.26713001529271       14.95288855489345       -1.95616036315876
H            0.44683668277410       -0.47690134136549       -0.42110260292697
H            0.92754791436608       -1.38640634904293        1.00655375874532
H            2.13247459427305       -0.46979451705526        0.10237495397481
H           -0.21689807219830        0.75547519483738        1.62516546543586
H            1.42620337735918        0.65158667808219        2.24307056511359
H            1.06687994841274        2.87561830934519        1.38405753058675
H            2.26400268666360        2.04282276401102        0.40154943216837
H            0.79446054982382        3.33113362196048       -1.01889828161041
H            0.61497646657598        1.61983664738132       -1.35805983089058
H           -1.54944165742778        2.70085722488227       -1.40117975280387
H           -1.48604611028936        1.52506919996453       -0.10198089917417
H           -2.65090362560340        3.52011451741010        0.63204670215578
H           -1.18941313612330        3.28102162372337        1.57123940710478
H           -1.47688785863841        5.63331411572732        1.06243525058407
H           -0.01230035948214        5.01721074343297        0.31994647283753
H           -1.12073953365966        6.51779253770579       -1.21282836245550
H           -1.09760391677252        4.89357548325316       -1.87265538150080
H           -3.23834321590945        5.89164373064879       -2.33758247041322
H           -3.44615487329353        4.54225730861865       -1.23897687388704
H           -4.88791066199096        6.36651124015031       -0.56768223446766
H           -3.69805241248166        6.03678761821775        0.67508520887532
H           -4.01707421724359        8.42813215198785        0.42587381050627
H           -2.36751651736673        7.96766735841630        0.05487286854418
H           -3.07861890451414        9.63932914244671       -1.54578361743215
H           -2.77461452817399        8.11107546863010       -2.34701106495498
H           -4.74608933243661        9.02626121710008       -3.33232247693590
H           -5.22427120038364        7.62759703354321       -2.37658717349769
H           -6.85394814762180        9.35523706717076       -2.00247592519906
H           -5.91307871852360        9.17354944886724       -0.51061896085081
H           -4.53889061015361       10.83554695293206        0.21096484964582
H           -3.77402605674305       13.17511887850006        0.08254357861216
H           -5.76176848139866       13.48174062169642       -3.70110028353849
H           -6.44527731099128       11.12348246263238       -3.44614858065979
H           -5.13456234692593       15.60090036124009       -2.07874835992813
H           -3.69936625062172       15.28025526119377       -1.09056965995806
H           -3.65460938364572       15.07754098161374       -2.84910424116066

          :  Hamiltonian                  GFN2-xTB          :
         :: total energy             -63.745098452297 Eh    ::
         :: gradient norm              0.000452987998 Eh/a0 ::
         :: HOMO-LUMO gap              0.432729482064 eV    ::
         :: SCC energy               -64.746305246104 Eh    ::
         :: -> dispersion             -0.048295906272 Eh    ::
         :: repulsion energy           1.001206793807 Eh    ::

    * Orbital Energies and Occupations

         #    Occupation            Energy/Eh            Energy/eV
      -------------------------------------------------------------
         1        2.0000           -0.8681169             -23.6227
       ...           ...                  ...                  ...
        48        2.0000           -0.5277524             -14.3609
        49        2.0000           -0.5222129             -14.2101
        50        2.0000           -0.5161407             -14.0449
        51        2.0000           -0.5111875             -13.9101
        52        2.0000           -0.5035833             -13.7032
        53        2.0000           -0.4993963             -13.5893
        54        2.0000           -0.4940273             -13.4432
        55        2.0000           -0.4841872             -13.1754
        56        2.0000           -0.4816857             -13.1073
        57        2.0000           -0.4777677             -13.0007
        58        2.0000           -0.4660434             -12.6817
        59        1.9999           -0.4613284             -12.5534
        60        1.9996           -0.4595221             -12.5042 (HOMO)
        61        0.0005           -0.4436196             -12.0715 (LUMO)
        62                         -0.4159958             -11.3198
        63                         -0.2975510              -8.0968
        64                         -0.1594893              -4.3399
        65                         -0.0763288              -2.0770
        66                         -0.0586846              -1.5969
        67                         -0.0441540              -1.2015
        68                         -0.0317268              -0.8633
        69                         -0.0233656              -0.6358
        70                         -0.0176081              -0.4791
        71                         -0.0097101              -0.2642
       ...                                ...                  ...
       120                          0.4475171              12.1776
      -------------------------------------------------------------
                  HL-Gap            0.0159025 Eh            0.4327 eV

     #   Z          covCN         q      C6AA      α(0)
     1   6 C        3.751    -0.102    22.512     6.766
     2   6 C        3.799    -0.052    21.513     6.604
     3   6 C        3.800    -0.057    21.604     6.618
     4   6 C        3.800    -0.057    21.604     6.618
     5   6 C        3.800    -0.057    21.600     6.617
     6   6 C        3.800    -0.057    21.606     6.618
     7   6 C        3.800    -0.057    21.607     6.618
     8   6 C        3.800    -0.058    21.624     6.621
     9   6 C        3.800    -0.060    21.661     6.627
    10   6 C        3.800    -0.061    21.678     6.629
    11   6 C        3.800    -0.061    21.671     6.628
    12   6 C        3.800    -0.065    21.751     6.640
    13   6 C        3.801    -0.069    21.814     6.650
    14   6 C        3.758    -0.033    21.222     6.568
    15   7 N        2.750     0.099    19.529     6.563
    16   6 C        2.889     0.032    27.286     8.564
    17   6 C        2.920    -0.028    28.699     8.785
    18   6 C        2.969     0.070    26.423     8.432
    19   6 C        2.921    -0.028    28.694     8.784
    20   6 C        2.891     0.029    27.352     8.575
    21   6 C        3.758    -0.133    23.114     6.854
    22   1 H        0.925     0.034     2.532     2.488
    23   1 H        0.925     0.033     2.542     2.494
    24   1 H        0.925     0.035     2.522     2.483
    25   1 H        0.924     0.030     2.588     2.516
    26   1 H        0.924     0.028     2.614     2.528
    27   1 H        0.924     0.027     2.628     2.535
    28   1 H        0.924     0.030     2.590     2.517
    29   1 H        0.924     0.026     2.644     2.543
    30   1 H        0.924     0.034     2.533     2.489
    31   1 H        0.924     0.025     2.653     2.547
    32   1 H        0.924     0.035     2.523     2.484
    33   1 H        0.924     0.025     2.657     2.549
    34   1 H        0.924     0.035     2.516     2.480
    35   1 H        0.924     0.023     2.681     2.561
    36   1 H        0.924     0.036     2.502     2.473
    37   1 H        0.924     0.022     2.697     2.568
    38   1 H        0.924     0.039     2.461     2.453
    39   1 H        0.924     0.024     2.679     2.560
    40   1 H        0.924     0.043     2.404     2.425
    41   1 H        0.924     0.024     2.674     2.557
    42   1 H        0.924     0.047     2.363     2.404
    43   1 H        0.924     0.017     2.786     2.610
    44   1 H        0.924     0.050     2.320     2.382
    45   1 H        0.924     0.021     2.714     2.576
    46   1 H        0.925     0.065     2.140     2.288
    47   1 H        0.924     0.048     2.340     2.392
    48   1 H        0.925     0.083     1.951     2.185
    49   1 H        0.924     0.085     1.932     2.174
    50   1 H        0.925     0.093     1.850     2.127
    51   1 H        0.926     0.106     1.731     2.057
    52   1 H        0.926     0.099     1.796     2.096
    53   1 H        0.926     0.100     1.788     2.091
    54   1 H        0.926     0.102     1.764     2.077
    55   1 H        0.925     0.100     1.788     2.091
    56   1 H        0.925     0.083     1.947     2.182
    57   1 H        0.925     0.100     1.781     2.087

Wiberg/Mayer (AO) data.
largest (>0.10) Wiberg bond orders for each atom

     #   Z sym  total        # sym  WBO       # sym  WBO       # sym  WBO
 ---------------------------------------------------------------------------
     1   6 C    3.997 --     2 C    1.020    24 H    0.988    23 H    0.987
                            22 H    0.986
     2   6 C    3.998 --     1 C    1.020     3 C    1.008    26 H    0.978
                            25 H    0.976
     3   6 C    3.997 --     2 C    1.008     4 C    1.008    28 H    0.977
                            27 H    0.976
     4   6 C    3.997 --     5 C    1.008     3 C    1.008    29 H    0.975
                            30 H    0.975
     5   6 C    3.997 --     4 C    1.008     6 C    1.008    31 H    0.975
                            32 H    0.975
     6   6 C    3.997 --     5 C    1.008     7 C    1.008    33 H    0.975
                            34 H    0.975
     7   6 C    3.997 --     8 C    1.008     6 C    1.008    35 H    0.975
                            36 H    0.974
     8   6 C    3.997 --     9 C    1.008     7 C    1.008    37 H    0.975
                            38 H    0.974
     9   6 C    3.996 --     8 C    1.008    10 C    1.008    39 H    0.975
                            40 H    0.973
    10   6 C    3.995 --     9 C    1.008    11 C    1.007    41 H    0.975
                            42 H    0.973
    11   6 C    3.995 --    12 C    1.007    10 C    1.007    43 H    0.973
                            44 H    0.973
    12   6 C    3.993 --    13 C    1.009    11 C    1.007    45 H    0.972
                            46 H    0.966
    13   6 C    3.980 --    12 C    1.009    14 C    0.975    47 H    0.974
                            48 H    0.961
    14   6 C    3.934 --    13 C    0.975    15 N    0.965    49 H    0.963
                            50 H    0.960
    15   7 N    3.755 --    16 C    1.316    20 C    1.303    14 C    0.965
    16   6 C    3.959 --    17 C    1.479    15 N    1.316    51 H    0.953
    17   6 C    3.984 --    16 C    1.479    18 C    1.373    52 H    0.959
    18   6 C    3.969 --    17 C    1.373    19 C    1.355    21 C    1.063
    19   6 C    3.984 --    20 C    1.502    18 C    1.355    53 H    0.960
    20   6 C    3.960 --    19 C    1.502    15 N    1.303    54 H    0.955
    21   6 C    3.983 --    18 C    1.063    56 H    0.979    55 H    0.944
                            57 H    0.942
    22   1 H    0.999 --     1 C    0.986
    23   1 H    0.999 --     1 C    0.987
    24   1 H    0.999 --     1 C    0.988
    25   1 H    0.999 --     2 C    0.976
    26   1 H    0.999 --     2 C    0.978
    27   1 H    0.999 --     3 C    0.976
    28   1 H    0.999 --     3 C    0.977
    29   1 H    0.999 --     4 C    0.975
    30   1 H    0.999 --     4 C    0.975
    31   1 H    0.999 --     5 C    0.975
    32   1 H    0.999 --     5 C    0.975
    33   1 H    0.999 --     6 C    0.975
    34   1 H    0.999 --     6 C    0.975
    35   1 H    0.999 --     7 C    0.975
    36   1 H    0.999 --     7 C    0.974
    37   1 H    0.999 --     8 C    0.975
    38   1 H    0.998 --     8 C    0.974
    39   1 H    0.999 --     9 C    0.975
    40   1 H    0.998 --     9 C    0.973
    41   1 H    0.999 --    10 C    0.975
    42   1 H    0.998 --    10 C    0.973
    43   1 H    1.000 --    11 C    0.973
    44   1 H    0.997 --    11 C    0.973
    45   1 H    0.999 --    12 C    0.972
    46   1 H    0.995 --    12 C    0.966
    47   1 H    0.998 --    13 C    0.974
    48   1 H    0.991 --    13 C    0.961
    49   1 H    0.992 --    14 C    0.963
    50   1 H    0.991 --    14 C    0.960
    51   1 H    0.988 --    16 C    0.953
    52   1 H    0.990 --    17 C    0.959
    53   1 H    0.990 --    19 C    0.960
    54   1 H    0.989 --    20 C    0.955
    55   1 H    0.989 --    21 C    0.944
    56   1 H    0.993 --    21 C    0.979
    57   1 H    0.989 --    21 C    0.942
 ---------------------------------------------------------------------------

molecular dipole:
                 x           y           z       tot (Debye)
 q only:       -9.350      21.527      -3.226
   full:       -9.457      21.568      -3.239      60.422

           -------------------------------------------------
          | TOTAL ENERGY              -63.745098452297 Eh   |
          | GRADIENT NORM               0.000452987998 Eh/α |
          | HOMO-LUMO GAP               0.432729482064 eV   |
           -------------------------------------------------

 * finished run on 2024/12/20 at 02:08:26.869
