   * xtb version 6.7.1 (edcfbbe) compiled by 'conda@3ef47c1a292c' on 2024-11-25

   ID    Z sym.   atoms
    1    6 C      1, 3, 5-11
    2    7 N      2, 4
    3    1 H      12-22

          program call               : xtb C0155.xyz --opt --namespace C0155 --charge +1
          :  Hamiltonian                  GFN2-xTB          :
 * total energy  :   -30.2299792 Eh     change       -0.1789946E-08 Eh
 * total energy  :   -30.2629899 Eh     change       -0.3301079E-01 Eh
 * total energy  :   -30.2648583 Eh     change       -0.1868399E-02 Eh
 * total energy  :   -30.2651130 Eh     change       -0.2546286E-03 Eh
 * total energy  :   -30.2652067 Eh     change       -0.9375945E-04 Eh
 * total energy  :   -30.2652646 Eh     change       -0.5786760E-04 Eh
 * total energy  :   -30.2652946 Eh     change       -0.3000814E-04 Eh
 * total energy  :   -30.2653195 Eh     change       -0.2491329E-04 Eh
 * total energy  :   -30.2653362 Eh     change       -0.1668523E-04 Eh
 * total energy  :   -30.2653542 Eh     change       -0.1798653E-04 Eh
 * total energy  :   -30.2654429 Eh     change       -0.4931158E-04 Eh
 * total energy  :   -30.2654746 Eh     change       -0.3168742E-04 Eh
 * total energy  :   -30.2655068 Eh     change       -0.3219066E-04 Eh
 * total energy  :   -30.2655371 Eh     change       -0.3034537E-04 Eh
 * total energy  :   -30.2655471 Eh     change       -0.1000229E-04 Eh
 * total energy  :   -30.2655475 Eh     change       -0.3376716E-06 Eh
 * total energy  :   -30.2655426 Eh     change        0.4915382E-05 Eh
 * total energy  :   -30.2655487 Eh     change       -0.6184521E-05 Eh
 * total energy  :   -30.2655496 Eh     change       -0.8126041E-06 Eh
   *** GEOMETRY OPTIMIZATION CONVERGED AFTER 22 ITERATIONS ***

 final structure:
================
22
 xtb: 6.7.1 (edcfbbe)
C            1.14571242520865        0.13741751430914        0.15902873067463
N            0.03356366617035        0.22849417728831        0.38724366166798
C            2.56391710879859        0.05122604134350       -0.15277902371278
N            3.05226581257352        1.30449157289558       -0.72312665196878
C            3.12920781507230        2.42929663793820        0.01966012124121
C            3.61850756177494        3.58890174374924       -0.58020632562212
C            3.99703410820596        3.60490249717959       -1.90732252890472
C            3.88391354070179        2.42926611669581       -2.64569806871102
C            3.41192384231014        1.30250812973759       -2.02129340036636
C            2.67063577047727        2.49558453389462        1.43702073766648
C            1.34444390927475        3.26928684499549        1.53386865243586
H            3.11996042873143       -0.20179654970153        0.75698027859950
H            2.70569750960350       -0.76041200283032       -0.87310506012610
H            3.69431625389693        4.48206758692397        0.02005309720469
H            4.37171949875533        4.50797952531411       -2.36269578837181
H            4.16170416603763        2.38982366796949       -3.68619154125534
H            3.31572226319848        0.37076283538707       -2.55877997676968
H            2.53520988707048        1.51719481030257        1.89175095282076
H            3.42347774841124        3.03575977374112        2.01571067960401
H            0.54845916576534        2.74939172423001        1.00791543413165
H            1.06146295206321        3.35419230059111        2.57848523265324
H            1.44204456589802        4.26950051804540        1.12217078710886

          :  Hamiltonian                  GFN2-xTB          :
         :: total energy             -30.265549562122 Eh    ::
         :: gradient norm              0.000408308046 Eh/a0 ::
         :: HOMO-LUMO gap              3.161949933698 eV    ::
         :: SCC energy               -30.813015650860 Eh    ::
         :: -> dispersion             -0.018099198845 Eh    ::
         :: repulsion energy           0.547466088739 Eh    ::

    * Orbital Energies and Occupations

         #    Occupation            Energy/Eh            Energy/eV
      -------------------------------------------------------------
         1        2.0000           -0.8904970             -24.2317
       ...           ...                  ...                  ...
        16        2.0000           -0.6856930             -18.6587
        17        2.0000           -0.6761053             -18.3978
        18        2.0000           -0.6583671             -17.9151
        19        2.0000           -0.6457043             -17.5705
        20        2.0000           -0.6400958             -17.4179
        21        2.0000           -0.6382308             -17.3671
        22        2.0000           -0.6314023             -17.1813
        23        2.0000           -0.6278572             -17.0849
        24        2.0000           -0.6264120             -17.0455
        25        2.0000           -0.6038192             -16.4308
        26        2.0000           -0.5943187             -16.1722
        27        2.0000           -0.5880796             -16.0025
        28        2.0000           -0.5824054             -15.8481 (HOMO)
        29                         -0.4662059             -12.6861 (LUMO)
        30                         -0.4336678             -11.8007
        31                         -0.3784373             -10.2978
        32                         -0.3643353              -9.9141
        33                         -0.3154166              -8.5829
        34                         -0.1823374              -4.9617
        35                         -0.1054707              -2.8700
        36                         -0.0662779              -1.8035
        37                         -0.0616906              -1.6787
        38                         -0.0522516              -1.4218
        39                         -0.0376102              -1.0234
       ...                                ...                  ...
        55                          0.9905165              26.9533
      -------------------------------------------------------------
                  HL-Gap            0.1161995 Eh            3.1619 eV

     #   Z          covCN         q      C6AA      α(0)
     1   6 C        1.895     0.113    28.317     8.594
     2   7 N        0.911    -0.140    24.040     7.091
     3   6 C        3.758    -0.018    20.942     6.524
     4   7 N        2.754     0.086    19.744     6.599
     5   6 C        2.925     0.090    25.992     8.361
     6   6 C        2.924    -0.022    28.543     8.761
     7   6 C        2.921     0.013    27.726     8.635
     8   6 C        2.916    -0.014    28.355     8.732
     9   6 C        2.886     0.031    27.310     8.568
    10   6 C        3.807    -0.074    21.907     6.663
    11   6 C        3.754    -0.116    22.783     6.806
    12   1 H        0.924     0.123     1.592     1.973
    13   1 H        0.924     0.121     1.608     1.983
    14   1 H        0.926     0.107     1.721     2.052
    15   1 H        0.926     0.109     1.709     2.044
    16   1 H        0.926     0.110     1.697     2.037
    17   1 H        0.926     0.105     1.743     2.065
    18   1 H        0.925     0.073     2.056     2.242
    19   1 H        0.924     0.093     1.850     2.127
    20   1 H        0.925     0.064     2.158     2.297
    21   1 H        0.925     0.084     1.935     2.175
    22   1 H        0.925     0.062     2.172     2.305

Wiberg/Mayer (AO) data.
largest (>0.10) Wiberg bond orders for each atom

     #   Z sym  total        # sym  WBO       # sym  WBO       # sym  WBO
 ---------------------------------------------------------------------------
     1   6 C    3.955 --     2 N    2.893     3 C    1.019
     2   7 N    3.043 --     1 C    2.893
     3   6 C    3.950 --     1 C    1.019     4 N    0.960    13 H    0.936
                            12 H    0.927
     4   7 N    3.739 --     9 C    1.292     5 C    1.291     3 C    0.960
     5   6 C    3.950 --     6 C    1.388     4 N    1.291    10 C    1.036
     6   6 C    3.983 --     7 C    1.467     5 C    1.388    14 H    0.957
                             9 C    0.101
     7   6 C    3.967 --     6 C    1.467     8 C    1.381    15 H    0.960
     8   6 C    3.980 --     9 C    1.498     7 C    1.381    16 H    0.958
     9   6 C    3.957 --     8 C    1.498     4 N    1.292    17 H    0.954
                             6 C    0.101
    10   6 C    3.982 --     5 C    1.036    11 C    0.970    18 H    0.964
                            19 H    0.949
    11   6 C    3.979 --    22 H    0.985    20 H    0.984    21 H    0.976
                            10 C    0.970
    12   1 H    0.985 --     3 C    0.927
    13   1 H    0.985 --     3 C    0.936
    14   1 H    0.988 --     6 C    0.957
    15   1 H    0.987 --     7 C    0.960
    16   1 H    0.987 --     8 C    0.958
    17   1 H    0.989 --     9 C    0.954
    18   1 H    0.994 --    10 C    0.964
    19   1 H    0.991 --    10 C    0.949
    20   1 H    0.996 --    11 C    0.984
    21   1 H    0.991 --    11 C    0.976
    22   1 H    0.996 --    11 C    0.985
 ---------------------------------------------------------------------------

molecular dipole:
                 x           y           z       tot (Debye)
 q only:        6.423       3.775      -1.286
   full:        6.957       3.646      -1.463      20.308

           -------------------------------------------------
          | TOTAL ENERGY              -30.265549562122 Eh   |
          | GRADIENT NORM               0.000408308046 Eh/α |
          | HOMO-LUMO GAP               3.161949933698 eV   |
           -------------------------------------------------

 * finished run on 2024/12/20 at 02:08:18.355
