   * xtb version 6.7.1 (edcfbbe) compiled by 'conda@3ef47c1a292c' on 2024-11-25

   ID    Z sym.   atoms
    1    6 C      1, 3-5, 7-13
    2    7 N      2, 6
    3    1 H      14-28

          program call               : xtb C0156.xyz --opt --namespace C0156 --charge +1
          :  Hamiltonian                  GFN2-xTB          :
 * total energy  :   -36.5878760 Eh     change       -0.2101274E-08 Eh
 * total energy  :   -36.6206296 Eh     change       -0.3275354E-01 Eh
 * total energy  :   -36.6225982 Eh     change       -0.1968629E-02 Eh
 * total energy  :   -36.6230312 Eh     change       -0.4329928E-03 Eh
 * total energy  :   -36.6232371 Eh     change       -0.2059451E-03 Eh
 * total energy  :   -36.6234166 Eh     change       -0.1794990E-03 Eh
 * total energy  :   -36.6235701 Eh     change       -0.1534491E-03 Eh
 * total energy  :   -36.6237440 Eh     change       -0.1739094E-03 Eh
 * total energy  :   -36.6239288 Eh     change       -0.1847469E-03 Eh
 * total energy  :   -36.6240864 Eh     change       -0.1576087E-03 Eh
 * total energy  :   -36.6242275 Eh     change       -0.2380673E-04 Eh
 * total energy  :   -36.6242499 Eh     change       -0.2241284E-04 Eh
 * total energy  :   -36.6242659 Eh     change       -0.1600422E-04 Eh
 * total energy  :   -36.6243022 Eh     change       -0.3636137E-04 Eh
 * total energy  :   -36.6243284 Eh     change       -0.2615197E-04 Eh
 * total energy  :   -36.6243395 Eh     change       -0.1116261E-04 Eh
 * total energy  :   -36.6243460 Eh     change       -0.6466380E-05 Eh
 * total energy  :   -36.6243499 Eh     change       -0.3916119E-05 Eh
 * total energy  :   -36.6243538 Eh     change       -0.3845516E-05 Eh
   *** GEOMETRY OPTIMIZATION CONVERGED AFTER 21 ITERATIONS ***

 final structure:
================
28
 xtb: 6.7.1 (edcfbbe)
C            1.22239206789062       -0.29698561574480        0.24968672829611
N            0.12059870655279       -0.50496354588221        0.46848171590415
C            2.62500050600725       -0.01079795812468        0.07046427491376
C            2.99183297961796        1.37281142400315        0.62634954978251
C            2.49768744956132        1.61315694839377        2.06149225925035
N            3.06114814962261        0.66809035971168        3.01730044570862
C            4.24886606290475        0.89420198344063        3.61111010016067
C            4.74900267519342       -0.07210825166834        4.48037524145988
C            4.05284896570053       -1.23599546024870        4.73047221275119
C            2.81531607541687       -1.44727858896089        4.11226589760307
C            2.36366594381787       -0.45465994123264        3.26505418731322
C            2.01348373324002       -2.67403779155459        4.36105926752094
C            4.99608443851781        2.15685777282460        3.37082721778815
H            3.20059179632905       -0.80238500745369        0.56081735692052
H            2.85359870007772       -0.04549484772611       -0.99744076843853
H            4.07393460969403        1.49227419710790        0.56182214396741
H            2.53238333978451        2.14172811540229        0.00349051610747
H            2.75047741855487        2.62932781003641        2.36436533395658
H            1.41025286761171        1.51211693757259        2.08206121540507
H            5.69765302185704        0.10483108165685        4.96128250844601
H            4.45354746438767       -1.97793722907359        5.40351496126266
H            1.41036194902913       -0.55487993623733        2.76604154646841
H            2.63607681926021       -3.56135467417975        4.26622086009862
H            1.62376188416389       -2.66064583750452        5.37845607257200
H            1.17636182650599       -2.74912934436025        3.67304295731479
H            5.17756872342792        2.33521156855003        2.31340227422343
H            4.44374285020072        3.01156023546147        3.76382929198624
H            5.95558897507146        2.12191559579033        3.87829463125612

          :  Hamiltonian                  GFN2-xTB          :
         :: total energy             -36.624353774389 Eh    ::
         :: gradient norm              0.000816576569 Eh/a0 ::
         :: HOMO-LUMO gap              2.623387728585 eV    ::
         :: SCC energy               -37.266814012694 Eh    ::
         :: -> dispersion             -0.023795295547 Eh    ::
         :: repulsion energy           0.642460238304 Eh    ::

    * Orbital Energies and Occupations

         #    Occupation            Energy/Eh            Energy/eV
      -------------------------------------------------------------
         1        2.0000           -0.8707786             -23.6951
       ...           ...                  ...                  ...
        22        2.0000           -0.6429180             -17.4947
        23        2.0000           -0.6338091             -17.2468
        24        2.0000           -0.6274053             -17.0726
        25        2.0000           -0.6230372             -16.9537
        26        2.0000           -0.6170818             -16.7917
        27        2.0000           -0.6100392             -16.6000
        28        2.0000           -0.6065133             -16.5041
        29        2.0000           -0.6056920             -16.4817
        30        2.0000           -0.5975712             -16.2607
        31        2.0000           -0.5893007             -16.0357
        32        2.0000           -0.5830496             -15.8656
        33        2.0000           -0.5746612             -15.6373
        34        2.0000           -0.5439870             -14.8026 (HOMO)
        35                         -0.4475793             -12.1793 (LUMO)
        36                         -0.4116412             -11.2013
        37                         -0.3307554              -9.0003
        38                         -0.3251254              -8.8471
        39                         -0.2978450              -8.1048
        40                         -0.1775510              -4.8314
        41                         -0.0885220              -2.4088
        42                         -0.0823929              -2.2420
        43                         -0.0545901              -1.4855
        44                         -0.0432105              -1.1758
        45                         -0.0341563              -0.9294
       ...                                ...                  ...
        67                          1.0226642              27.8281
      -------------------------------------------------------------
                  HL-Gap            0.0964077 Eh            2.6234 eV

     #   Z          covCN         q      C6AA      α(0)
     1   6 C        1.897     0.110    28.381     8.604
     2   7 N        0.911    -0.215    25.694     7.331
     3   6 C        3.803    -0.061    21.676     6.628
     4   6 C        3.805    -0.061    21.664     6.626
     5   6 C        3.757    -0.034    21.228     6.569
     6   7 N        2.749     0.079    19.871     6.621
     7   6 C        2.924     0.084    26.119     8.381
     8   6 C        2.919    -0.030    28.742     8.792
     9   6 C        2.927    -0.005    28.154     8.702
    10   6 C        2.961     0.043    27.042     8.530
    11   6 C        2.896     0.012    27.742     8.636
    12   6 C        3.759    -0.133    23.106     6.853
    13   6 C        3.758    -0.137    23.185     6.865
    14   1 H        0.924     0.068     2.106     2.269
    15   1 H        0.924     0.098     1.806     2.102
    16   1 H        0.924     0.061     2.189     2.314
    17   1 H        0.924     0.083     1.953     2.185
    18   1 H        0.925     0.094     1.842     2.122
    19   1 H        0.924     0.095     1.835     2.118
    20   1 H        0.926     0.097     1.814     2.106
    21   1 H        0.926     0.098     1.803     2.100
    22   1 H        0.926     0.106     1.734     2.059
    23   1 H        0.925     0.091     1.870     2.139
    24   1 H        0.925     0.097     1.814     2.106
    25   1 H        0.925     0.080     1.981     2.201
    26   1 H        0.925     0.092     1.864     2.135
    27   1 H        0.924     0.096     1.822     2.111
    28   1 H        0.925     0.094     1.844     2.124

Wiberg/Mayer (AO) data.
largest (>0.10) Wiberg bond orders for each atom

     #   Z sym  total        # sym  WBO       # sym  WBO       # sym  WBO
 ---------------------------------------------------------------------------
     1   6 C    3.948 --     2 N    2.856     3 C    1.050
     2   7 N    3.016 --     1 C    2.856
     3   6 C    3.994 --     1 C    1.050     4 C    0.984    14 H    0.946
                            15 H    0.939
     4   6 C    3.987 --     5 C    0.986     3 C    0.984    16 H    0.971
                            17 H    0.967
     5   6 C    3.941 --     4 C    0.986     6 N    0.966    19 H    0.961
                            18 H    0.958
     6   7 N    3.742 --    11 C    1.301     7 C    1.298     5 C    0.966
     7   6 C    3.960 --     8 C    1.387     6 N    1.298    13 C    1.048
     8   6 C    3.985 --     9 C    1.474     7 C    1.387    20 H    0.960
     9   6 C    3.976 --     8 C    1.474    10 C    1.349    21 H    0.961
    10   6 C    3.982 --    11 C    1.439     9 C    1.349    12 C    1.044
    11   6 C    3.957 --    10 C    1.439     6 N    1.301    22 H    0.948
    12   6 C    3.982 --    10 C    1.044    25 H    0.979    23 H    0.960
                            24 H    0.947
    13   6 C    3.981 --     7 C    1.048    28 H    0.975    26 H    0.953
                            27 H    0.943
    14   1 H    0.995 --     3 C    0.946
    15   1 H    0.990 --     3 C    0.939
    16   1 H    0.996 --     4 C    0.971
    17   1 H    0.992 --     4 C    0.967
    18   1 H    0.991 --     5 C    0.958
    19   1 H    0.991 --     5 C    0.961
    20   1 H    0.990 --     8 C    0.960
    21   1 H    0.990 --     9 C    0.961
    22   1 H    0.988 --    11 C    0.948
    23   1 H    0.991 --    12 C    0.960
    24   1 H    0.990 --    12 C    0.947
    25   1 H    0.993 --    12 C    0.979
    26   1 H    0.991 --    13 C    0.953
    27   1 H    0.990 --    13 C    0.943
    28   1 H    0.991 --    13 C    0.975
 ---------------------------------------------------------------------------

molecular dipole:
                 x           y           z       tot (Debye)
 q only:        7.085       0.616       6.063
   full:        7.528       0.719       5.978      24.503

           -------------------------------------------------
          | TOTAL ENERGY              -36.624353774389 Eh   |
          | GRADIENT NORM               0.000816576569 Eh/α |
          | HOMO-LUMO GAP               2.623387728585 eV   |
           -------------------------------------------------

 * finished run on 2024/12/20 at 02:08:19.093
