   * xtb version 6.7.1 (edcfbbe) compiled by 'conda@3ef47c1a292c' on 2024-11-25

   ID    Z sym.   atoms
    1    6 C      1, 3, 4, 6-8
    2    7 N      2, 5
    3    1 H      9-19

          program call               : xtb C0160.xyz --opt --namespace C0160 --charge +1
          :  Hamiltonian                  GFN2-xTB          :
 * total energy  :   -23.9358033 Eh     change       -0.1902354E-08 Eh
 * total energy  :   -23.9390209 Eh     change       -0.3217614E-02 Eh
 * total energy  :   -23.9395923 Eh     change       -0.5714159E-03 Eh
 * total energy  :   -23.9396600 Eh     change       -0.6763000E-04 Eh
 * total energy  :   -23.9396910 Eh     change       -0.3106056E-04 Eh
 * total energy  :   -23.9396951 Eh     change       -0.4072349E-05 Eh
   *** GEOMETRY OPTIMIZATION CONVERGED AFTER 6 ITERATIONS ***

 final structure:
================
19
 xtb: 6.7.1 (edcfbbe)
C            0.90234183984902        0.00692016687291       -0.10506087428340
N            0.55980309681375        1.07361977273054       -1.01033413699333
C            0.79703966969895        2.39941185955606       -0.78633560177438
C            0.33409525662228        3.08319381820625       -1.86486225288423
N           -0.17886604068311        2.16575598153204       -2.73443263935786
C           -0.03363480448845        0.94489374223067       -2.20327709755491
C           -0.46625492505157       -0.30836363661305       -2.85014511142276
C           -0.78236858315188        2.45415635537773       -4.00760418155180
H            0.02869106077719       -0.60830817519751        0.11055547708336
H            1.26668577857051        0.43465879541282        0.82607963442498
H            1.68566175363083       -0.62197641841064       -0.53096744524926
H            1.26786421014376        2.75770632151050        0.10559608877513
H            0.33472826746848        4.13416959043607       -2.06744387598333
H           -1.55132088036984       -0.32698678796066       -2.95926783050043
H           -0.03721270918379       -0.38767697562047       -3.84898265662638
H           -0.16135093195559       -1.17483691361214       -2.27233487203368
H           -0.24274084647211        1.94862778039608       -4.80957461045107
H           -1.82077516686904        2.12020624815402       -4.02194951721061
H           -0.75373604534940        3.52648847499877       -4.18494849640604

          :  Hamiltonian                  GFN2-xTB          :
         :: total energy             -23.939695096400 Eh    ::
         :: gradient norm              0.000574342639 Eh/a0 ::
         :: HOMO-LUMO gap              4.730959331457 eV    ::
         :: SCC energy               -24.311038061674 Eh    ::
         :: -> dispersion             -0.012311744813 Eh    ::
         :: repulsion energy           0.371342965273 Eh    ::

    * Orbital Energies and Occupations

         #    Occupation            Energy/Eh            Energy/eV
      -------------------------------------------------------------
         1        2.0000           -0.8942333             -24.3333
       ...           ...                  ...                  ...
        10        2.0000           -0.7159235             -19.4813
        11        2.0000           -0.6969482             -18.9649
        12        2.0000           -0.6953984             -18.9228
        13        2.0000           -0.6784973             -18.4628
        14        2.0000           -0.6728464             -18.3091
        15        2.0000           -0.6559382             -17.8490
        16        2.0000           -0.6553014             -17.8317
        17        2.0000           -0.6422432             -17.4763
        18        2.0000           -0.6404302             -17.4270
        19        2.0000           -0.6369271             -17.3317
        20        2.0000           -0.6352292             -17.2855
        21        2.0000           -0.6013549             -16.3637
        22        2.0000           -0.5739512             -15.6180 (HOMO)
        23                         -0.4000917             -10.8870 (LUMO)
        24                         -0.3665227              -9.9736
        25                         -0.1868979              -5.0858
        26                         -0.1319367              -3.5902
        27                         -0.0661110              -1.7990
        28                         -0.0561658              -1.5284
        29                         -0.0390761              -1.0633
        30                         -0.0218140              -0.5936
        31                         -0.0032958              -0.0897
        32                          0.0100211               0.2727
        33                          0.0279048               0.7593
       ...                                ...                  ...
        43                          0.4700083              12.7896
      -------------------------------------------------------------
                  HL-Gap            0.1738596 Eh            4.7310 eV

     #   Z          covCN         q      C6AA      α(0)
     1   6 C        3.691    -0.082    22.254     6.751
     2   7 N        2.868     0.051    20.346     6.699
     3   6 C        3.053    -0.011    28.230     8.714
     4   6 C        3.047    -0.010    28.230     8.714
     5   7 N        2.871     0.050    20.361     6.702
     6   6 C        3.105     0.103    25.594     8.289
     7   6 C        3.754    -0.139    23.237     6.874
     8   6 C        3.692    -0.082    22.255     6.750
     9   1 H        0.925     0.098     1.800     2.098
    10   1 H        0.925     0.105     1.744     2.065
    11   1 H        0.924     0.099     1.795     2.095
    12   1 H        0.927     0.106     1.733     2.059
    13   1 H        0.927     0.106     1.732     2.058
    14   1 H        0.924     0.104     1.751     2.069
    15   1 H        0.925     0.103     1.762     2.076
    16   1 H        0.925     0.098     1.806     2.102
    17   1 H        0.924     0.098     1.800     2.098
    18   1 H        0.924     0.099     1.795     2.095
    19   1 H        0.925     0.105     1.743     2.065

Wiberg/Mayer (AO) data.
largest (>0.10) Wiberg bond orders for each atom

     #   Z sym  total        # sym  WBO       # sym  WBO       # sym  WBO
 ---------------------------------------------------------------------------
     1   6 C    3.936 --     2 N    0.990    10 H    0.974     9 H    0.966
                            11 H    0.964
     2   7 N    3.698 --     6 C    1.326     3 C    1.211     1 C    0.990
     3   6 C    3.948 --     4 C    1.605     2 N    1.211    12 H    0.961
     4   6 C    3.948 --     3 C    1.605     5 N    1.213    13 H    0.961
     5   7 N    3.698 --     6 C    1.323     4 C    1.213     8 C    0.992
     6   6 C    3.951 --     2 N    1.326     5 N    1.323     7 C    1.049
     7   6 C    3.976 --     6 C    1.049    16 H    0.972    15 H    0.951
                            14 H    0.947
     8   6 C    3.937 --     5 N    0.992    19 H    0.975    18 H    0.964
                            17 H    0.963
     9   1 H    0.990 --     1 C    0.966
    10   1 H    0.989 --     1 C    0.974
    11   1 H    0.990 --     1 C    0.964
    12   1 H    0.989 --     3 C    0.961
    13   1 H    0.988 --     4 C    0.961
    14   1 H    0.989 --     7 C    0.947
    15   1 H    0.989 --     7 C    0.951
    16   1 H    0.990 --     7 C    0.972
    17   1 H    0.990 --     8 C    0.963
    18   1 H    0.990 --     8 C    0.964
    19   1 H    0.989 --     8 C    0.975
 ---------------------------------------------------------------------------

molecular dipole:
                 x           y           z       tot (Debye)
 q only:        0.127       2.419      -3.875
   full:        0.135       2.452      -3.866      11.641

           -------------------------------------------------
          | TOTAL ENERGY              -23.939695096400 Eh   |
          | GRADIENT NORM               0.000574342639 Eh/α |
          | HOMO-LUMO GAP               4.730959331457 eV   |
           -------------------------------------------------

 * finished run on 2024/12/20 at 02:08:27.226
