   * xtb version 6.7.1 (edcfbbe) compiled by 'conda@3ef47c1a292c' on 2024-11-25

   ID    Z sym.   atoms
    1    6 C      1-4, 6, 7, 9-11, 15, 16, 18, 19
    2    7 N      5, 8
    3   15 P      12
    4    8 O      13, 14, 17
    5    1 H      20-47

          program call               : xtb C0164.xyz --opt --namespace C0164 --charge +1
          :  Hamiltonian                  GFN2-xTB          :
 * total energy  :   -62.2745553 Eh     change       -0.7062795E-10 Eh
 * total energy  :   -62.3213620 Eh     change       -0.4680671E-01 Eh
 * total energy  :   -62.3510914 Eh     change       -0.2972941E-01 Eh
 * total energy  :   -62.3610890 Eh     change       -0.9997528E-02 Eh
 * total energy  :   -62.3742614 Eh     change       -0.1317248E-01 Eh
 * total energy  :   -62.3855586 Eh     change       -0.1129714E-01 Eh
 * total energy  :   -62.3922792 Eh     change       -0.6720600E-02 Eh
 * total energy  :   -62.3961879 Eh     change       -0.3908728E-02 Eh
 * total energy  :   -62.3983037 Eh     change       -0.2115789E-02 Eh
 * total energy  :   -62.3996829 Eh     change       -0.1379171E-02 Eh
 * total energy  :   -62.4194044 Eh     change       -0.1012682E-04 Eh
 * total energy  :   -62.4194129 Eh     change       -0.8497226E-05 Eh
 * total energy  :   -62.4194234 Eh     change       -0.1048348E-04 Eh
 * total energy  :   -62.4194457 Eh     change       -0.2227337E-04 Eh
 * total energy  :   -62.4194557 Eh     change       -0.1003207E-04 Eh
 * total energy  :   -62.4194647 Eh     change       -0.8954871E-05 Eh
 * total energy  :   -62.4194763 Eh     change       -0.1160468E-04 Eh
 * total energy  :   -62.4194822 Eh     change       -0.5863890E-05 Eh
 * total energy  :   -62.4194861 Eh     change       -0.3983004E-05 Eh
   *** GEOMETRY OPTIMIZATION CONVERGED AFTER 130 ITERATIONS ***

 final structure:
================
47
 xtb: 6.7.1 (edcfbbe)
C            2.66222826009872        1.66347516520643        1.32055891953541
C            2.12019280314547        0.60281458555603        2.27104591723609
C            0.65401814015848        0.82245444111176        2.65689076779014
C           -0.28457607536060        0.61440485548382        1.47278123042471
N           -1.67903278977109        0.91579399244195        1.82945043310922
C           -2.64708308646702        0.91753733664315        0.72417240665038
C           -3.81875729110788        0.48762714649852        1.18345185221532
N           -3.72220341172717       -0.00666961275472        2.46559146445869
C           -2.31175567850884       -0.00489473107066        2.80752957139771
C           -4.75394513094320        0.16583254368117        3.45654515668622
C           -4.59410758467703        1.40322161041296        4.35147161053534
P           -4.02416457211934        2.91170940491682        3.44872782345385
O           -2.55812700648169        2.91313623762977        3.22987376084254
O           -4.78988160510614        2.97713840926761        2.06189607039380
C           -6.03128689129861        3.65528994911460        1.83764879273897
C           -7.17886261913543        3.07339524908378        2.63885666370340
O           -4.54828248246944        4.17607898856193        4.25281201987320
C           -3.68935389345371        4.88254250752641        5.15398568399039
C           -3.60870992012962        4.19782259040160        6.50454462999906
H            2.19763381434455        1.60252601125751        0.33992069372497
H            3.73115771443717        1.52483363790001        1.18730590737635
H            2.49857883037001        2.65963864217578        1.72417024257064
H            2.23274869987517       -0.38542248162444        1.82189559612840
H            2.71351500987809        0.61710566600203        3.18585539848862
H            0.39674100104533        0.12593884121768        3.45674177907659
H            0.53083668534421        1.83890120731085        3.03708812575253
H           -0.00370121995509        1.28532497385735        0.65951406611673
H           -0.22963064419880       -0.41586754290879        1.10920003842355
H           -1.76041152479369        1.87809381979388        2.27616163204069
H           -2.37184185895167        1.32086132121556       -0.22571012001085
H           -4.75123675297870        0.43777663915242        0.65576194077644
H           -2.12993973292302        0.32187634908904        3.83128628136233
H           -1.89935925420686       -1.01456955234966        2.65767046618357
H           -5.69781884373524        0.22220168624396        2.91277427399532
H           -4.78280433989249       -0.72656158965438        4.09182334157182
H           -5.53981328138202        1.61055811584222        4.84735540508909
H           -3.85209017351044        1.21883169560253        5.12907720229977
H           -5.90607921407558        4.71329884601922        2.07649034192840
H           -6.20373907023297        3.54661152476879        0.76433207809834
H           -7.00414158207276        3.22002060948264        3.70164915026568
H           -8.09846817580785        3.58375875864595        2.36666348752704
H           -7.29990297957266        2.01278312142032        2.43242224851617
H           -2.69612472275226        4.96561411605793        4.70511414743818
H           -4.13386316531834        5.87564117831817        5.24428916282914
H           -3.10949735876740        3.23564437516005        6.41058752879489
H           -3.04094932885682        4.81876231431383        7.19135000038672
H           -4.60431769581156        4.04458704608134        6.91324480828050

          :  Hamiltonian                  GFN2-xTB          :
         :: total energy             -62.419486140816 Eh    ::
         :: gradient norm              0.000557640579 Eh/a0 ::
         :: HOMO-LUMO gap              4.087964725262 eV    ::
         :: SCC energy               -63.163669684386 Eh    ::
         :: -> dispersion             -0.045171217233 Eh    ::
         :: repulsion energy           0.744183543570 Eh    ::

    * Orbital Energies and Occupations

         #    Occupation            Energy/Eh            Energy/eV
      -------------------------------------------------------------
         1        2.0000           -0.8514295             -23.1686
       ...           ...                  ...                  ...
        44        2.0000           -0.5767856             -15.6951
        45        2.0000           -0.5742887             -15.6272
        46        2.0000           -0.5718339             -15.5604
        47        2.0000           -0.5689909             -15.4830
        48        2.0000           -0.5655198             -15.3886
        49        2.0000           -0.5611663             -15.2701
        50        2.0000           -0.5497247             -14.9588
        51        2.0000           -0.5459960             -14.8573
        52        2.0000           -0.5437508             -14.7962
        53        2.0000           -0.5405002             -14.7078
        54        2.0000           -0.5380519             -14.6411
        55        2.0000           -0.5299223             -14.4199
        56        2.0000           -0.4930788             -13.4174 (HOMO)
        57                         -0.3428488              -9.3294 (LUMO)
        58                         -0.2132608              -5.8031
        59                         -0.1919101              -5.2221
        60                         -0.1875018              -5.1022
        61                         -0.1700761              -4.6280
        62                         -0.1425495              -3.8790
        63                         -0.1363459              -3.7102
        64                         -0.1187340              -3.2309
        65                         -0.0925907              -2.5195
        66                         -0.0604736              -1.6456
        67                         -0.0478642              -1.3025
       ...                                ...                  ...
       109                          1.1949416              32.5160
      -------------------------------------------------------------
                  HL-Gap            0.1502299 Eh            4.0880 eV

     #   Z          covCN         q      C6AA      α(0)
     1   6 C        3.752    -0.115    22.762     6.804
     2   6 C        3.801    -0.061    21.667     6.627
     3   6 C        3.801    -0.075    21.931     6.667
     4   6 C        3.740    -0.027    21.138     6.560
     5   7 N        3.615     0.004    21.189     6.837
     6   6 C        2.918    -0.050    29.229     8.866
     7   6 C        2.930     0.025    27.453     8.593
     8   7 N        2.781    -0.097    23.142     7.145
     9   6 C        3.794     0.039    19.931     6.357
    10   6 C        3.788    -0.009    20.749     6.488
    11   6 C        3.750    -0.119    22.847     6.817
    12  15 P        3.799     0.573   137.228    21.043
    13   8 O        0.809    -0.510    24.040     6.572
    14   8 O        1.656    -0.292    18.876     5.865
    15   6 C        3.840     0.073    19.335     6.255
    16   6 C        3.751    -0.126    22.984     6.837
    17   8 O        1.656    -0.284    18.735     5.843
    18   6 C        3.899     0.075    19.283     6.242
    19   6 C        3.751    -0.124    22.948     6.832
    20   1 H        0.925     0.037     2.494     2.469
    21   1 H        0.925     0.056     2.242     2.342
    22   1 H        0.925     0.046     2.367     2.406
    23   1 H        0.924     0.045     2.380     2.412
    24   1 H        0.924     0.057     2.238     2.340
    25   1 H        0.924     0.046     2.374     2.409
    26   1 H        0.924     0.060     2.205     2.322
    27   1 H        0.924     0.093     1.852     2.128
    28   1 H        0.924     0.078     1.995     2.209
    29   1 H        0.856     0.278     0.783     1.386
    30   1 H        0.927     0.089     1.893     2.152
    31   1 H        0.926     0.091     1.873     2.140
    32   1 H        0.925     0.088     1.903     2.157
    33   1 H        0.923     0.087     1.906     2.159
    34   1 H        0.924     0.077     2.013     2.219
    35   1 H        0.924     0.071     2.077     2.254
    36   1 H        0.926     0.085     1.927     2.171
    37   1 H        0.927     0.067     2.113     2.273
    38   1 H        0.924     0.066     2.134     2.285
    39   1 H        0.924     0.073     2.048     2.238
    40   1 H        0.925     0.062     2.179     2.308
    41   1 H        0.925     0.074     2.045     2.236
    42   1 H        0.925     0.054     2.274     2.358
    43   1 H        0.924     0.064     2.154     2.295
    44   1 H        0.924     0.075     2.036     2.231
    45   1 H        0.925     0.048     2.341     2.393
    46   1 H        0.925     0.073     2.053     2.241
    47   1 H        0.925     0.064     2.150     2.293

Wiberg/Mayer (AO) data.
largest (>0.10) Wiberg bond orders for each atom

     #   Z sym  total        # sym  WBO       # sym  WBO       # sym  WBO
 ---------------------------------------------------------------------------
     1   6 C    3.994 --     2 C    1.021    22 H    0.986    20 H    0.985
                            21 H    0.984
     2   6 C    3.991 --     1 C    1.021     3 C    1.001    23 H    0.977
                            24 H    0.975
     3   6 C    3.987 --     4 C    1.004     2 C    1.001    25 H    0.976
                            26 H    0.972
     4   6 C    3.928 --     3 C    1.004    28 H    0.967    27 H    0.962
                             5 N    0.944
     5   7 N    3.738 --     9 C    0.953     4 C    0.944     6 C    0.935
                            29 H    0.786
     6   6 C    3.888 --     7 C    1.784    30 H    0.964     5 N    0.935
                             8 N    0.138
     7   6 C    3.971 --     6 C    1.784     8 N    1.147    31 H    0.957
     8   7 N    3.369 --     7 C    1.147     9 C    1.000    10 C    0.993
                             6 C    0.138
     9   6 C    3.947 --     8 N    1.000    32 H    0.965    33 H    0.958
                             5 N    0.953
    10   6 C    3.970 --     8 N    0.993    11 C    0.990    35 H    0.966
                            34 H    0.966
    11   6 C    3.993 --    10 C    0.990    37 H    0.957    36 H    0.955
                            12 P    0.901
    12  15 P    5.313 --    13 O    1.762    17 O    1.253    14 O    1.250
                            11 C    0.901
    13   8 O    2.099 --    12 P    1.762
    14   8 O    2.344 --    12 P    1.250    15 C    0.906
    15   6 C    3.908 --    16 C    1.022    38 H    0.972    39 H    0.968
                            14 O    0.906
    16   6 C    3.990 --    15 C    1.022    42 H    0.983    41 H    0.978
                            40 H    0.977
    17   8 O    2.353 --    12 P    1.253    18 C    0.909
    18   6 C    3.906 --    19 C    1.022    43 H    0.970    44 H    0.969
                            17 O    0.909
    19   6 C    3.990 --    18 C    1.022    47 H    0.984    45 H    0.980
                            46 H    0.979
    20   1 H    0.999 --     1 C    0.985
    21   1 H    0.997 --     1 C    0.984
    22   1 H    0.998 --     1 C    0.986
    23   1 H    0.998 --     2 C    0.977
    24   1 H    0.996 --     2 C    0.975
    25   1 H    0.998 --     3 C    0.976
    26   1 H    0.996 --     3 C    0.972
    27   1 H    0.991 --     4 C    0.962
    28   1 H    0.993 --     4 C    0.967
    29   1 H    0.923 --     5 N    0.786
    30   1 H    0.992 --     6 C    0.964
    31   1 H    0.991 --     7 C    0.957
    32   1 H    0.992 --     9 C    0.965
    33   1 H    0.992 --     9 C    0.958
    34   1 H    0.994 --    10 C    0.966
    35   1 H    0.994 --    10 C    0.966
    36   1 H    0.993 --    11 C    0.955
    37   1 H    0.995 --    11 C    0.957
    38   1 H    0.996 --    15 C    0.972
    39   1 H    0.994 --    15 C    0.968
    40   1 H    0.996 --    16 C    0.977
    41   1 H    0.994 --    16 C    0.978
    42   1 H    0.997 --    16 C    0.983
    43   1 H    0.996 --    18 C    0.970
    44   1 H    0.994 --    18 C    0.969
    45   1 H    0.998 --    19 C    0.980
    46   1 H    0.994 --    19 C    0.979
    47   1 H    0.996 --    19 C    0.984
 ---------------------------------------------------------------------------

molecular dipole:
                 x           y           z       tot (Debye)
 q only:       -5.597       2.450       5.295
   full:       -5.852       2.640       5.469      21.434

           -------------------------------------------------
          | TOTAL ENERGY              -62.419486140816 Eh   |
          | GRADIENT NORM               0.000557640579 Eh/α |
          | HOMO-LUMO GAP               4.087964725262 eV   |
           -------------------------------------------------

 * finished run on 2024/12/20 at 02:08:41.838
