   * xtb version 6.7.1 (edcfbbe) compiled by 'conda@3ef47c1a292c' on 2024-11-25

   ID    Z sym.   atoms
    1    6 C      1-12, 14, 15, 17, 18
    2    7 N      13, 16
    3    1 H      19-49

          program call               : xtb C0169.xyz --opt --namespace C0169 --charge +1
          :  Hamiltonian                  GFN2-xTB          :
 * total energy  :   -55.5643112 Eh     change       -0.1706070E-08 Eh
 * total energy  :   -55.5679977 Eh     change       -0.3686497E-02 Eh
 * total energy  :   -55.5687526 Eh     change       -0.7548603E-03 Eh
 * total energy  :   -55.5689285 Eh     change       -0.1759321E-03 Eh
 * total energy  :   -55.5691020 Eh     change       -0.1734659E-03 Eh
 * total energy  :   -55.5691887 Eh     change       -0.8668408E-04 Eh
 * total energy  :   -55.5693009 Eh     change       -0.1122281E-03 Eh
 * total energy  :   -55.5694521 Eh     change       -0.1511768E-03 Eh
 * total energy  :   -55.5695831 Eh     change       -0.1310533E-03 Eh
 * total energy  :   -55.5696867 Eh     change       -0.1035364E-03 Eh
 * total energy  :   -55.5711356 Eh     change       -0.3924546E-04 Eh
 * total energy  :   -55.5711531 Eh     change       -0.1755285E-04 Eh
 * total energy  :   -55.5711659 Eh     change       -0.1272971E-04 Eh
 * total energy  :   -55.5711795 Eh     change       -0.1366789E-04 Eh
 * total energy  :   -55.5711893 Eh     change       -0.9729681E-05 Eh
 * total energy  :   -55.5712038 Eh     change       -0.1456928E-04 Eh
 * total energy  :   -55.5712094 Eh     change       -0.5553095E-05 Eh
 * total energy  :   -55.5712144 Eh     change       -0.5036724E-05 Eh
 * total energy  :   -55.5712190 Eh     change       -0.4559436E-05 Eh
   *** GEOMETRY OPTIMIZATION CONVERGED AFTER 40 ITERATIONS ***

 final structure:
================
49
 xtb: 6.7.1 (edcfbbe)
C            1.22866631177727       -0.11024693143351       -0.23574298992517
C            0.93566037556972       -0.51866524361832        1.20289529384042
C            1.30854423858407        0.55686355111289        2.22438422482496
C            0.55906364080207        1.88179960274184        2.07003623960683
C           -0.96409904382596        1.78017764429750        2.17187791222685
C           -1.48700895746248        1.19091804029708        3.48360418804139
C           -1.05231336882916        1.93736834027706        4.74646831704769
C           -1.45713146276662        3.41183274957305        4.79664458837773
C           -2.96238352857041        3.67307722959322        4.70143761530074
C           -3.80775436928479        2.97546207301435        5.77061350412959
C           -3.42396414161576        3.30453222419340        7.21327309022337
C           -3.61863760884350        4.77916170242666        7.58644775805074
N           -5.01757958652093        5.13825414551356        7.56338871322716
C           -5.90846772140759        4.90824377964524        8.56618141308846
C           -7.12988375485987        5.32194766517466        8.12866411107488
N           -6.96655518757902        5.79408106928391        6.86166858905881
C           -5.68127748824406        5.66815291980866        6.54050198636376
C           -8.00979688147640        6.33525205832325        6.03252343391000
H            0.58787492142550        0.70911776846025       -0.55205620417308
H            1.05752775414275       -0.94907430782216       -0.90642210559189
H            2.26519735891773        0.20300647791044       -0.33842809355788
H           -0.12061577478543       -0.77636535654211        1.30046419151021
H            1.51056831046815       -1.41776343083932        1.43680100693417
H            1.14171557698232        0.15890739304754        3.22774292557111
H            2.37769985503221        0.76438935226484        2.13402241491516
H            0.92885871407500        2.57398142636126        2.83011899769547
H            0.80425312635999        2.31729394228374        1.09982164557619
H           -1.38401985232484        2.77887849080696        2.02752256940460
H           -1.33533039366419        1.16073705770287        1.35370273314833
H           -2.57845121451906        1.15883718902118        3.43448155704977
H           -1.14446613873308        0.15865283798496        3.57034606667434
H           -1.46121912040833        1.41367708355938        5.61399556319429
H            0.03397769351931        1.88723226204890        4.83103967496572
H           -1.06536150922473        3.84747578460747        5.71937267059929
H           -0.97582276476501        3.93860775838578        3.97172322916975
H           -3.12275223305541        4.75482156553402        4.73880895676048
H           -3.31762772742508        3.33663401972454        3.72678307267751
H           -4.86187233640636        3.22028848672516        5.60423019325254
H           -3.71178277479743        1.89783973262188        5.64097784511478
H           -4.01613387210014        2.68598945857998        7.89090036445309
H           -2.37581609646339        3.05916487304010        7.37509337109816
H           -3.23815016292433        4.95830624984476        8.59384356606750
H           -3.08088814201601        5.41953469737652        6.88663278980282
H           -5.62186031193477        4.48110788666891        9.50573554297091
H           -8.07930679861571        5.31498184368224        8.62374948513032
H           -5.24574476408002        5.95839887489486        5.60412000640903
H           -8.50149708738499        7.16330650414343        6.54385981271427
H           -7.59008126912891        6.69407483489989        5.09549356292843
H           -8.75639443161674        5.56910662280044        5.81861459905230

          :  Hamiltonian                  GFN2-xTB          :
         :: total energy             -55.571218994176 Eh    ::
         :: gradient norm              0.000506044181 Eh/a0 ::
         :: HOMO-LUMO gap              1.726632066028 eV    ::
         :: SCC energy               -56.408091960392 Eh    ::
         :: -> dispersion             -0.040062173242 Eh    ::
         :: repulsion energy           0.836872966216 Eh    ::

    * Orbital Energies and Occupations

         #    Occupation            Energy/Eh            Energy/eV
      -------------------------------------------------------------
         1        2.0000           -0.8963188             -24.3901
       ...           ...                  ...                  ...
        40        2.0000           -0.5460648             -14.8592
        41        2.0000           -0.5402531             -14.7010
        42        2.0000           -0.5328107             -14.4985
        43        2.0000           -0.5304770             -14.4350
        44        2.0000           -0.5191944             -14.1280
        45        2.0000           -0.5153920             -14.0245
        46        2.0000           -0.5079101             -13.8209
        47        2.0000           -0.4981667             -13.5558
        48        2.0000           -0.4940598             -13.4441
        49        2.0000           -0.4903898             -13.3442
        50        2.0000           -0.4753087             -12.9338
        51        2.0000           -0.4716401             -12.8340
        52        2.0000           -0.4693113             -12.7706 (HOMO)
        53                         -0.4058587             -11.0440 (LUMO)
        54                         -0.3707920             -10.0898
        55                         -0.1828288              -4.9750
        56                         -0.1278944              -3.4802
        57                         -0.0624376              -1.6990
        58                         -0.0581855              -1.5833
        59                         -0.0380577              -1.0356
        60                         -0.0295727              -0.8047
        61                         -0.0210648              -0.5732
        62                         -0.0167657              -0.4562
        63                         -0.0080502              -0.2191
       ...                                ...                  ...
       103                          0.4634522              12.6112
      -------------------------------------------------------------
                  HL-Gap            0.0634526 Eh            1.7266 eV

     #   Z          covCN         q      C6AA      α(0)
     1   6 C        3.751    -0.103    22.520     6.768
     2   6 C        3.799    -0.053    21.518     6.605
     3   6 C        3.800    -0.058    21.617     6.620
     4   6 C        3.800    -0.058    21.616     6.620
     5   6 C        3.800    -0.057    21.603     6.618
     6   6 C        3.800    -0.058    21.624     6.621
     7   6 C        3.800    -0.060    21.660     6.626
     8   6 C        3.800    -0.061    21.676     6.629
     9   6 C        3.800    -0.061    21.670     6.628
    10   6 C        3.800    -0.065    21.744     6.639
    11   6 C        3.802    -0.070    21.847     6.655
    12   6 C        3.742    -0.028    21.147     6.561
    13   7 N        2.869     0.072    19.979     6.639
    14   6 C        3.076    -0.006    28.087     8.689
    15   6 C        3.072    -0.009    28.168     8.702
    16   7 N        2.867     0.075    19.934     6.631
    17   6 C        3.101     0.047    26.832     8.488
    18   6 C        3.692    -0.086    22.330     6.762
    19   1 H        0.925     0.033     2.543     2.494
    20   1 H        0.925     0.034     2.528     2.486
    21   1 H        0.925     0.036     2.505     2.475
    22   1 H        0.924     0.029     2.601     2.522
    23   1 H        0.924     0.030     2.589     2.516
    24   1 H        0.924     0.027     2.628     2.535
    25   1 H        0.924     0.032     2.559     2.502
    26   1 H        0.924     0.026     2.645     2.543
    27   1 H        0.924     0.036     2.508     2.476
    28   1 H        0.924     0.023     2.692     2.566
    29   1 H        0.924     0.037     2.494     2.470
    30   1 H        0.924     0.023     2.693     2.566
    31   1 H        0.924     0.039     2.458     2.452
    32   1 H        0.924     0.025     2.661     2.551
    33   1 H        0.924     0.043     2.412     2.429
    34   1 H        0.924     0.024     2.674     2.557
    35   1 H        0.924     0.046     2.373     2.409
    36   1 H        0.924     0.013     2.837     2.634
    37   1 H        0.924     0.049     2.331     2.388
    38   1 H        0.924     0.018     2.760     2.598
    39   1 H        0.925     0.064     2.154     2.295
    40   1 H        0.924     0.051     2.303     2.373
    41   1 H        0.925     0.081     1.970     2.195
    42   1 H        0.924     0.087     1.910     2.161
    43   1 H        0.924     0.089     1.884     2.147
    44   1 H        0.926     0.109     1.709     2.044
    45   1 H        0.926     0.109     1.705     2.042
    46   1 H        0.926     0.114     1.665     2.018
    47   1 H        0.924     0.107     1.723     2.053
    48   1 H        0.925     0.099     1.793     2.094
    49   1 H        0.924     0.107     1.725     2.054

Wiberg/Mayer (AO) data.
largest (>0.10) Wiberg bond orders for each atom

     #   Z sym  total        # sym  WBO       # sym  WBO       # sym  WBO
 ---------------------------------------------------------------------------
     1   6 C    3.997 --     2 C    1.020    21 H    0.987    20 H    0.987
                            19 H    0.986
     2   6 C    3.998 --     1 C    1.020     3 C    1.008    23 H    0.978
                            22 H    0.976
     3   6 C    3.997 --     2 C    1.008     4 C    1.008    25 H    0.977
                            24 H    0.976
     4   6 C    3.997 --     5 C    1.008     3 C    1.008    26 H    0.975
                            27 H    0.975
     5   6 C    3.997 --     4 C    1.008     6 C    1.008    28 H    0.976
                            29 H    0.974
     6   6 C    3.997 --     7 C    1.008     5 C    1.008    30 H    0.975
                            31 H    0.974
     7   6 C    3.996 --     8 C    1.008     6 C    1.008    32 H    0.975
                            33 H    0.973
     8   6 C    3.996 --     7 C    1.008     9 C    1.007    34 H    0.975
                            35 H    0.973
     9   6 C    3.995 --     8 C    1.007    10 C    1.007    36 H    0.974
                            37 H    0.973
    10   6 C    3.993 --    11 C    1.009     9 C    1.007    38 H    0.975
                            39 H    0.969
    11   6 C    3.982 --    10 C    1.009    12 C    0.980    40 H    0.975
                            41 H    0.962
    12   6 C    3.934 --    11 C    0.980    13 N    0.967    42 H    0.963
                            43 H    0.962
    13   7 N    3.721 --    17 C    1.363    14 C    1.231    12 C    0.967
    14   6 C    3.951 --    15 C    1.592    13 N    1.231    44 H    0.961
    15   6 C    3.948 --    14 C    1.592    16 N    1.227    45 H    0.961
    16   7 N    3.719 --    17 C    1.357    15 C    1.227    18 C    0.991
    17   6 C    3.946 --    13 N    1.363    16 N    1.357    46 H    0.952
    18   6 C    3.934 --    16 N    0.991    48 H    0.976    47 H    0.963
                            49 H    0.962
    19   1 H    0.999 --     1 C    0.986
    20   1 H    0.999 --     1 C    0.987
    21   1 H    0.999 --     1 C    0.987
    22   1 H    0.999 --     2 C    0.976
    23   1 H    0.999 --     2 C    0.978
    24   1 H    0.999 --     3 C    0.976
    25   1 H    0.999 --     3 C    0.977
    26   1 H    0.999 --     4 C    0.975
    27   1 H    0.999 --     4 C    0.975
    28   1 H    0.999 --     5 C    0.976
    29   1 H    0.999 --     5 C    0.974
    30   1 H    0.999 --     6 C    0.975
    31   1 H    0.998 --     6 C    0.974
    32   1 H    0.999 --     7 C    0.975
    33   1 H    0.998 --     7 C    0.973
    34   1 H    0.999 --     8 C    0.975
    35   1 H    0.998 --     8 C    0.973
    36   1 H    1.000 --     9 C    0.974
    37   1 H    0.998 --     9 C    0.973
    38   1 H    1.000 --    10 C    0.975
    39   1 H    0.996 --    10 C    0.969
    40   1 H    0.997 --    11 C    0.975
    41   1 H    0.992 --    11 C    0.962
    42   1 H    0.992 --    12 C    0.963
    43   1 H    0.992 --    12 C    0.962
    44   1 H    0.988 --    14 C    0.961
    45   1 H    0.988 --    15 C    0.961
    46   1 H    0.987 --    17 C    0.952
    47   1 H    0.988 --    18 C    0.963
    48   1 H    0.990 --    18 C    0.976
    49   1 H    0.988 --    18 C    0.962
 ---------------------------------------------------------------------------

molecular dipole:
                 x           y           z       tot (Debye)
 q only:      -10.779       9.793      13.088
   full:      -10.833       9.896      13.112      50.016

           -------------------------------------------------
          | TOTAL ENERGY              -55.571218994176 Eh   |
          | GRADIENT NORM               0.000506044181 Eh/α |
          | HOMO-LUMO GAP               1.726632066028 eV   |
           -------------------------------------------------

 * finished run on 2024/12/20 at 02:08:48.884
