   * xtb version 6.7.1 (edcfbbe) compiled by 'conda@3ef47c1a292c' on 2024-11-25

   ID    Z sym.   atoms
    1    6 C      1-3, 5, 6, 8, 9, 11-17
    2    7 N      4, 7
    3    8 O      10
    4    1 H      18-36

          program call               : xtb C0166.xyz --opt --namespace C0166 --charge +1
          :  Hamiltonian                  GFN2-xTB          :
 * total energy  :   -49.1811255 Eh     change       -0.8576890E-09 Eh
 * total energy  :   -49.1872624 Eh     change       -0.6136868E-02 Eh
 * total energy  :   -49.1887777 Eh     change       -0.1515375E-02 Eh
 * total energy  :   -49.1891596 Eh     change       -0.3818747E-03 Eh
 * total energy  :   -49.1894423 Eh     change       -0.2826668E-03 Eh
 * total energy  :   -49.1895762 Eh     change       -0.1339493E-03 Eh
 * total energy  :   -49.1897263 Eh     change       -0.1500824E-03 Eh
 * total energy  :   -49.1898982 Eh     change       -0.1718388E-03 Eh
 * total energy  :   -49.1900471 Eh     change       -0.1489794E-03 Eh
 * total energy  :   -49.1901559 Eh     change       -0.1088030E-03 Eh
 * total energy  :   -49.1915977 Eh     change       -0.1476606E-04 Eh
 * total energy  :   -49.1916473 Eh     change       -0.4960461E-04 Eh
 * total energy  :   -49.1916637 Eh     change       -0.1643647E-04 Eh
 * total energy  :   -49.1916826 Eh     change       -0.1885515E-04 Eh
 * total energy  :   -49.1916931 Eh     change       -0.1051561E-04 Eh
 * total energy  :   -49.1917014 Eh     change       -0.8307655E-05 Eh
 * total energy  :   -49.1917097 Eh     change       -0.8312467E-05 Eh
 * total energy  :   -49.1917156 Eh     change       -0.5909335E-05 Eh
 * total energy  :   -49.1917205 Eh     change       -0.4942612E-05 Eh
   *** GEOMETRY OPTIMIZATION CONVERGED AFTER 42 ITERATIONS ***

 final structure:
================
36
 xtb: 6.7.1 (edcfbbe)
C            1.17664694058518       -0.95331297084060        2.48436384073146
C            0.57653497403494       -0.85554532744289        1.08192450068194
C            1.44872683022230        0.00057624455663        0.11111159562090
N            1.87059024220691        1.29353546745643        0.59895759548635
C            2.80196257263414        1.52081585811867        1.56678189956535
C            2.92082552938530        2.86963984845407        1.71154681022665
N            2.06936554959343        3.44867400340450        0.82142251569835
C            1.44786835222321        2.47705730790188        0.15934067365521
C            1.88044654801919        4.86352177171633        0.64910788517342
O           -0.79242755970049       -0.54942648172863        1.03400400453966
C           -1.28031995060947        0.72164466724758        1.43731805296529
C           -1.05355940564244        1.09417729771336        2.87981413998110
C           -1.46553685436845        0.23630388974021        3.89334761406298
C           -1.25451328141380        0.56922740560308        5.21866363177629
C           -0.64211566977506        1.76846222011908        5.54617469345605
C           -0.25047851439356        2.63852270171635        4.54357997811060
C           -0.45472013091314        2.30077785372852        3.21650716847273
H            1.22204983279609        0.00803856464027        2.98827299934889
H            2.17092266876387       -1.38926948815327        2.42711887925294
H            0.55433326556728       -1.61272619666291        3.08264046054972
H            0.58977218412845       -1.86222470174207        0.64303073266962
H            2.34675242026920       -0.57814897355758       -0.11615846689330
H            0.88112407459585        0.14668400721319       -0.81016642381374
H            3.32528029174366        0.73324141814621        2.06683153155432
H            3.54058280955338        3.44079068398542        2.37200949132614
H            0.73118004044820        2.62838993935792       -0.62512530933433
H            1.21723812472726        5.05186269435341       -0.19223321358061
H            1.44365862695240        5.29677268993278        1.55017713603843
H            2.83892803436179        5.34806199873684        0.46395025572279
H           -0.89463943140426        1.51191923972121        0.77838776391163
H           -2.35671928300136        0.63411489953663        1.25556538705358
H           -1.94836927661098       -0.69259132708710        3.62991186430558
H           -1.57553054040180       -0.10316739221096        5.99897613382898
H           -0.48107310512749        2.03016809666738        6.58021235966896
H            0.20877220238973        3.58314113126003        4.79543818117541
H           -0.17119911182683        2.99397095838749        2.43397363699987

          :  Hamiltonian                  GFN2-xTB          :
         :: total energy             -49.191720542108 Eh    ::
         :: gradient norm              0.000629933324 Eh/a0 ::
         :: HOMO-LUMO gap              2.484320150862 eV    ::
         :: SCC energy               -49.948072744738 Eh    ::
         :: -> dispersion             -0.036377953334 Eh    ::
         :: repulsion energy           0.756352202630 Eh    ::

    * Orbital Energies and Occupations

         #    Occupation            Energy/Eh            Energy/eV
      -------------------------------------------------------------
         1        2.0000           -0.8995178             -24.4771
       ...           ...                  ...                  ...
        33        2.0000           -0.5961176             -16.2212
        34        2.0000           -0.5926173             -16.1259
        35        2.0000           -0.5899859             -16.0543
        36        2.0000           -0.5849173             -15.9164
        37        2.0000           -0.5820288             -15.8378
        38        2.0000           -0.5780388             -15.7292
        39        2.0000           -0.5647828             -15.3685
        40        2.0000           -0.5546949             -15.0940
        41        2.0000           -0.5359856             -14.5849
        42        2.0000           -0.5225440             -14.2191
        43        2.0000           -0.5151185             -14.0171
        44        2.0000           -0.5074833             -13.8093
        45        2.0000           -0.5011592             -13.6372 (HOMO)
        46                         -0.4098622             -11.1529 (LUMO)
        47                         -0.3730388             -10.1509
        48                         -0.3284432              -8.9374
        49                         -0.3257563              -8.8643
        50                         -0.1995458              -5.4299
        51                         -0.1902301              -5.1764
        52                         -0.1331257              -3.6225
        53                         -0.1045934              -2.8461
        54                         -0.0802505              -2.1837
        55                         -0.0676756              -1.8415
        56                         -0.0426450              -1.1604
       ...                                ...                  ...
        87                          0.5611352              15.2693
      -------------------------------------------------------------
                  HL-Gap            0.0912971 Eh            2.4843 eV

     #   Z          covCN         q      C6AA      α(0)
     1   6 C        3.751    -0.131    23.084     6.852
     2   6 C        3.727     0.110    18.875     6.203
     3   6 C        3.738    -0.042    21.412     6.603
     4   7 N        2.863     0.073    19.966     6.636
     5   6 C        3.076    -0.005    28.067     8.686
     6   6 C        3.073    -0.008    28.145     8.698
     7   7 N        2.866     0.077    19.904     6.626
     8   6 C        3.104     0.049    26.768     8.478
     9   6 C        3.692    -0.084    22.299     6.757
    10   8 O        1.700    -0.309    19.144     5.907
    11   6 C        3.686     0.070    19.591     6.336
    12   6 C        2.968    -0.006    28.172     8.706
    13   6 C        2.924    -0.029    28.721     8.789
    14   6 C        2.919    -0.024    28.598     8.770
    15   6 C        2.920    -0.026    28.651     8.778
    16   6 C        2.919    -0.031    28.784     8.798
    17   6 C        2.924    -0.046    29.143     8.853
    18   1 H        0.925     0.048     2.345     2.395
    19   1 H        0.925     0.052     2.298     2.370
    20   1 H        0.925     0.079     1.993     2.208
    21   1 H        0.923     0.083     1.952     2.185
    22   1 H        0.924     0.091     1.874     2.141
    23   1 H        0.924     0.092     1.861     2.133
    24   1 H        0.927     0.113     1.671     2.022
    25   1 H        0.926     0.110     1.698     2.038
    26   1 H        0.926     0.110     1.696     2.036
    27   1 H        0.925     0.099     1.795     2.095
    28   1 H        0.924     0.107     1.723     2.052
    29   1 H        0.925     0.107     1.720     2.051
    30   1 H        0.923     0.007     2.943     2.683
    31   1 H        0.924     0.077     2.012     2.218
    32   1 H        0.926     0.053     2.279     2.361
    33   1 H        0.926     0.053     2.288     2.365
    34   1 H        0.926     0.050     2.319     2.381
    35   1 H        0.926     0.034     2.523     2.484
    36   1 H        0.925    -0.001     3.077     2.743

Wiberg/Mayer (AO) data.
largest (>0.10) Wiberg bond orders for each atom

     #   Z sym  total        # sym  WBO       # sym  WBO       # sym  WBO
 ---------------------------------------------------------------------------
     1   6 C    3.990 --     2 C    0.998    19 H    0.982    18 H    0.978
                            20 H    0.977
     2   6 C    3.952 --    10 O    1.000     1 C    0.998    21 H    0.949
                             3 C    0.945
     3   6 C    3.935 --     4 N    0.974    23 H    0.966    22 H    0.959
                             2 C    0.945
     4   7 N    3.721 --     8 C    1.358     5 C    1.228     3 C    0.974
     5   6 C    3.949 --     6 C    1.589     4 N    1.228    24 H    0.958
     6   6 C    3.948 --     5 C    1.589     7 N    1.226    25 H    0.961
     7   7 N    3.721 --     8 C    1.359     6 C    1.226     9 C    0.991
     8   6 C    3.947 --     7 N    1.359     4 N    1.358    26 H    0.953
     9   6 C    3.933 --     7 N    0.991    27 H    0.976    29 H    0.964
                            28 H    0.960
    10   8 O    2.104 --     2 C    1.000    11 C    0.966
    11   6 C    3.947 --    12 C    0.997    10 O    0.966    30 H    0.964
                            31 H    0.954
    12   6 C    3.988 --    17 C    1.417    13 C    1.407    11 C    0.997
                            15 C    0.110
    13   6 C    3.991 --    14 C    1.451    12 C    1.407    32 H    0.968
                            16 C    0.112
    14   6 C    3.991 --    13 C    1.451    15 C    1.434    33 H    0.969
                            17 C    0.109
    15   6 C    3.991 --    16 C    1.443    14 C    1.434    34 H    0.970
                            12 C    0.110
    16   6 C    3.992 --    15 C    1.443    17 C    1.439    35 H    0.971
                            13 C    0.112
    17   6 C    3.990 --    16 C    1.439    12 C    1.417    36 H    0.967
                            14 C    0.109
    18   1 H    0.998 --     1 C    0.978
    19   1 H    0.997 --     1 C    0.982
    20   1 H    0.994 --     1 C    0.977
    21   1 H    0.992 --     2 C    0.949
    22   1 H    0.991 --     3 C    0.959
    23   1 H    0.991 --     3 C    0.966
    24   1 H    0.987 --     5 C    0.958
    25   1 H    0.988 --     6 C    0.961
    26   1 H    0.988 --     8 C    0.953
    27   1 H    0.990 --     9 C    0.976
    28   1 H    0.988 --     9 C    0.960
    29   1 H    0.988 --     9 C    0.964
    30   1 H    1.000 --    11 C    0.964
    31   1 H    0.994 --    11 C    0.954
    32   1 H    0.997 --    13 C    0.968
    33   1 H    0.997 --    14 C    0.969
    34   1 H    0.997 --    15 C    0.970
    35   1 H    0.999 --    16 C    0.971
    36   1 H    1.000 --    17 C    0.967
 ---------------------------------------------------------------------------

molecular dipole:
                 x           y           z       tot (Debye)
 q only:        3.566       4.285       2.123
   full:        3.617       4.485       2.013      15.513

           -------------------------------------------------
          | TOTAL ENERGY              -49.191720542108 Eh   |
          | GRADIENT NORM               0.000629933324 Eh/α |
          | HOMO-LUMO GAP               2.484320150862 eV   |
           -------------------------------------------------

 * finished run on 2024/12/20 at 02:08:43.359
