   * xtb version 6.7.1 (edcfbbe) compiled by 'conda@3ef47c1a292c' on 2024-11-25

   ID    Z sym.   atoms
    1    6 C      1, 3, 4, 6, 7, 9-13
    2    8 O      2, 8
    3    7 N      5
    4    1 H      14-37

          program call               : xtb C0168.xyz --opt --namespace C0168 --charge +1
          :  Hamiltonian                  GFN2-xTB          :
 * total energy  :   -44.2796409 Eh     change       -0.8923706E-10 Eh
 * total energy  :   -44.2886960 Eh     change       -0.9055055E-02 Eh
 * total energy  :   -44.2913514 Eh     change       -0.2655412E-02 Eh
 * total energy  :   -44.2916462 Eh     change       -0.2948414E-03 Eh
 * total energy  :   -44.2921790 Eh     change       -0.5327662E-03 Eh
 * total energy  :   -44.2924632 Eh     change       -0.2842336E-03 Eh
 * total energy  :   -44.2929136 Eh     change       -0.4503467E-03 Eh
 * total energy  :   -44.2931093 Eh     change       -0.1957587E-03 Eh
 * total energy  :   -44.2933021 Eh     change       -0.1927887E-03 Eh
 * total energy  :   -44.2933847 Eh     change       -0.8255106E-04 Eh
 * total energy  :   -44.2937911 Eh     change       -0.6515880E-04 Eh
 * total energy  :   -44.2938613 Eh     change       -0.7018076E-04 Eh
 * total energy  :   -44.2939189 Eh     change       -0.5757858E-04 Eh
 * total energy  :   -44.2939504 Eh     change       -0.3149053E-04 Eh
 * total energy  :   -44.2939713 Eh     change       -0.2093718E-04 Eh
 * total energy  :   -44.2939830 Eh     change       -0.1164957E-04 Eh
 * total energy  :   -44.2940007 Eh     change       -0.1771201E-04 Eh
 * total energy  :   -44.2940103 Eh     change       -0.9595958E-05 Eh
 * total energy  :   -44.2940150 Eh     change       -0.4703736E-05 Eh
   *** GEOMETRY OPTIMIZATION CONVERGED AFTER 24 ITERATIONS ***

 final structure:
================
37
 xtb: 6.7.1 (edcfbbe)
C            1.67179440381723       -0.40905664772452        1.74486140074103
O            1.07717852205466       -0.61003484174093        0.47835161646084
C            0.76523874248257       -1.95614323212418        0.21701603460025
C           -0.05324372358251       -2.08472632892476       -1.07300907998233
N            0.46504246532139       -1.33965303943500       -2.25389419140106
C            1.94661645195740       -1.49866858290883       -2.38736545998135
C            2.48197159338871       -2.91601370440125       -2.59635324750865
O            2.23306526721345       -3.33547715779637       -3.91550945985982
C            2.91510032575777       -4.52215653807356       -4.26796843150734
C           -0.16822512163272       -1.88745019628872       -3.49801073226390
C           -1.66770950073473       -1.69486273822559       -3.64523074406376
C            0.21471228069397        0.14580380380033       -2.15337997112097
C           -1.03133443318761        0.60693350820572       -1.41132609938601
H            1.85400101565533        0.65938337264892        1.82981738118130
H            2.61850932158708       -0.95267515699728        1.82601960379514
H            1.00379864668907       -0.73294120308276        2.54848839497525
H            1.68841692344416       -2.55349103918606        0.16784474899276
H            0.15272851613944       -2.37234147467147        1.03131392634191
H           -0.10364024472695       -3.14428369912003       -1.32877672448278
H           -1.06469163882749       -1.73189844860847       -0.88330904298135
H            2.26241497676255       -0.90789149124358       -3.25016354036928
H            2.40210267936873       -1.07808678840834       -1.49110222701718
H            3.56765992746139       -2.87531842261532       -2.41808580704056
H            2.05902770026891       -3.63600676781022       -1.87945887665324
H            3.99874777262122       -4.39023582035158       -4.19242005763343
H            2.61024102586349       -5.35763890736207       -3.62918693043183
H            2.64356489182578       -4.73200147992919       -5.29911450095069
H            0.33582085645992       -1.42017670711199       -4.34568556163231
H            0.06258789068412       -2.95149339233531       -3.54149372743888
H           -1.93977903821606       -0.65204944397665       -3.77313721361770
H           -1.97394577606841       -2.21980168883762       -4.54704539171183
H           -2.22740945115937       -2.11989558845692       -2.81722797044982
H            1.06427197621533        0.58583147848433       -1.63189469658350
H            0.20035549471436        0.52635740713640       -3.17584985326276
H           -0.93609731654956        0.42808926614365       -0.34495617375656
H           -1.10337845218625        1.68305500220003       -1.55254699418144
H           -1.95264497157010        0.16785668913117       -1.77792039982265

          :  Hamiltonian                  GFN2-xTB          :
         :: total energy             -44.294014979321 Eh    ::
         :: gradient norm              0.000616662199 Eh/a0 ::
         :: HOMO-LUMO gap              8.048450961136 eV    ::
         :: SCC energy               -44.810783508291 Eh    ::
         :: -> dispersion             -0.028848737043 Eh    ::
         :: repulsion energy           0.516768528970 Eh    ::

    * Orbital Energies and Occupations

         #    Occupation            Energy/Eh            Energy/eV
      -------------------------------------------------------------
         1        2.0000           -0.8480869             -23.0776
       ...           ...                  ...                  ...
        28        2.0000           -0.6206009             -16.8874
        29        2.0000           -0.6110849             -16.6285
        30        2.0000           -0.6093989             -16.5826
        31        2.0000           -0.6064626             -16.5027
        32        2.0000           -0.6042017             -16.4412
        33        2.0000           -0.5976234             -16.2622
        34        2.0000           -0.5916343             -16.0992
        35        2.0000           -0.5861923             -15.9511
        36        2.0000           -0.5809484             -15.8084
        37        2.0000           -0.5773572             -15.7107
        38        2.0000           -0.5740159             -15.6198
        39        2.0000           -0.5347680             -14.5518
        40        2.0000           -0.5290686             -14.3967 (HOMO)
        41                         -0.2332935              -6.3482 (LUMO)
        42                         -0.1703081              -4.6343
        43                         -0.1580169              -4.2999
        44                         -0.1541268              -4.1940
        45                         -0.1132268              -3.0811
        46                         -0.1061031              -2.8872
        47                         -0.0689201              -1.8754
        48                         -0.0459823              -1.2512
        49                         -0.0344682              -0.9379
        50                         -0.0259834              -0.7070
        51                         -0.0187344              -0.5098
       ...                                ...                  ...
        76                          0.1685113               4.5854
      -------------------------------------------------------------
                  HL-Gap            0.2957751 Eh            8.0485 eV

     #   Z          covCN         q      C6AA      α(0)
     1   6 C        3.652     0.026    20.439     6.493
     2   8 O        1.700    -0.317    19.289     5.930
     3   6 C        3.700     0.073    19.509     6.316
     4   6 C        3.750    -0.040    21.356     6.591
     5   7 N        3.616     0.111    19.334     6.531
     6   6 C        3.764    -0.044    21.405     6.594
     7   6 C        3.700     0.074    19.500     6.315
     8   8 O        1.700    -0.317    19.294     5.930
     9   6 C        3.651     0.027    20.438     6.493
    10   6 C        3.758    -0.037    21.286     6.578
    11   6 C        3.751    -0.128    23.019     6.842
    12   6 C        3.754    -0.034    21.236     6.571
    13   6 C        3.751    -0.131    23.080     6.851
    14   1 H        0.925     0.078     2.002     2.213
    15   1 H        0.924     0.042     2.420     2.433
    16   1 H        0.924     0.048     2.339     2.392
    17   1 H        0.923     0.038     2.473     2.459
    18   1 H        0.923     0.059     2.211     2.325
    19   1 H        0.924     0.086     1.919     2.166
    20   1 H        0.925     0.107     1.718     2.050
    21   1 H        0.924     0.099     1.792     2.093
    22   1 H        0.925     0.101     1.774     2.083
    23   1 H        0.923     0.060     2.197     2.318
    24   1 H        0.923     0.038     2.474     2.460
    25   1 H        0.924     0.048     2.346     2.395
    26   1 H        0.924     0.041     2.431     2.438
    27   1 H        0.925     0.080     1.978     2.199
    28   1 H        0.924     0.090     1.878     2.143
    29   1 H        0.925     0.100     1.786     2.090
    30   1 H        0.925     0.070     2.091     2.261
    31   1 H        0.925     0.083     1.945     2.181
    32   1 H        0.925     0.060     2.196     2.317
    33   1 H        0.925     0.098     1.804     2.100
    34   1 H        0.924     0.082     1.963     2.191
    35   1 H        0.925     0.080     1.975     2.197
    36   1 H        0.925     0.081     1.968     2.194
    37   1 H        0.925     0.066     2.133     2.284

Wiberg/Mayer (AO) data.
largest (>0.10) Wiberg bond orders for each atom

     #   Z sym  total        # sym  WBO       # sym  WBO       # sym  WBO
 ---------------------------------------------------------------------------
     1   6 C    3.935 --    15 H    0.979    16 H    0.978     2 O    0.978
                            14 H    0.977
     2   8 O    2.071 --     3 C    0.995     1 C    0.978
     3   6 C    3.960 --     4 C    1.000     2 O    0.995    17 H    0.963
                            18 H    0.959
     4   6 C    3.943 --     3 C    1.000    19 H    0.964    20 H    0.957
                             5 N    0.946
     5   7 N    3.801 --     4 C    0.946     6 C    0.939    10 C    0.924
                            12 C    0.916
     6   6 C    3.940 --     7 C    1.004    21 H    0.964    22 H    0.960
                             5 N    0.939
     7   6 C    3.962 --     6 C    1.004     8 O    0.996    24 H    0.959
                            23 H    0.958
     8   8 O    2.069 --     7 C    0.996     9 C    0.978
     9   6 C    3.935 --    26 H    0.979     8 O    0.978    25 H    0.977
                            27 H    0.977
    10   6 C    3.926 --    11 C    1.023    28 H    0.965    29 H    0.960
                             5 N    0.924
    11   6 C    3.983 --    10 C    1.023    32 H    0.981    30 H    0.979
                            31 H    0.973
    12   6 C    3.926 --    13 C    1.023    34 H    0.968    33 H    0.964
                             5 N    0.916
    13   6 C    3.980 --    12 C    1.023    35 H    0.977    37 H    0.976
                            36 H    0.971
    14   1 H    0.994 --     1 C    0.977
    15   1 H    0.998 --     1 C    0.979
    16   1 H    0.998 --     1 C    0.978
    17   1 H    0.999 --     3 C    0.963
    18   1 H    0.996 --     3 C    0.959
    19   1 H    0.992 --     4 C    0.964
    20   1 H    0.988 --     4 C    0.957
    21   1 H    0.990 --     6 C    0.964
    22   1 H    0.989 --     6 C    0.960
    23   1 H    0.996 --     7 C    0.958
    24   1 H    0.999 --     7 C    0.959
    25   1 H    0.998 --     9 C    0.977
    26   1 H    0.998 --     9 C    0.979
    27   1 H    0.994 --     9 C    0.977
    28   1 H    0.992 --    10 C    0.965
    29   1 H    0.990 --    10 C    0.960
    30   1 H    0.995 --    11 C    0.979
    31   1 H    0.993 --    11 C    0.973
    32   1 H    0.996 --    11 C    0.981
    33   1 H    0.990 --    12 C    0.964
    34   1 H    0.993 --    12 C    0.968
    35   1 H    0.994 --    13 C    0.977
    36   1 H    0.993 --    13 C    0.971
    37   1 H    0.996 --    13 C    0.976
 ---------------------------------------------------------------------------

molecular dipole:
                 x           y           z       tot (Debye)
 q only:        1.102      -2.974      -3.613
   full:        1.337      -3.239      -3.395      12.401

           -------------------------------------------------
          | TOTAL ENERGY              -44.294014979321 Eh   |
          | GRADIENT NORM               0.000616662199 Eh/α |
          | HOMO-LUMO GAP               8.048450961136 eV   |
           -------------------------------------------------

 * finished run on 2024/12/20 at 02:08:46.974
