   * xtb version 6.7.1 (edcfbbe) compiled by 'conda@3ef47c1a292c' on 2024-11-25

   ID    Z sym.   atoms
    1    6 C      1, 3-5, 7-12
    2    7 N      2, 6
    3    1 H      13-31

          program call               : xtb C0163.xyz --opt --namespace C0163 --charge +1
          :  Hamiltonian                  GFN2-xTB          :
 * total energy  :   -36.4830964 Eh     change       -0.3216627E-10 Eh
 * total energy  :   -36.5178999 Eh     change       -0.3480352E-01 Eh
 * total energy  :   -36.5212724 Eh     change       -0.3372503E-02 Eh
 * total energy  :   -36.5220229 Eh     change       -0.7505144E-03 Eh
 * total energy  :   -36.5222990 Eh     change       -0.2760984E-03 Eh
 * total energy  :   -36.5226132 Eh     change       -0.3141216E-03 Eh
 * total energy  :   -36.5228669 Eh     change       -0.2537228E-03 Eh
 * total energy  :   -36.5230566 Eh     change       -0.1897047E-03 Eh
 * total energy  :   -36.5232232 Eh     change       -0.1666373E-03 Eh
 * total energy  :   -36.5232898 Eh     change       -0.6652516E-04 Eh
 * total energy  :   -36.5246424 Eh     change       -0.8660290E-05 Eh
 * total energy  :   -36.5246503 Eh     change       -0.7940683E-05 Eh
 * total energy  :   -36.5246577 Eh     change       -0.7395292E-05 Eh
 * total energy  :   -36.5246649 Eh     change       -0.7189801E-05 Eh
 * total energy  :   -36.5246720 Eh     change       -0.7074786E-05 Eh
 * total energy  :   -36.5246793 Eh     change       -0.7291692E-05 Eh
 * total energy  :   -36.5246868 Eh     change       -0.7565951E-05 Eh
 * total energy  :   -36.5246947 Eh     change       -0.7891191E-05 Eh
 * total energy  :   -36.5246976 Eh     change       -0.2902735E-05 Eh
   *** GEOMETRY OPTIMIZATION CONVERGED AFTER 68 ITERATIONS ***

 final structure:
================
31
 xtb: 6.7.1 (edcfbbe)
C            0.76683255694957       -0.73772446348454        0.11690116205617
N           -0.21848074885038       -1.31239051475419        0.18191503861751
C            2.05722908759432       -0.10520634956651       -0.00026466912404
C            3.19008813006095       -1.00778815908002        0.53305324176478
C            2.99154463202877       -2.52020886042655        0.37882709125137
N            3.30600715108543       -3.15497367860016       -0.94066013678934
C            4.76675960582310       -3.05260399318377       -1.21842046608178
C            5.20720072339441       -3.85083650196295       -2.44022965648504
C            4.84852481979763       -5.32226314850872       -2.26933723491792
C            3.35111622514620       -5.45084815459664       -2.01365617488320
C            2.93160711525797       -4.59891589306026       -0.82065255473142
C            2.52225223871592       -2.52337943050812       -2.01579966189573
H            2.20237159167601        0.17244825577775       -1.04723409788118
H            2.03778366468930        0.82281682489298        0.57632167917004
H            4.13835852171699       -0.68016641221114        0.10754189185278
H            3.25725783264745       -0.84358885342046        1.61065663811106
H            3.62314635166712       -3.01483290350810        1.12042216062585
H            1.95084057099713       -2.75820407830361        0.61525902262256
H            5.29663085777883       -3.42991325089253       -0.34069171340450
H            5.02379522754261       -2.00121481504252       -1.35190135552211
H            6.28685926278071       -3.73679716931460       -2.53939037261986
H            4.75664654414398       -3.45411095517180       -3.35026110840673
H            5.12425105396721       -5.88105517468192       -3.16177640074680
H            5.40534156185182       -5.74218788643971       -1.42992312822434
H            2.79146387061727       -5.18328389709690       -2.91024869395432
H            3.09780958092008       -6.48527504868551       -1.78057650936685
H            1.85068783359228       -4.65629771446499       -0.67891435024684
H            3.41897132189197       -4.99061815890149        0.07490391940362
H            1.47810045907941       -2.44509466145788       -1.71681335562119
H            2.91351284375832       -1.53294349895694       -2.23202745253130
H            2.57755951167121       -3.11487145439372       -2.92495275203887

          :  Hamiltonian                  GFN2-xTB          :
         :: total energy             -36.524697636286 Eh    ::
         :: gradient norm              0.000222305325 Eh/a0 ::
         :: HOMO-LUMO gap              5.776091730165 eV    ::
         :: SCC energy               -37.085997105454 Eh    ::
         :: -> dispersion             -0.025310696769 Eh    ::
         :: repulsion energy           0.561299469168 Eh    ::

    * Orbital Energies and Occupations

         #    Occupation            Energy/Eh            Energy/eV
      -------------------------------------------------------------
         1        2.0000           -0.8656580             -23.5558
       ...           ...                  ...                  ...
        22        2.0000           -0.6482968             -17.6411
        23        2.0000           -0.6426490             -17.4874
        24        2.0000           -0.6383992             -17.3717
        25        2.0000           -0.6310261             -17.1711
        26        2.0000           -0.6215103             -16.9122
        27        2.0000           -0.6160051             -16.7624
        28        2.0000           -0.6096549             -16.5896
        29        2.0000           -0.5939735             -16.1628
        30        2.0000           -0.5883007             -16.0085
        31        2.0000           -0.5867558             -15.9664
        32        2.0000           -0.5817470             -15.8301
        33        2.0000           -0.5776965             -15.7199
        34        2.0000           -0.5465948             -14.8736 (HOMO)
        35                         -0.3343273              -9.0975 (LUMO)
        36                         -0.3272580              -8.9051
        37                         -0.2396758              -6.5219
        38                         -0.1721358              -4.6841
        39                         -0.1663630              -4.5270
        40                         -0.1463020              -3.9811
        41                         -0.0992809              -2.7016
        42                         -0.0805044              -2.1906
        43                         -0.0627408              -1.7073
        44                         -0.0621454              -1.6911
        45                         -0.0415440              -1.1305
       ...                                ...                  ...
        67                          1.0202393              27.7621
      -------------------------------------------------------------
                  HL-Gap            0.2122675 Eh            5.7761 eV

     #   Z          covCN         q      C6AA      α(0)
     1   6 C        1.896     0.111    28.364     8.601
     2   7 N        0.911    -0.218    25.756     7.340
     3   6 C        3.802    -0.066    21.756     6.641
     4   6 C        3.802    -0.066    21.760     6.641
     5   6 C        3.762    -0.040    21.333     6.584
     6   7 N        3.620     0.120    19.190     6.506
     7   6 C        3.761    -0.031    21.176     6.560
     8   6 C        3.805    -0.073    21.890     6.661
     9   6 C        3.807    -0.072    21.879     6.659
    10   6 C        3.805    -0.072    21.875     6.658
    11   6 C        3.769    -0.035    21.236     6.567
    12   6 C        3.711    -0.090    22.365     6.758
    13   1 H        0.924     0.078     2.000     2.211
    14   1 H        0.924     0.098     1.802     2.099
    15   1 H        0.925     0.063     2.168     2.303
    16   1 H        0.924     0.082     1.954     2.186
    17   1 H        0.924     0.081     1.968     2.194
    18   1 H        0.924     0.094     1.844     2.123
    19   1 H        0.924     0.083     1.952     2.185
    20   1 H        0.924     0.079     1.994     2.208
    21   1 H        0.925     0.078     2.000     2.211
    22   1 H        0.925     0.062     2.173     2.305
    23   1 H        0.925     0.072     2.061     2.245
    24   1 H        0.924     0.058     2.227     2.334
    25   1 H        0.924     0.062     2.177     2.307
    26   1 H        0.925     0.081     1.970     2.195
    27   1 H        0.924     0.086     1.923     2.168
    28   1 H        0.924     0.084     1.942     2.179
    29   1 H        0.925     0.099     1.794     2.094
    30   1 H        0.925     0.091     1.873     2.140
    31   1 H        0.925     0.103     1.755     2.072

Wiberg/Mayer (AO) data.
largest (>0.10) Wiberg bond orders for each atom

     #   Z sym  total        # sym  WBO       # sym  WBO       # sym  WBO
 ---------------------------------------------------------------------------
     1   6 C    3.948 --     2 N    2.852     3 C    1.052
     2   7 N    3.015 --     1 C    2.852
     3   6 C    3.993 --     1 C    1.052     4 C    0.980    13 H    0.942
                            14 H    0.940
     4   6 C    3.987 --     5 C    1.009     3 C    0.980    15 H    0.969
                            16 H    0.967
     5   6 C    3.936 --     4 C    1.009    17 H    0.967    18 H    0.960
                             6 N    0.931
     6   7 N    3.806 --    12 C    0.960     7 C    0.932     5 C    0.931
                            11 C    0.926
     7   6 C    3.935 --     8 C    1.007    19 H    0.967    20 H    0.965
                             6 N    0.932
     8   6 C    3.986 --     9 C    1.009     7 C    1.007    22 H    0.971
                            21 H    0.966
     9   6 C    3.991 --     8 C    1.009    10 C    1.009    24 H    0.975
                            23 H    0.972
    10   6 C    3.986 --     9 C    1.009    11 C    1.008    25 H    0.969
                            26 H    0.964
    11   6 C    3.931 --    10 C    1.008    27 H    0.968    28 H    0.967
                             6 N    0.926
    12   6 C    3.928 --    30 H    0.973    29 H    0.971    31 H    0.966
                             6 N    0.960
    13   1 H    0.994 --     3 C    0.942
    14   1 H    0.990 --     3 C    0.940
    15   1 H    0.996 --     4 C    0.969
    16   1 H    0.993 --     4 C    0.967
    17   1 H    0.993 --     5 C    0.967
    18   1 H    0.991 --     5 C    0.960
    19   1 H    0.993 --     7 C    0.967
    20   1 H    0.994 --     7 C    0.965
    21   1 H    0.994 --     8 C    0.966
    22   1 H    0.996 --     8 C    0.971
    23   1 H    0.994 --     9 C    0.972
    24   1 H    0.997 --     9 C    0.975
    25   1 H    0.996 --    10 C    0.969
    26   1 H    0.993 --    10 C    0.964
    27   1 H    0.993 --    11 C    0.968
    28   1 H    0.993 --    11 C    0.967
    29   1 H    0.990 --    12 C    0.971
    30   1 H    0.992 --    12 C    0.973
    31   1 H    0.989 --    12 C    0.966
 ---------------------------------------------------------------------------

molecular dipole:
                 x           y           z       tot (Debye)
 q only:        7.245      -5.752      -2.064
   full:        7.585      -5.415      -1.971      24.213

           -------------------------------------------------
          | TOTAL ENERGY              -36.524697636286 Eh   |
          | GRADIENT NORM               0.000222305325 Eh/α |
          | HOMO-LUMO GAP               5.776091730165 eV   |
           -------------------------------------------------

 * finished run on 2024/12/20 at 02:08:37.766
