   * xtb version 6.7.1 (edcfbbe) compiled by 'conda@3ef47c1a292c' on 2024-11-25

   ID    Z sym.   atoms
    1    6 C      1, 3, 5
    2    7 N      2, 4, 6, 7
    3    1 H      8-14

          program call               : xtb C0165.xyz --opt --namespace C0165 --charge +1
          :  Hamiltonian                  GFN2-xTB          :
 * total energy  :   -21.2320080 Eh     change       -0.1761080E-10 Eh
 * total energy  :   -21.2386319 Eh     change       -0.6623837E-02 Eh
 * total energy  :   -21.2400966 Eh     change       -0.1464713E-02 Eh
 * total energy  :   -21.2402536 Eh     change       -0.1570055E-03 Eh
 * total energy  :   -21.2403157 Eh     change       -0.6214120E-04 Eh
 * total energy  :   -21.2403222 Eh     change       -0.6439009E-05 Eh
 * total energy  :   -21.2403242 Eh     change       -0.1991690E-05 Eh
   *** GEOMETRY OPTIMIZATION CONVERGED AFTER 7 ITERATIONS ***

 final structure:
================
14
 xtb: 6.7.1 (edcfbbe)
C            0.89845591897755        0.01939722397362       -0.04307540060379
N            0.45020603185800       -1.24706171857592        0.45802318605592
C           -0.45580641002693       -1.49392949472338        1.40294297233216
N           -0.54225724764001       -2.82753592956007        1.53020580687257
C            0.34606760411849       -3.33963145894016        0.62978360866470
N            0.93760327649275       -2.37865920683702       -0.01363861889277
N           -1.25657258719545       -3.52049304607012        2.44820523869596
H            0.40284638528207        0.82800837378086        0.48765410482218
H            0.68211738250813        0.08802932731907       -1.10983831628140
H            1.97851196344256        0.09805065787083        0.08547064522576
H           -1.01104631028476       -0.76803759718514        1.96261480287939
H            0.53586499061360       -4.38182784959648        0.47267857306698
H           -2.08074224711214       -3.04787232272302        2.79641815009938
H           -1.40744875103385       -4.49193695873307        2.20798524706295

          :  Hamiltonian                  GFN2-xTB          :
         :: total energy             -21.240324162233 Eh    ::
         :: gradient norm              0.000530008982 Eh/a0 ::
         :: HOMO-LUMO gap              4.147018593051 eV    ::
         :: SCC energy               -21.513385055605 Eh    ::
         :: -> dispersion             -0.007981942553 Eh    ::
         :: repulsion energy           0.273060893372 Eh    ::

    * Orbital Energies and Occupations

         #    Occupation            Energy/Eh            Energy/eV
      -------------------------------------------------------------
         1        2.0000           -0.9386262             -25.5413
       ...           ...                  ...                  ...
         7        2.0000           -0.7962056             -21.6659
         8        2.0000           -0.7920796             -21.5536
         9        2.0000           -0.7602528             -20.6875
        10        2.0000           -0.7350493             -20.0017
        11        2.0000           -0.7289421             -19.8355
        12        2.0000           -0.7238506             -19.6970
        13        2.0000           -0.7012188             -19.0811
        14        2.0000           -0.6933251             -18.8663
        15        2.0000           -0.6568883             -17.8748
        16        2.0000           -0.6543740             -17.8064
        17        2.0000           -0.6250695             -17.0090
        18        2.0000           -0.6049049             -16.4603
        19        2.0000           -0.5857525             -15.9391 (HOMO)
        20                         -0.4333524             -11.7921 (LUMO)
        21                         -0.4096221             -11.1464
        22                         -0.2400993              -6.5334
        23                         -0.1699618              -4.6249
        24                         -0.1044514              -2.8423
        25                         -0.0966811              -2.6308
        26                         -0.0575726              -1.5666
        27                         -0.0250649              -0.6821
        28                         -0.0125441              -0.3413
        29                         -0.0013326              -0.0363
        30                          0.0428214               1.1652
       ...                                ...                  ...
        35                          0.3439887               9.3604
      -------------------------------------------------------------
                  HL-Gap            0.1524001 Eh            4.1470 eV

     #   Z          covCN         q      C6AA      α(0)
     1   6 C        3.693    -0.100    22.596     6.801
     2   7 N        3.051     0.166    18.459     6.381
     3   6 C        3.053     0.019    27.539     8.606
     4   7 N        2.922     0.148    18.730     6.428
     5   6 C        3.131     0.062    26.413     8.414
     6   7 N        2.044    -0.134    24.586     7.355
     7   7 N        2.708    -0.217    25.734     7.534
     8   1 H        0.925     0.108     1.713     2.046
     9   1 H        0.924     0.128     1.554     1.949
    10   1 H        0.924     0.129     1.540     1.941
    11   1 H        0.926     0.126     1.563     1.955
    12   1 H        0.926     0.127     1.560     1.953
    13   1 H        0.860     0.217     1.025     1.586
    14   1 H        0.860     0.221     1.004     1.569

Wiberg/Mayer (AO) data.
largest (>0.10) Wiberg bond orders for each atom

     #   Z sym  total        # sym  WBO       # sym  WBO       # sym  WBO
 ---------------------------------------------------------------------------
     1   6 C    3.919 --     2 N    0.988     8 H    0.973    10 H    0.953
                             9 H    0.953
     2   7 N    3.751 --     3 C    1.362     6 N    1.234     1 C    0.988
     3   6 C    3.934 --     2 N    1.362     4 N    1.301    11 H    0.951
                             6 N    0.108
     4   7 N    3.741 --     3 C    1.301     5 C    1.210     7 N    1.087
     5   6 C    3.938 --     6 N    1.564     4 N    1.210    12 H    0.952
     6   7 N    3.034 --     5 C    1.564     2 N    1.234     3 C    0.108
     7   7 N    3.175 --     4 N    1.087    13 H    0.933    14 H    0.932
     8   1 H    0.988 --     1 C    0.973
     9   1 H    0.983 --     1 C    0.953
    10   1 H    0.982 --     1 C    0.953
    11   1 H    0.984 --     3 C    0.951
    12   1 H    0.984 --     5 C    0.952
    13   1 H    0.953 --     7 N    0.933
    14   1 H    0.951 --     7 N    0.932
 ---------------------------------------------------------------------------

molecular dipole:
                 x           y           z       tot (Debye)
 q only:       -0.701      -3.729       2.206
   full:       -1.230      -3.838       2.420      11.950

           -------------------------------------------------
          | TOTAL ENERGY              -21.240324162233 Eh   |
          | GRADIENT NORM               0.000530008982 Eh/α |
          | HOMO-LUMO GAP               4.147018593051 eV   |
           -------------------------------------------------

 * finished run on 2024/12/20 at 02:08:42.000
