   * xtb version 6.7.1 (edcfbbe) compiled by 'conda@3ef47c1a292c' on 2024-11-25

   ID    Z sym.   atoms
    1    6 C      1-7, 10, 12-15
    2    7 N      8, 9, 11
    3    9 F      16-18
    4    8 O      19
    5    1 H      20-40

          program call               : xtb C0162.xyz --opt --namespace C0162 --charge +1
          :  Hamiltonian                  GFN2-xTB          :
 * total energy  :   -63.0479323 Eh     change       -0.1375255E-09 Eh
 * total energy  :   -63.0552356 Eh     change       -0.7303302E-02 Eh
 * total energy  :   -63.0573318 Eh     change       -0.2096176E-02 Eh
 * total energy  :   -63.0577446 Eh     change       -0.4127420E-03 Eh
 * total energy  :   -63.0580949 Eh     change       -0.3503377E-03 Eh
 * total energy  :   -63.0582645 Eh     change       -0.1695854E-03 Eh
 * total energy  :   -63.0584444 Eh     change       -0.1798772E-03 Eh
 * total energy  :   -63.0585940 Eh     change       -0.1496183E-03 Eh
 * total energy  :   -63.0587054 Eh     change       -0.1114593E-03 Eh
 * total energy  :   -63.0588495 Eh     change       -0.1440782E-03 Eh
 * total energy  :   -63.0624737 Eh     change       -0.8630938E-05 Eh
 * total energy  :   -63.0625240 Eh     change       -0.5029809E-04 Eh
 * total energy  :   -63.0625493 Eh     change       -0.2539398E-04 Eh
 * total energy  :   -63.0625723 Eh     change       -0.2294337E-04 Eh
 * total energy  :   -63.0625871 Eh     change       -0.1481398E-04 Eh
 * total energy  :   -63.0626011 Eh     change       -0.1399575E-04 Eh
 * total energy  :   -63.0626064 Eh     change       -0.5333046E-05 Eh
 * total energy  :   -63.0626133 Eh     change       -0.6914586E-05 Eh
 * total energy  :   -63.0626183 Eh     change       -0.4951067E-05 Eh
   *** GEOMETRY OPTIMIZATION CONVERGED AFTER 75 ITERATIONS ***

 final structure:
================
40
 xtb: 6.7.1 (edcfbbe)
C            2.14543453563559        0.77742429768882       -0.14945111084852
C            0.92069824875648        1.26424298042288        0.61561909693158
C            0.68420741065278        2.76957617866498        0.48337067330218
C            0.45067482474635        3.26152162461912       -0.94750894140667
C           -0.72070729540368        2.59435681801629       -1.67367756444872
C           -2.07409824143457        2.73171363081557       -0.97850243524185
C           -2.56335399226613        4.18060319106529       -0.84831002572115
N           -2.80282427127929        4.74524773902892       -2.14894075006563
N           -3.96691892124070        4.57058456119426       -2.76334175153066
C           -3.85226568959907        5.11876277990513       -3.92994109288725
N           -2.60563461520875        5.64810404100203       -4.08857635035473
C           -1.96253688508986        5.38959944984803       -2.93770249223056
C           -2.10832746387173        6.39496370513607       -5.21328451551881
C           -2.57977629106320        7.86697028562294       -5.21869948401989
C           -2.28101203252311        8.52671136515813       -3.84965140675433
F           -1.05994333066182        8.22202756106813       -3.39226586604603
F           -2.38793715973199        9.84364155025775       -3.91044192543826
F           -3.14540650935721        8.08040402413662       -2.91510767242913
O           -1.87852822939598        8.47997517002817       -6.24261793250869
H            2.00790605308827        0.86952068858192       -1.22422848979066
H            2.33279390746211       -0.26906408625802        0.07476265474601
H            3.02490097571130        1.34905267536045        0.13708458207586
H            0.03927549027994        0.71177752621812        0.28448361761034
H            1.05924359519220        1.04249826309986        1.67531472007389
H           -0.16155961724115        3.05147507676840        1.11446775717999
H            1.56071865428380        3.29131386447332        0.87246688723078
H            0.31004276870853        4.34588731973863       -0.91532933380516
H            1.35261747812952        3.07856186715683       -1.53234465842562
H           -0.78193335339365        2.99501432724929       -2.69152056341913
H           -0.50781769944026        1.53027390668262       -1.77215763282562
H           -2.82433689230219        2.15828478621997       -1.52595221820918
H           -2.01094469292176        2.31866129587950        0.02664237776100
H           -3.51247205020924        4.20086735142274       -0.31102301306261
H           -1.82740503330851        4.79198983575601       -0.32621872168570
H           -4.62804331638875        5.14368645531184       -4.66805098549696
H           -0.95546909096197        5.67651239573499       -2.70250789180202
H           -1.01507238682992        6.39985978020042       -5.20233625130393
H           -2.44292510528695        5.93538277393899       -6.14596415259095
H           -3.67335548486141        7.92891151543831       -5.35389585159729
H           -2.12488829131874        9.40876142735426       -6.34955128545957

          :  Hamiltonian                  GFN2-xTB          :
         :: total energy             -63.062618299197 Eh    ::
         :: gradient norm              0.000993564849 Eh/a0 ::
         :: HOMO-LUMO gap              1.986653139471 eV    ::
         :: SCC energy               -63.712851245975 Eh    ::
         :: -> dispersion             -0.033872705675 Eh    ::
         :: repulsion energy           0.650232946778 Eh    ::

    * Orbital Energies and Occupations

         #    Occupation            Energy/Eh            Energy/eV
      -------------------------------------------------------------
         1        2.0000           -1.0239233             -27.8624
       ...           ...                  ...                  ...
        43        2.0000           -0.6101671             -16.6035
        44        2.0000           -0.6021694             -16.3859
        45        2.0000           -0.5951346             -16.1944
        46        2.0000           -0.5885424             -16.0151
        47        2.0000           -0.5873266             -15.9820
        48        2.0000           -0.5743286             -15.6283
        49        2.0000           -0.5710989             -15.5404
        50        2.0000           -0.5552192             -15.1083
        51        2.0000           -0.5488717             -14.9356
        52        2.0000           -0.5407806             -14.7154
        53        2.0000           -0.5188391             -14.1183
        54        2.0000           -0.5135424             -13.9742
        55        2.0000           -0.5081800             -13.8283 (HOMO)
        56                         -0.4351719             -11.8416 (LUMO)
        57                         -0.4119147             -11.2088
        58                         -0.2173371              -5.9140
        59                         -0.1669435              -4.5428
        60                         -0.1438896              -3.9154
        61                         -0.1340224              -3.6469
        62                         -0.1183642              -3.2209
        63                         -0.0992201              -2.6999
        64                         -0.0824985              -2.2449
        65                         -0.0601317              -1.6363
        66                         -0.0476376              -1.2963
       ...                                ...                  ...
        97                          0.3529566               9.6044
      -------------------------------------------------------------
                  HL-Gap            0.0730082 Eh            1.9867 eV

     #   Z          covCN         q      C6AA      α(0)
     1   6 C        3.751    -0.107    22.608     6.781
     2   6 C        3.800    -0.057    21.604     6.618
     3   6 C        3.801    -0.064    21.720     6.635
     4   6 C        3.800    -0.064    21.727     6.637
     5   6 C        3.800    -0.067    21.783     6.645
     6   6 C        3.802    -0.073    21.892     6.661
     7   6 C        3.743    -0.039    21.344     6.591
     8   7 N        3.059     0.169    18.404     6.372
     9   7 N        2.046    -0.132    24.543     7.349
    10   6 C        3.139     0.087    25.852     8.321
    11   7 N        2.855     0.038    20.583     6.738
    12   6 C        3.062     0.055    26.711     8.475
    13   6 C        3.741    -0.032    21.220     6.572
    14   6 C        3.724     0.099    19.041     6.231
    15   6 C        3.327     0.472    17.603     6.664
    16   9 F        0.790    -0.195    11.182     3.950
    17   9 F        0.790    -0.171    10.936     3.906
    18   9 F        0.790    -0.216    11.402     3.989
    19   8 O        1.659    -0.400    20.858     6.165
    20   1 H        0.925     0.032     2.556     2.500
    21   1 H        0.925     0.043     2.403     2.424
    22   1 H        0.925     0.041     2.430     2.438
    23   1 H        0.924     0.030     2.584     2.514
    24   1 H        0.924     0.041     2.432     2.439
    25   1 H        0.924     0.028     2.615     2.529
    26   1 H        0.924     0.045     2.377     2.411
    27   1 H        0.924     0.016     2.800     2.617
    28   1 H        0.924     0.052     2.295     2.369
    29   1 H        0.924     0.015     2.808     2.620
    30   1 H        0.925     0.070     2.080     2.256
    31   1 H        0.924     0.064     2.158     2.297
    32   1 H        0.925     0.089     1.884     2.146
    33   1 H        0.924     0.114     1.664     2.017
    34   1 H        0.925     0.100     1.785     2.089
    35   1 H        0.926     0.124     1.585     1.968
    36   1 H        0.926     0.137     1.484     1.905
    37   1 H        0.924     0.124     1.579     1.965
    38   1 H        0.924     0.122     1.593     1.974
    39   1 H        0.923     0.067     2.116     2.275
    40   1 H        0.805     0.340     0.611     1.228

Wiberg/Mayer (AO) data.
largest (>0.10) Wiberg bond orders for each atom

     #   Z sym  total        # sym  WBO       # sym  WBO       # sym  WBO
 ---------------------------------------------------------------------------
     1   6 C    3.996 --     2 C    1.020    22 H    0.987    21 H    0.986
                            20 H    0.986
     2   6 C    3.997 --     1 C    1.020     3 C    1.008    24 H    0.977
                            23 H    0.976
     3   6 C    3.995 --     2 C    1.008     4 C    1.007    25 H    0.975
                            26 H    0.975
     4   6 C    3.995 --     3 C    1.007     5 C    1.006    27 H    0.974
                            28 H    0.973
     5   6 C    3.993 --     6 C    1.010     4 C    1.006    29 H    0.973
                            30 H    0.966
     6   6 C    3.978 --     5 C    1.010    31 H    0.973     7 C    0.969
                            32 H    0.959
     7   6 C    3.919 --     6 C    0.969     8 N    0.964    34 H    0.957
                            33 H    0.957
     8   7 N    3.758 --    12 C    1.422     9 N    1.207     7 C    0.964
     9   7 N    3.032 --    10 C    1.603     8 N    1.207
    10   6 C    3.947 --     9 N    1.603    11 N    1.230    35 H    0.953
    11   7 N    3.697 --    12 C    1.312    10 C    1.230    13 C    0.984
    12   6 C    3.945 --     8 N    1.422    11 N    1.312    36 H    0.946
    13   6 C    3.937 --    11 N    0.984    14 C    0.967    37 H    0.958
                            38 H    0.955
    14   6 C    3.968 --    19 O    1.038    13 C    0.967    39 H    0.950
                            15 C    0.914
    15   6 C    3.834 --    17 F    0.983    16 F    0.955    18 F    0.935
                            14 C    0.914
    16   9 F    1.083 --    15 C    0.955
    17   9 F    1.114 --    15 C    0.983
    18   9 F    1.060 --    15 C    0.935
    19   8 O    1.989 --    14 C    1.038    40 H    0.866
    20   1 H    0.999 --     1 C    0.986
    21   1 H    0.998 --     1 C    0.986
    22   1 H    0.998 --     1 C    0.987
    23   1 H    0.999 --     2 C    0.976
    24   1 H    0.998 --     2 C    0.977
    25   1 H    0.999 --     3 C    0.975
    26   1 H    0.998 --     3 C    0.975
    27   1 H    1.000 --     4 C    0.974
    28   1 H    0.997 --     4 C    0.973
    29   1 H    1.000 --     5 C    0.973
    30   1 H    0.995 --     5 C    0.966
    31   1 H    0.996 --     6 C    0.973
    32   1 H    0.991 --     6 C    0.959
    33   1 H    0.986 --     7 C    0.957
    34   1 H    0.990 --     7 C    0.957
    35   1 H    0.985 --    10 C    0.953
    36   1 H    0.981 --    12 C    0.946
    37   1 H    0.984 --    13 C    0.958
    38   1 H    0.984 --    13 C    0.955
    39   1 H    0.995 --    14 C    0.950
    40   1 H    0.884 --    19 O    0.866
 ---------------------------------------------------------------------------

molecular dipole:
                 x           y           z       tot (Debye)
 q only:       -4.489       9.406      -6.252
   full:       -4.458       9.890      -6.505      32.150

           -------------------------------------------------
          | TOTAL ENERGY              -63.062618299197 Eh   |
          | GRADIENT NORM               0.000993564849 Eh/α |
          | HOMO-LUMO GAP               1.986653139471 eV   |
           -------------------------------------------------

 * finished run on 2024/12/20 at 02:08:36.372
