   * xtb version 6.7.1 (edcfbbe) compiled by 'conda@3ef47c1a292c' on 2024-11-25

   ID    Z sym.   atoms
    1    9 F      1, 17, 18
    2    6 C      2-4, 6, 7, 9-11, 14-16
    3    7 N      5, 8
    4    8 O      12
    5   14 Si     13
    6    1 H      19-38

          program call               : xtb C0167.xyz --opt --namespace C0167 --charge +1
          :  Hamiltonian                  GFN2-xTB          :
 * total energy  :   -59.2563996 Eh     change       -0.5313723E-09 Eh
 * total energy  :   -59.2647036 Eh     change       -0.8303977E-02 Eh
 * total energy  :   -59.2667510 Eh     change       -0.2047368E-02 Eh
 * total energy  :   -59.2673600 Eh     change       -0.6089860E-03 Eh
 * total energy  :   -59.2679069 Eh     change       -0.5469452E-03 Eh
 * total energy  :   -59.2681839 Eh     change       -0.2770273E-03 Eh
 * total energy  :   -59.2684269 Eh     change       -0.2430017E-03 Eh
 * total energy  :   -59.2686270 Eh     change       -0.2000810E-03 Eh
 * total energy  :   -59.2687909 Eh     change       -0.1638588E-03 Eh
 * total energy  :   -59.2689308 Eh     change       -0.1398960E-03 Eh
 * total energy  :   -59.2777415 Eh     change       -0.5243135E-04 Eh
 * total energy  :   -59.2777530 Eh     change       -0.1149302E-04 Eh
 * total energy  :   -59.2777734 Eh     change       -0.2034647E-04 Eh
 * total energy  :   -59.2777916 Eh     change       -0.1826290E-04 Eh
 * total energy  :   -59.2778007 Eh     change       -0.9066085E-05 Eh
 * total energy  :   -59.2778285 Eh     change       -0.2782048E-04 Eh
 * total energy  :   -59.2778372 Eh     change       -0.8649832E-05 Eh
 * total energy  :   -59.2778482 Eh     change       -0.1098291E-04 Eh
 * total energy  :   -59.2778527 Eh     change       -0.4527025E-05 Eh
   *** GEOMETRY OPTIMIZATION CONVERGED AFTER 88 ITERATIONS ***

 final structure:
================
38
 xtb: 6.7.1 (edcfbbe)
F           -0.22211887095610        1.08797018012696       -2.29895297929897
C            0.84512315529285        0.63687067621006       -1.62832251395505
C            2.09033842368967        0.58558870320188       -2.50426263624090
C            2.29288020530420        1.89207851173638       -3.28155195305463
N            2.37791553905881        3.02393188946228       -2.38680228868893
C            1.40122745746198        3.95059453463342       -2.17121975560256
C            1.83600735393188        4.76828563253055       -1.17386425887707
N            3.07139998596283        4.33260314401271       -0.80293606040529
C            3.37934141246032        3.27510739719602       -1.54311824012625
C            3.84976442084271        4.77856470458140        0.32276959279484
C            3.67811568028524        3.75716737534287        1.46274467096714
O            4.02641643950438        2.50056483151128        0.97965311132768
Si           4.11952026399904        1.09432808383774        1.88463498350087
C            2.43986376299957        0.74932650935509        2.70292844776434
C            4.52443915318253       -0.16215150576086        0.51575748646869
C            5.50784650250437        1.25495441684866        3.17185764905877
F            1.00604698201039        1.47506755480919       -0.58349382253171
F            0.54310753473084       -0.55312886894001       -1.12459018454311
H            2.93942369546130        0.37435228947870       -1.85055508109779
H            1.96941870144973       -0.24168507086140       -3.20569375318872
H            3.21295438449055        1.81849438326727       -3.86674083405783
H            1.45427096467710        2.05724626454824       -3.96234738515127
H            0.48099618441885        3.96013775122140       -2.71950688557987
H            1.35809776444884        5.61211421861671       -0.71962653627613
H            4.28614849833103        2.71040235051331       -1.45164294400629
H            4.90226755198847        4.81884924968213        0.03453874926676
H            3.51370973871097        5.76627986057287        0.63683159196164
H            4.32025150648172        4.05209223745531        2.29780211278226
H            2.63661908573345        3.75222399679555        1.80504277783284
H            1.61999339113197        0.84673793583704        1.99601504647931
H            2.39954329518920       -0.25569042473658        3.10881860815499
H            2.24623784586324        1.43307268860646        3.52528235642887
H            5.11621258809910        0.26255022738567       -0.28972047927031
H            5.09855531845292       -0.97913295567937        0.93745262895911
H            3.62395024416200       -0.60136817788974        0.09675954225787
H            6.44865110919166        1.54858588393545        2.71325658385765
H            5.27015980102223        1.99233174299972        3.93456979772207
H            5.67815292842569        0.31323177755921        3.68277285436959

          :  Hamiltonian                  GFN2-xTB          :
         :: total energy             -59.277852691291 Eh    ::
         :: gradient norm              0.000797548819 Eh/a0 ::
         :: HOMO-LUMO gap              2.322013103212 eV    ::
         :: SCC energy               -59.912792806010 Eh    ::
         :: -> dispersion             -0.034509409650 Eh    ::
         :: repulsion energy           0.634940114719 Eh    ::

    * Orbital Energies and Occupations

         #    Occupation            Energy/Eh            Energy/eV
      -------------------------------------------------------------
         1        2.0000           -1.0013525             -27.2482
       ...           ...                  ...                  ...
        40        2.0000           -0.6132343             -16.6870
        41        2.0000           -0.6037593             -16.4291
        42        2.0000           -0.5845575             -15.9066
        43        2.0000           -0.5708868             -15.5346
        44        2.0000           -0.5677431             -15.4491
        45        2.0000           -0.5593363             -15.2203
        46        2.0000           -0.5589134             -15.2088
        47        2.0000           -0.5559451             -15.1280
        48        2.0000           -0.5506240             -14.9832
        49        2.0000           -0.5480260             -14.9125
        50        2.0000           -0.5471667             -14.8892
        51        2.0000           -0.4985064             -13.5650
        52        2.0000           -0.4915686             -13.3763 (HOMO)
        53                         -0.4062362             -11.0542 (LUMO)
        54                         -0.3686104             -10.0304
        55                         -0.2395113              -6.5174
        56                         -0.2208505              -6.0096
        57                         -0.2142950              -5.8313
        58                         -0.1876819              -5.1071
        59                         -0.1354034              -3.6845
        60                         -0.1178669              -3.2073
        61                         -0.1136169              -3.0917
        62                         -0.0947545              -2.5784
        63                         -0.0885210              -2.4088
       ...                                ...                  ...
        97                          0.5856660              15.9368
      -------------------------------------------------------------
                  HL-Gap            0.0853324 Eh            2.3220 eV

     #   Z          covCN         q      C6AA      α(0)
     1   9 F        0.791    -0.198    11.215     3.956
     2   6 C        3.329     0.488    17.345     6.610
     3   6 C        3.804    -0.104    22.491     6.752
     4   6 C        3.742    -0.027    21.133     6.558
     5   7 N        2.872     0.063    20.149     6.667
     6   6 C        3.066    -0.003    28.041     8.683
     7   6 C        3.070    -0.006    28.093     8.691
     8   7 N        2.875     0.085    19.765     6.603
     9   6 C        3.093     0.053    26.702     8.469
    10   6 C        3.744    -0.035    21.277     6.580
    11   6 C        3.733     0.074    19.426     6.291
    12   8 O        1.620    -0.398    20.837     6.161
    13  14 Si       3.448     0.554   101.786    19.669
    14   6 C        3.650    -0.217    25.190     7.210
    15   6 C        3.650    -0.212    25.082     7.194
    16   6 C        3.650    -0.215    25.141     7.203
    17   9 F        0.791    -0.216    11.397     3.988
    18   9 F        0.791    -0.181    11.044     3.926
    19   1 H        0.924     0.107     1.727     2.055
    20   1 H        0.924     0.116     1.643     2.004
    21   1 H        0.924     0.104     1.748     2.068
    22   1 H        0.924     0.111     1.689     2.032
    23   1 H        0.926     0.115     1.657     2.013
    24   1 H        0.926     0.112     1.680     2.027
    25   1 H        0.926     0.131     1.530     1.934
    26   1 H        0.924     0.100     1.784     2.089
    27   1 H        0.925     0.096     1.827     2.113
    28   1 H        0.924     0.060     2.194     2.316
    29   1 H        0.924     0.048     2.344     2.394
    30   1 H        0.925     0.048     2.350     2.397
    31   1 H        0.925     0.052     2.289     2.366
    32   1 H        0.925     0.044     2.402     2.424
    33   1 H        0.925     0.032     2.556     2.500
    34   1 H        0.925     0.043     2.414     2.430
    35   1 H        0.925     0.031     2.572     2.508
    36   1 H        0.925     0.051     2.313     2.378
    37   1 H        0.925     0.044     2.396     2.420
    38   1 H        0.925     0.052     2.292     2.368

Wiberg/Mayer (AO) data.
largest (>0.10) Wiberg bond orders for each atom

     #   Z sym  total        # sym  WBO       # sym  WBO       # sym  WBO
 ---------------------------------------------------------------------------
     1   9 F    1.080 --     2 C    0.953
     2   6 C    3.840 --    18 F    0.973     3 C    0.959     1 F    0.953
                            17 F    0.935
     3   6 C    3.976 --     4 C    0.995    20 H    0.959     2 C    0.959
                            19 H    0.958
     4   6 C    3.947 --     3 C    0.995     5 N    0.979    22 H    0.963
                            21 H    0.959
     5   7 N    3.705 --     9 C    1.346     6 C    1.220     4 C    0.979
     6   6 C    3.947 --     7 C    1.596     5 N    1.220    23 H    0.959
     7   6 C    3.947 --     6 C    1.596     8 N    1.223    24 H    0.960
     8   7 N    3.726 --     9 C    1.372     7 C    1.223    10 C    0.979
     9   6 C    3.943 --     8 N    1.372     5 N    1.346    25 H    0.949
    10   6 C    3.943 --     8 N    0.979    11 C    0.970    27 H    0.967
                            26 H    0.960
    11   6 C    3.957 --    12 O    1.016    29 H    0.971    10 C    0.970
                            28 H    0.966
    12   8 O    2.190 --    11 C    1.016    13 Si   0.995
    13  14 Si   3.766 --    12 O    0.995    16 C    0.907    14 C    0.906
                            15 C    0.878
    14   6 C    3.983 --    31 H    0.987    32 H    0.983    30 H    0.980
                            13 Si   0.906
    15   6 C    3.981 --    34 H    0.995    33 H    0.988    35 H    0.987
                            13 Si   0.878
    16   6 C    3.983 --    38 H    0.986    37 H    0.982    36 H    0.980
                            13 Si   0.907
    17   9 F    1.061 --     2 C    0.935
    18   9 F    1.100 --     2 C    0.973
    19   1 H    0.989 --     3 C    0.958
    20   1 H    0.986 --     3 C    0.959
    21   1 H    0.989 --     4 C    0.959
    22   1 H    0.987 --     4 C    0.963
    23   1 H    0.987 --     6 C    0.959
    24   1 H    0.987 --     7 C    0.960
    25   1 H    0.983 --     9 C    0.949
    26   1 H    0.990 --    10 C    0.960
    27   1 H    0.990 --    10 C    0.967
    28   1 H    0.996 --    11 C    0.966
    29   1 H    0.998 --    11 C    0.971
    30   1 H    0.998 --    14 C    0.980
    31   1 H    0.997 --    14 C    0.987
    32   1 H    0.998 --    14 C    0.983
    33   1 H    0.999 --    15 C    0.988
    34   1 H    0.998 --    15 C    0.995
    35   1 H    0.999 --    15 C    0.987
    36   1 H    0.997 --    16 C    0.980
    37   1 H    0.998 --    16 C    0.982
    38   1 H    0.997 --    16 C    0.986
 ---------------------------------------------------------------------------

molecular dipole:
                 x           y           z       tot (Debye)
 q only:        6.141       6.278      -2.505
   full:        6.194       6.300      -2.390      23.263

           -------------------------------------------------
          | TOTAL ENERGY              -59.277852691291 Eh   |
          | GRADIENT NORM               0.000797548819 Eh/α |
          | HOMO-LUMO GAP               2.322013103212 eV   |
           -------------------------------------------------

 * finished run on 2024/12/20 at 02:08:45.733
