   * xtb version 6.7.1 (edcfbbe) compiled by 'conda@3ef47c1a292c' on 2024-11-25

   ID    Z sym.   atoms
    1    6 C      1, 2, 4, 6, 8-12, 14-19, 22-27, 31, 32
    2    8 O      3, 5, 13, 29, 30
    3    7 N      7, 21
    4   17 Cl     20
    5   16 S      28
    6    1 H      33-54

          program call               : xtb C0161.xyz --opt --namespace C0161 --charge +1
          :  Hamiltonian                  GFN2-xTB          :
 * total energy  :   -94.0688612 Eh     change       -0.5353229E-09 Eh
 * total energy  :   -94.0837181 Eh     change       -0.1485698E-01 Eh
 * total energy  :   -94.0881853 Eh     change       -0.4467153E-02 Eh
 * total energy  :   -94.0889697 Eh     change       -0.7843742E-03 Eh
 * total energy  :   -94.0895997 Eh     change       -0.6300500E-03 Eh
 * total energy  :   -94.0899538 Eh     change       -0.3541226E-03 Eh
 * total energy  :   -94.0904017 Eh     change       -0.4478518E-03 Eh
 * total energy  :   -94.0908675 Eh     change       -0.4657678E-03 Eh
 * total energy  :   -94.0912917 Eh     change       -0.4242589E-03 Eh
 * total energy  :   -94.0916892 Eh     change       -0.3975115E-03 Eh
 * total energy  :   -94.1026410 Eh     change       -0.1124955E-04 Eh
 * total energy  :   -94.1026539 Eh     change       -0.1291878E-04 Eh
 * total energy  :   -94.1026633 Eh     change       -0.9425545E-05 Eh
 * total energy  :   -94.1026701 Eh     change       -0.6827131E-05 Eh
 * total energy  :   -94.1026774 Eh     change       -0.7220862E-05 Eh
 * total energy  :   -94.1026852 Eh     change       -0.7838406E-05 Eh
 * total energy  :   -94.1026922 Eh     change       -0.7014995E-05 Eh
 * total energy  :   -94.1026981 Eh     change       -0.5880822E-05 Eh
 * total energy  :   -94.1027029 Eh     change       -0.4785275E-05 Eh
   *** GEOMETRY OPTIMIZATION CONVERGED AFTER 134 ITERATIONS ***

 final structure:
================
54
 xtb: 6.7.1 (edcfbbe)
C            1.39903308708952        1.12795061710316       -0.50373578281603
C            0.54108121492096        0.40375717703836        0.52087489080096
O            1.13301999440840        0.47178207826737        1.83155388328451
C            2.05852529770520       -0.42678304625217        2.12194686258599
O            2.44491154384294       -1.30836230985364        1.41209407808771
C            2.60686576576559       -0.21341672034362        3.54547182186761
N            2.24904426187391        1.06910891732939        4.07758798481057
C            2.72269999923154        2.27330495177618        3.67483276865796
C            3.74834748763714        2.46600860190212        2.71296554767042
C            4.52218093749994        3.57381238937879        2.38019699016110
C            5.37692105758454        3.17453268848570        1.35779395656541
C            5.09719704160540        1.83987246760204        1.09431618332601
O            4.12293662508949        1.41830590557762        1.92036167554968
C            5.67247540991062        0.93834765563544        0.12842473843740
C            5.22857077127849       -0.38676204177358        0.02347115595433
C            5.77742191320201       -1.23994545909330       -0.90881195202806
C            6.78578567340943       -0.78708501531031       -1.75345601186191
C            7.24156870197474        0.52559895753678       -1.65954098565287
C            6.69036315502373        1.37819145815771       -0.72968306303655
Cl           7.47031883703042       -1.84637401209711       -2.91460446086892
N            2.06731178240965        3.25476495016676        4.33971197493987
C            1.14504698113647        2.67150998955290        5.18248536409274
C            1.25057340719743        1.27968855187460        5.00246571674453
C            0.42416439274978        0.40325978334683        5.69057176649615
C           -0.49376126081522        0.96499080927565        6.55054307618136
C           -0.60624189896465        2.33891849697704        6.73802177391882
C            0.21673294279034        3.21903716717842        6.06155913797125
S           -1.67036158470353       -0.15229865409562        7.36461113414244
O           -2.95566081521832        0.47212420069797        7.28591695666948
O           -1.47509541658034       -1.44299244596567        6.77174478084089
C           -1.12196158521737       -0.19450006054247        9.08705230480604
C            2.21858597866776        4.67378057175840        4.16179763449608
H            1.55545721208780        2.16352354270207       -0.20901597009205
H            0.89639776062811        1.11091563379651       -1.46563152163720
H            2.36379340277710        0.63615971254886       -0.60733044644111
H           -0.43521216441994        0.87731429095742        0.63262034564285
H            0.41931991097086       -0.64689234734196        0.24485946771323
H            2.18813610827180       -0.99275362751517        4.18599681774256
H            3.69232858279889       -0.34116147947827        3.51429045068404
H            4.50981997032947        4.54113570633105        2.83490653682658
H            6.10861319673744        3.78634594293973        0.87439692605927
H            4.44540948617604       -0.75109552502544        0.66880947997265
H            5.42596321436709       -2.25623095071459       -0.98435766849314
H            8.02430193001101        0.86800511877741       -2.31716781874986
H            7.05020618971098        2.39199520964037       -0.66602277698395
H            0.43623018194122       -0.66784853584731        5.57132975487919
H           -1.37205305180983        2.70488631037754        7.40248505808905
H            0.12579839692925        4.28221957606899        6.21033347980703
H           -0.09668941526821       -0.53996672423871        9.10850956652146
H           -1.22015447871043        0.79835650297079        9.50550089929940
H           -1.76454343791815       -0.88989076791669        9.61429494527716
H            3.10577531827258        5.04082656882624        4.68075750366937
H            2.28974027292181        4.91280101477835        3.10120666108226
H            1.34401971373772        5.17234620605726        4.57286640643345

          :  Hamiltonian                  GFN2-xTB          :
         :: total energy             -94.102702886849 Eh    ::
         :: gradient norm              0.000456194010 Eh/a0 ::
         :: HOMO-LUMO gap              1.640631420217 eV    ::
         :: SCC energy               -95.339525757743 Eh    ::
         :: -> dispersion             -0.067012276070 Eh    ::
         :: repulsion energy           1.236822870894 Eh    ::

    * Orbital Energies and Occupations

         #    Occupation            Energy/Eh            Energy/eV
      -------------------------------------------------------------
         1        2.0000           -1.1365647             -30.9275
       ...           ...                  ...                  ...
        71        2.0000           -0.5519106             -15.0183
        72        2.0000           -0.5506377             -14.9836
        73        2.0000           -0.5471505             -14.8887
        74        2.0000           -0.5432841             -14.7835
        75        2.0000           -0.5368793             -14.6092
        76        2.0000           -0.5346792             -14.5494
        77        2.0000           -0.5303590             -14.4318
        78        2.0000           -0.5258629             -14.3095
        79        2.0000           -0.5205342             -14.1645
        80        2.0000           -0.5194539             -14.1351
        81        2.0000           -0.5095386             -13.8653
        82        2.0000           -0.5014722             -13.6458
        83        2.0000           -0.4865591             -13.2399 (HOMO)
        84                         -0.4262670             -11.5993 (LUMO)
        85                         -0.3746946             -10.1960
        86                         -0.3682922             -10.0217
        87                         -0.3547546              -9.6534
        88                         -0.3514059              -9.5622
        89                         -0.3351586              -9.1201
        90                         -0.3001890              -8.1686
        91                         -0.2808124              -7.6413
        92                         -0.2505433              -6.8176
        93                         -0.2209131              -6.0114
        94                         -0.2148476              -5.8463
       ...                                ...                  ...
       160                          1.1367631              30.9329
      -------------------------------------------------------------
                  HL-Gap            0.0602921 Eh            1.6406 eV

     #   Z          covCN         q      C6AA      α(0)
     1   6 C        3.750    -0.117    22.797     6.809
     2   6 C        3.699     0.072    19.534     6.321
     3   8 O        1.703    -0.260    18.310     5.777
     4   6 C        2.714     0.365    20.809     7.467
     5   8 O        0.856    -0.374    21.161     6.168
     6   6 C        3.741    -0.046    21.484     6.613
     7   7 N        2.822     0.017    20.951     6.798
     8   6 C        3.053     0.106    25.611     8.300
     9   6 C        3.067     0.091    25.917     8.348
    10   6 C        3.003    -0.049    29.195     8.863
    11   6 C        3.004    -0.059    29.447     8.901
    12   6 C        3.075     0.143    24.823     8.169
    13   8 O        1.727    -0.187    17.126     5.588
    14   6 C        2.969    -0.002    28.072     8.691
    15   6 C        2.924    -0.025    28.635     8.776
    16   6 C        2.953    -0.032    28.807     8.803
    17   6 C        2.887     0.113    25.516     8.281
    18   6 C        2.953    -0.032    28.808     8.803
    19   6 C        2.924    -0.026    28.650     8.778
    20  17 Cl       0.970    -0.111   102.613    15.497
    21   7 N        2.819     0.010    21.075     6.818
    22   6 C        3.083     0.044    26.915     8.505
    23   6 C        3.088     0.047    26.852     8.494
    24   6 C        2.952    -0.037    28.925     8.821
    25   6 C        2.974    -0.074    29.830     8.959
    26   6 C        2.952    -0.023    28.576     8.768
    27   6 C        2.911    -0.034    28.841     8.806
    28  16 S        3.731     0.982   107.157    17.423
    29   8 O        0.860    -0.522    24.274     6.606
    30   8 O        0.860    -0.531    24.481     6.634
    31   6 C        3.746    -0.200    24.513     7.062
    32   6 C        3.690    -0.076    22.142     6.734
    33   1 H        0.925     0.049     2.338     2.391
    34   1 H        0.925     0.070     2.080     2.256
    35   1 H        0.925     0.061     2.190     2.314
    36   1 H        0.924     0.073     2.052     2.240
    37   1 H        0.924     0.075     2.029     2.228
    38   1 H        0.924     0.112     1.676     2.024
    39   1 H        0.924     0.111     1.689     2.033
    40   1 H        0.927     0.070     2.086     2.259
    41   1 H        0.927     0.074     2.038     2.232
    42   1 H        0.926     0.079     1.994     2.208
    43   1 H        0.926     0.082     1.955     2.186
    44   1 H        0.926     0.080     1.979     2.200
    45   1 H        0.926     0.063     2.160     2.298
    46   1 H        0.926     0.093     1.850     2.127
    47   1 H        0.926     0.089     1.887     2.148
    48   1 H        0.926     0.078     1.996     2.209
    49   1 H        0.926     0.085     1.931     2.173
    50   1 H        0.926     0.089     1.890     2.150
    51   1 H        0.925     0.111     1.686     2.030
    52   1 H        0.924     0.090     1.882     2.145
    53   1 H        0.925     0.091     1.870     2.138
    54   1 H        0.925     0.101     1.779     2.086

Wiberg/Mayer (AO) data.
largest (>0.10) Wiberg bond orders for each atom

     #   Z sym  total        # sym  WBO       # sym  WBO       # sym  WBO
 ---------------------------------------------------------------------------
     1   6 C    3.989 --     2 C    1.015    33 H    0.986    35 H    0.983
                            34 H    0.979
     2   6 C    3.905 --     1 C    1.015    36 H    0.970    37 H    0.969
                             3 O    0.913
     3   8 O    2.327 --     4 C    1.172     2 C    0.913     5 O    0.185
     4   6 C    3.932 --     5 O    1.764     3 O    1.172     6 C    0.924
     5   8 O    2.077 --     4 C    1.764     3 O    0.185
     6   6 C    3.950 --     7 N    0.995    39 H    0.946    38 H    0.943
                             4 C    0.924
     7   7 N    3.633 --     8 C    1.250    23 C    1.129     6 C    0.995
     8   6 C    3.946 --    21 N    1.256     7 N    1.250     9 C    1.184
     9   6 C    3.887 --    10 C    1.395     8 C    1.184    13 O    1.068
    10   6 C    3.966 --    11 C    1.421     9 C    1.395    40 H    0.967
    11   6 C    3.973 --    10 C    1.421    12 C    1.409    41 H    0.968
    12   6 C    3.890 --    11 C    1.409    13 O    1.132    14 C    1.125
    13   8 O    2.423 --    12 C    1.132     9 C    1.068
    14   6 C    3.982 --    15 C    1.341    19 C    1.334    12 C    1.125
    15   6 C    3.980 --    16 C    1.478    14 C    1.341    42 H    0.956
    16   6 C    3.983 --    15 C    1.478    17 C    1.375    43 H    0.964
    17   6 C    3.904 --    16 C    1.375    18 C    1.368    20 Cl   1.026
    18   6 C    3.984 --    19 C    1.487    17 C    1.368    44 H    0.964
    19   6 C    3.975 --    18 C    1.487    14 C    1.334    45 H    0.964
    20  17 Cl   1.176 --    17 C    1.026
    21   7 N    3.623 --     8 C    1.256    22 C    1.134    32 C    0.993
    22   6 C    3.952 --    27 C    1.344    23 C    1.266    21 N    1.134
    23   6 C    3.955 --    24 C    1.347    22 C    1.266     7 N    1.129
    24   6 C    3.973 --    25 C    1.464    23 C    1.347    46 H    0.952
                            27 C    0.112
    25   6 C    3.963 --    24 C    1.464    26 C    1.377    28 S    0.758
    26   6 C    3.974 --    27 C    1.479    25 C    1.377    47 H    0.961
    27   6 C    3.975 --    26 C    1.479    22 C    1.344    48 H    0.960
                            24 C    0.112
    28  16 S    4.948 --    29 O    1.675    30 O    1.667    31 C    0.783
                            25 C    0.758
    29   8 O    1.978 --    28 S    1.675    30 O    0.115
    30   8 O    1.965 --    28 S    1.667    29 O    0.115
    31   6 C    3.972 --    49 H    0.980    50 H    0.979    51 H    0.968
                            28 S    0.783
    32   6 C    3.941 --    21 N    0.993    54 H    0.970    53 H    0.967
                            52 H    0.964
    33   1 H    0.998 --     1 C    0.986
    34   1 H    0.994 --     1 C    0.979
    35   1 H    0.996 --     1 C    0.983
    36   1 H    0.995 --     2 C    0.970
    37   1 H    0.994 --     2 C    0.969
    38   1 H    0.987 --     6 C    0.943
    39   1 H    0.986 --     6 C    0.946
    40   1 H    0.995 --    10 C    0.967
    41   1 H    0.994 --    11 C    0.968
    42   1 H    0.994 --    15 C    0.956
    43   1 H    0.993 --    16 C    0.964
    44   1 H    0.993 --    18 C    0.964
    45   1 H    0.996 --    19 C    0.964
    46   1 H    0.991 --    24 C    0.952
    47   1 H    0.992 --    26 C    0.961
    48   1 H    0.992 --    27 C    0.960
    49   1 H    0.993 --    31 C    0.980
    50   1 H    0.992 --    31 C    0.979
    51   1 H    0.987 --    31 C    0.968
    52   1 H    0.990 --    32 C    0.964
    53   1 H    0.990 --    32 C    0.967
    54   1 H    0.989 --    32 C    0.970
 ---------------------------------------------------------------------------

molecular dipole:
                 x           y           z       tot (Debye)
 q only:        6.251       5.463       6.977
   full:        6.424       5.356       6.991      27.707

           -------------------------------------------------
          | TOTAL ENERGY              -94.102702886849 Eh   |
          | GRADIENT NORM               0.000456194010 Eh/α |
          | HOMO-LUMO GAP               1.640631420217 eV   |
           -------------------------------------------------

 * finished run on 2024/12/20 at 02:08:34.361
