   * xtb version 6.7.1 (edcfbbe) compiled by 'conda@3ef47c1a292c' on 2024-11-25

   ID    Z sym.   atoms
    1    6 C      1-6, 9-18
    2    7 N      7, 8
    3    1 H      19-41

          program call               : xtb C0172.xyz --opt --namespace C0172 --charge +1
          :  Hamiltonian                  GFN2-xTB          :
 * total energy  :   -51.4458543 Eh     change       -0.1421284E-08 Eh
 * total energy  :   -51.4656777 Eh     change       -0.1982340E-01 Eh
 * total energy  :   -51.4695620 Eh     change       -0.3884361E-02 Eh
 * total energy  :   -51.4702829 Eh     change       -0.7208866E-03 Eh
 * total energy  :   -51.4708044 Eh     change       -0.5214500E-03 Eh
 * total energy  :   -51.4709814 Eh     change       -0.1770119E-03 Eh
 * total energy  :   -51.4711445 Eh     change       -0.1631663E-03 Eh
 * total energy  :   -51.4712751 Eh     change       -0.1305318E-03 Eh
 * total energy  :   -51.4713956 Eh     change       -0.1205575E-03 Eh
 * total energy  :   -51.4714885 Eh     change       -0.9286224E-04 Eh
 * total energy  :   -51.4715349 Eh     change       -0.1143793E-04 Eh
 * total energy  :   -51.4715431 Eh     change       -0.8143849E-05 Eh
 * total energy  :   -51.4715600 Eh     change       -0.1692224E-04 Eh
 * total energy  :   -51.4715730 Eh     change       -0.1303175E-04 Eh
 * total energy  :   -51.4715844 Eh     change       -0.1141015E-04 Eh
 * total energy  :   -51.4715913 Eh     change       -0.6874101E-05 Eh
 * total energy  :   -51.4715977 Eh     change       -0.6343244E-05 Eh
 * total energy  :   -51.4716035 Eh     change       -0.5803183E-05 Eh
 * total energy  :   -51.4716069 Eh     change       -0.3434335E-05 Eh
   *** GEOMETRY OPTIMIZATION CONVERGED AFTER 20 ITERATIONS ***

 final structure:
================
41
 xtb: 6.7.1 (edcfbbe)
C            1.27680201571050       -0.66546514571607       -0.15699896189354
C            0.61153139912101        0.23188433899517       -0.98222365344008
C           -0.76464753910695        0.14913992546130       -1.10297099444324
C           -1.46808052528386       -0.81926534517685       -0.40537629576502
C           -0.79717442853321       -1.71965079081278        0.40690192975276
C            0.57950233729502       -1.65156723320487        0.53242710156733
N            2.69142943177684       -0.59238859005478       -0.04368867390346
N            3.35249342493930       -0.31950964864986        1.10799675331500
C            4.67401791988002       -0.38954044113453        0.87397935560277
C            4.84814229269773       -0.72117908146445       -0.46317250649342
C            3.58366511483018       -0.84396138084846       -1.01884787844461
C            3.19423296950447       -1.20492140491125       -2.39841697259609
C            5.70819062270164       -0.17188700781957        1.90758512721485
C            2.70086679647983        0.06072455934240        2.33904588643673
C            2.75002656752414        1.57275415912023        2.58750771082132
C            1.87579789704176        2.38592154016645        1.63217325449018
C            0.36921174693847        2.20970138830477        1.83724896984609
C           -0.12073125500213        2.75063474372960        3.17522829191996
H            1.16426908553857        0.98720910518095       -1.51892200030300
H           -1.28583646904248        0.84538042969342       -1.74036872342352
H           -2.54076367524684       -0.87684708503761       -0.49844292007878
H           -1.34315075236797       -2.48148131322957        0.94019759048883
H            1.11005779483361       -2.36569753837771        1.14527592933969
H            5.78107163597557       -0.86207441442729       -0.96775519801707
H            2.23607831121515       -1.72000865516183       -2.41355485201027
H            3.11047874959209       -0.31176930605057       -3.01793053007419
H            3.95611962352031       -1.84238418481464       -2.83951306312768
H            5.81296977608061        0.88673494210480        2.14182045517623
H            5.46127273065406       -0.69531373401618        2.82951236184780
H            6.66580447191881       -0.53211595964186        1.54295633219104
H            1.66368965298927       -0.27266994336168        2.30134857783012
H            3.20249780279958       -0.46275531379848        3.15698741431030
H            2.42827916037263        1.74990806645523        3.61275857209961
H            3.78095221691347        1.91862783088466        2.50537223018640
H            2.11590480651833        3.44073441741285        1.77444746582824
H            2.13419883535300        2.13550905500929        0.59997412643261
H           -0.14113424646204        2.74682209421446        1.03560789557468
H            0.08565448129212        1.15853148077271        1.74690111155943
H            0.16951947057469        3.79104168438101        3.29536514625044
H           -1.20455977356177        2.69230209687710        3.22373413701617
H            0.28056952202308        2.18088165960579        4.00941949691401

          :  Hamiltonian                  GFN2-xTB          :
         :: total energy             -51.471606904039 Eh    ::
         :: gradient norm              0.000625640735 Eh/a0 ::
         :: HOMO-LUMO gap              3.613940449457 eV    ::
         :: SCC energy               -52.323385230205 Eh    ::
         :: -> dispersion             -0.041281544920 Eh    ::
         :: repulsion energy           0.851778326166 Eh    ::

    * Orbital Energies and Occupations

         #    Occupation            Energy/Eh            Energy/eV
      -------------------------------------------------------------
         1        2.0000           -0.8768839             -23.8612
       ...           ...                  ...                  ...
        36        2.0000           -0.5948734             -16.1873
        37        2.0000           -0.5840643             -15.8932
        38        2.0000           -0.5741007             -15.6221
        39        2.0000           -0.5733566             -15.6018
        40        2.0000           -0.5653335             -15.3835
        41        2.0000           -0.5639110             -15.3448
        42        2.0000           -0.5544875             -15.0884
        43        2.0000           -0.5531634             -15.0523
        44        2.0000           -0.5445897             -14.8190
        45        2.0000           -0.5425078             -14.7624
        46        2.0000           -0.5411056             -14.7242
        47        2.0000           -0.5348456             -14.5539
        48        2.0000           -0.5303431             -14.4314 (HOMO)
        49                         -0.3975332             -10.8174 (LUMO)
        50                         -0.3653234              -9.9410
        51                         -0.3624561              -9.8629
        52                         -0.3211420              -8.7387
        53                         -0.2381615              -6.4807
        54                         -0.2050161              -5.5788
        55                         -0.1163599              -3.1663
        56                         -0.0604202              -1.6441
        57                         -0.0461960              -1.2571
        58                         -0.0316668              -0.8617
        59                         -0.0274167              -0.7460
       ...                                ...                  ...
        95                          0.5327697              14.4974
      -------------------------------------------------------------
                  HL-Gap            0.1328099 Eh            3.6139 eV

     #   Z          covCN         q      C6AA      α(0)
     1   6 C        2.914     0.043    27.047     8.528
     2   6 C        2.920    -0.031    28.779     8.797
     3   6 C        2.921    -0.017    28.437     8.745
     4   6 C        2.919    -0.016    28.402     8.739
     5   6 C        2.920    -0.019    28.477     8.751
     6   6 C        2.920    -0.038    28.938     8.821
     7   7 N        2.966     0.061    20.182     6.672
     8   7 N        2.949     0.064    20.128     6.663
     9   6 C        3.061     0.064    26.514     8.444
    10   6 C        3.036    -0.080    29.961     8.978
    11   6 C        3.057     0.064    26.510     8.444
    12   6 C        3.755    -0.126    22.982     6.836
    13   6 C        3.755    -0.127    22.997     6.838
    14   6 C        3.738    -0.024    21.093     6.553
    15   6 C        3.801    -0.071    21.864     6.657
    16   6 C        3.801    -0.064    21.721     6.636
    17   6 C        3.799    -0.056    21.580     6.614
    18   6 C        3.752    -0.111    22.678     6.791
    19   1 H        0.926     0.057     2.233     2.337
    20   1 H        0.926     0.070     2.089     2.260
    21   1 H        0.926     0.071     2.071     2.250
    22   1 H        0.926     0.069     2.101     2.267
    23   1 H        0.926     0.052     2.293     2.368
    24   1 H        0.927     0.087     1.911     2.162
    25   1 H        0.925     0.077     2.015     2.220
    26   1 H        0.925     0.092     1.864     2.135
    27   1 H        0.925     0.091     1.869     2.138
    28   1 H        0.925     0.089     1.887     2.148
    29   1 H        0.925     0.081     1.966     2.193
    30   1 H        0.925     0.090     1.879     2.143
    31   1 H        0.925     0.084     1.939     2.178
    32   1 H        0.924     0.081     1.974     2.197
    33   1 H        0.925     0.073     2.049     2.239
    34   1 H        0.924     0.051     2.307     2.375
    35   1 H        0.924     0.057     2.239     2.340
    36   1 H        0.924     0.023     2.687     2.563
    37   1 H        0.924     0.040     2.445     2.445
    38   1 H        0.924     0.019     2.743     2.590
    39   1 H        0.925     0.048     2.347     2.396
    40   1 H        0.925     0.047     2.356     2.400
    41   1 H        0.925     0.037     2.490     2.467

Wiberg/Mayer (AO) data.
largest (>0.10) Wiberg bond orders for each atom

     #   Z sym  total        # sym  WBO       # sym  WBO       # sym  WBO
 ---------------------------------------------------------------------------
     1   6 C    3.938 --     2 C    1.394     6 C    1.390     7 N    0.973
                             4 C    0.105
     2   6 C    3.988 --     3 C    1.441     1 C    1.394    19 H    0.966
                             5 C    0.109
     3   6 C    3.988 --     2 C    1.441     4 C    1.438    20 H    0.967
                             6 C    0.109
     4   6 C    3.984 --     3 C    1.438     5 C    1.436    21 H    0.967
                             1 C    0.105
     5   6 C    3.988 --     6 C    1.442     4 C    1.436    22 H    0.967
                             2 C    0.109
     6   6 C    3.989 --     5 C    1.442     1 C    1.390    23 H    0.967
                             3 C    0.109
     7   7 N    3.633 --    11 C    1.286     8 N    1.089     1 C    0.973
                             9 C    0.107
     8   7 N    3.635 --     9 C    1.301     7 N    1.089    14 C    0.971
                            11 C    0.110
     9   6 C    3.954 --    10 C    1.410     8 N    1.301    13 C    1.046
                             7 N    0.107
    10   6 C    3.973 --    11 C    1.417     9 C    1.410    24 H    0.967
    11   6 C    3.954 --    10 C    1.417     7 N    1.286    12 C    1.045
                             8 N    0.110
    12   6 C    3.983 --    11 C    1.045    25 H    0.970    27 H    0.969
                            26 H    0.948
    13   6 C    3.982 --     9 C    1.046    30 H    0.974    29 H    0.960
                            28 H    0.949
    14   6 C    3.941 --    15 C    0.986     8 N    0.971    32 H    0.956
                            31 H    0.956
    15   6 C    3.985 --    16 C    1.008    14 C    0.986    34 H    0.972
                            33 H    0.964
    16   6 C    3.995 --    15 C    1.008    17 C    1.007    36 H    0.976
                            35 H    0.973
    17   6 C    3.997 --    18 C    1.021    16 C    1.007    37 H    0.977
                            38 H    0.974
    18   6 C    3.994 --    17 C    1.021    39 H    0.986    40 H    0.986
                            41 H    0.985
    19   1 H    0.997 --     2 C    0.966
    20   1 H    0.994 --     3 C    0.967
    21   1 H    0.995 --     4 C    0.967
    22   1 H    0.994 --     5 C    0.967
    23   1 H    0.997 --     6 C    0.967
    24   1 H    0.992 --    10 C    0.967
    25   1 H    0.994 --    12 C    0.970
    26   1 H    0.991 --    12 C    0.948
    27   1 H    0.991 --    12 C    0.969
    28   1 H    0.991 --    13 C    0.949
    29   1 H    0.993 --    13 C    0.960
    30   1 H    0.991 --    13 C    0.974
    31   1 H    0.993 --    14 C    0.956
    32   1 H    0.993 --    14 C    0.956
    33   1 H    0.993 --    15 C    0.964
    34   1 H    0.997 --    15 C    0.972
    35   1 H    0.996 --    16 C    0.973
    36   1 H    0.999 --    16 C    0.976
    37   1 H    0.998 --    17 C    0.977
    38   1 H    1.000 --    17 C    0.974
    39   1 H    0.998 --    18 C    0.986
    40   1 H    0.998 --    18 C    0.986
    41   1 H    0.999 --    18 C    0.985
 ---------------------------------------------------------------------------

molecular dipole:
                 x           y           z       tot (Debye)
 q only:        4.912      -0.499       0.950
   full:        4.957      -0.575       0.955      12.915

           -------------------------------------------------
          | TOTAL ENERGY              -51.471606904039 Eh   |
          | GRADIENT NORM               0.000625640735 Eh/α |
          | HOMO-LUMO GAP               3.613940449457 eV   |
           -------------------------------------------------

 * finished run on 2024/12/20 at 02:08:52.969
