   * xtb version 6.7.1 (edcfbbe) compiled by 'conda@3ef47c1a292c' on 2024-11-25

   ID    Z sym.   atoms
    1    6 C      1-4, 6, 7, 9-11
    2    7 N      5, 8
    3    1 H      12-28

          program call               : xtb C0176.xyz --opt --namespace C0176 --charge +1
          :  Hamiltonian                  GFN2-xTB          :
 * total energy  :   -33.4214928 Eh     change       -0.1383349E-08 Eh
 * total energy  :   -33.4246727 Eh     change       -0.3179853E-02 Eh
 * total energy  :   -33.4253496 Eh     change       -0.6768799E-03 Eh
 * total energy  :   -33.4254804 Eh     change       -0.1308377E-03 Eh
 * total energy  :   -33.4255607 Eh     change       -0.8028588E-04 Eh
 * total energy  :   -33.4255814 Eh     change       -0.2074102E-04 Eh
 * total energy  :   -33.4256145 Eh     change       -0.3306647E-04 Eh
 * total energy  :   -33.4256312 Eh     change       -0.1670893E-04 Eh
 * total energy  :   -33.4256540 Eh     change       -0.2280243E-04 Eh
 * total energy  :   -33.4256658 Eh     change       -0.1183772E-04 Eh
 * total energy  :   -33.4256883 Eh     change       -0.2247961E-04 Eh
 * total energy  :   -33.4257136 Eh     change       -0.2529214E-04 Eh
 * total energy  :   -33.4257256 Eh     change       -0.1202331E-04 Eh
 * total energy  :   -33.4257425 Eh     change       -0.1687870E-04 Eh
 * total energy  :   -33.4257515 Eh     change       -0.9025084E-05 Eh
 * total energy  :   -33.4257569 Eh     change       -0.5416735E-05 Eh
 * total energy  :   -33.4257615 Eh     change       -0.4522499E-05 Eh
   *** GEOMETRY OPTIMIZATION CONVERGED AFTER 17 ITERATIONS ***

 final structure:
================
28
 xtb: 6.7.1 (edcfbbe)
C            1.08372962149120        0.17771462453870       -0.14828216769847
C            0.45232755562067       -0.83147636841283        0.80754993059721
C            0.77431212636982       -0.52319523099007        2.27940519630632
C            0.38422104904130        0.86667405818212        2.79309132918642
N           -1.04587155858138        1.03561349571659        2.92797644262132
C           -1.84759707172575        0.32976183276466        3.77070935095915
C           -3.12344806694151        0.76605817475311        3.58000465024209
N           -3.08084484599946        1.73355434265402        2.62289459088590
C           -1.81324002614114        1.87935313656925        2.24567943184675
C           -4.21353574721317        2.47158080232129        2.13164280495556
C           -1.04486919710923       -0.97399920333381        0.53111228700742
H            0.60443929359644        1.15231410501578       -0.08221571976415
H            0.97747237549739       -0.17049929757293       -1.17164904299824
H            2.14409442039342        0.29435437548622        0.05897555411639
H            0.91228801358507       -1.80529790703057        0.61135340857774
H            0.31040109903277       -1.28420047737586        2.90931391709768
H            1.85406092793190       -0.60758355635960        2.41106191825870
H            0.83308926260734        1.01421958196858        3.77942460672215
H            0.76055669138032        1.63918706655775        2.12238993449804
H           -1.46963965053261       -0.41406353412526        4.44168862775183
H           -4.03581938542713        0.45949885268194        4.04939895736528
H           -1.46528422754246        2.57660992236235        1.50795141432229
H           -4.58660202077509        3.14743576311238        2.90293413946262
H           -3.92743832836137        3.05405481584917        1.25877368016840
H           -5.01381295565534        1.78454632410520        1.85714292555435
H           -1.19084673942257       -1.45847262507035       -0.43034140584077
H           -1.52868043742070       -1.58643348594476        1.28916615422859
H           -1.54077217769945       -0.00647958842380        0.48528708356856

          :  Hamiltonian                  GFN2-xTB          :
         :: total energy             -33.425761472665 Eh    ::
         :: gradient norm              0.000652581840 Eh/a0 ::
         :: HOMO-LUMO gap              3.640028197802 eV    ::
         :: SCC energy               -33.937336769190 Eh    ::
         :: -> dispersion             -0.021505309334 Eh    ::
         :: repulsion energy           0.511575296526 Eh    ::

    * Orbital Energies and Occupations

         #    Occupation            Energy/Eh            Energy/eV
      -------------------------------------------------------------
         1        2.0000           -0.8975730             -24.4242
       ...           ...                  ...                  ...
        19        2.0000           -0.6498038             -17.6821
        20        2.0000           -0.6415980             -17.4588
        21        2.0000           -0.6318070             -17.1923
        22        2.0000           -0.6220258             -16.9262
        23        2.0000           -0.6171922             -16.7947
        24        2.0000           -0.6033156             -16.4171
        25        2.0000           -0.5982586             -16.2794
        26        2.0000           -0.5898441             -16.0505
        27        2.0000           -0.5778607             -15.7244
        28        2.0000           -0.5702985             -15.5186
        29        2.0000           -0.5537481             -15.0683
        30        2.0000           -0.5515480             -15.0084
        31        2.0000           -0.5411304             -14.7249 (HOMO)
        32                         -0.4073618             -11.0849 (LUMO)
        33                         -0.3718532             -10.1186
        34                         -0.1851074              -5.0370
        35                         -0.1301032              -3.5403
        36                         -0.0702808              -1.9124
        37                         -0.0608358              -1.6554
        38                         -0.0422115              -1.1486
        39                         -0.0338655              -0.9215
        40                         -0.0252618              -0.6874
        41                         -0.0156241              -0.4252
        42                         -0.0104215              -0.2836
       ...                                ...                  ...
        61                          0.4628220              12.5940
      -------------------------------------------------------------
                  HL-Gap            0.1337686 Eh            3.6400 eV

     #   Z          covCN         q      C6AA      α(0)
     1   6 C        3.755    -0.117    22.788     6.807
     2   6 C        3.848    -0.017    20.849     6.495
     3   6 C        3.802    -0.076    21.946     6.670
     4   6 C        3.741    -0.027    21.142     6.560
     5   7 N        2.868     0.077    19.906     6.626
     6   6 C        3.077    -0.004    28.039     8.681
     7   6 C        3.074    -0.009    28.159     8.700
     8   7 N        2.867     0.076    19.923     6.629
     9   6 C        3.103     0.047    26.815     8.485
    10   6 C        3.692    -0.086    22.330     6.762
    11   6 C        3.754    -0.112    22.709     6.795
    12   1 H        0.925     0.029     2.607     2.525
    13   1 H        0.925     0.057     2.229     2.335
    14   1 H        0.925     0.049     2.333     2.388
    15   1 H        0.924     0.056     2.245     2.343
    16   1 H        0.924     0.056     2.248     2.345
    17   1 H        0.924     0.073     2.052     2.240
    18   1 H        0.924     0.088     1.903     2.157
    19   1 H        0.925     0.089     1.887     2.148
    20   1 H        0.926     0.109     1.705     2.042
    21   1 H        0.926     0.109     1.704     2.041
    22   1 H        0.926     0.110     1.696     2.036
    23   1 H        0.924     0.107     1.726     2.055
    24   1 H        0.925     0.099     1.794     2.095
    25   1 H        0.925     0.108     1.717     2.049
    26   1 H        0.925     0.057     2.230     2.335
    27   1 H        0.925     0.034     2.535     2.490
    28   1 H        0.925     0.019     2.744     2.590

Wiberg/Mayer (AO) data.
largest (>0.10) Wiberg bond orders for each atom

     #   Z sym  total        # sym  WBO       # sym  WBO       # sym  WBO
 ---------------------------------------------------------------------------
     1   6 C    3.994 --     2 C    1.010    14 H    0.985    12 H    0.984
                            13 H    0.984
     2   6 C    3.992 --     1 C    1.010    11 C    1.009     3 C    0.994
                            15 H    0.965
     3   6 C    3.982 --     2 C    0.994     4 C    0.986    16 H    0.972
                            17 H    0.967
     4   6 C    3.934 --     3 C    0.986     5 N    0.965    19 H    0.964
                            18 H    0.957
     5   7 N    3.724 --     9 C    1.365     6 C    1.233     4 C    0.965
     6   6 C    3.951 --     7 C    1.591     5 N    1.233    20 H    0.960
     7   6 C    3.948 --     6 C    1.591     8 N    1.227    21 H    0.961
     8   7 N    3.720 --     9 C    1.357     7 C    1.227    10 C    0.991
     9   6 C    3.948 --     5 N    1.365     8 N    1.357    22 H    0.954
    10   6 C    3.934 --     8 N    0.991    24 H    0.975    25 H    0.965
                            23 H    0.960
    11   6 C    3.995 --     2 C    1.009    27 H    0.986    26 H    0.985
                            28 H    0.984
    12   1 H    0.999 --     1 C    0.984
    13   1 H    0.997 --     1 C    0.984
    14   1 H    0.998 --     1 C    0.985
    15   1 H    0.997 --     2 C    0.965
    16   1 H    0.997 --     3 C    0.972
    17   1 H    0.994 --     3 C    0.967
    18   1 H    0.992 --     4 C    0.957
    19   1 H    0.992 --     4 C    0.964
    20   1 H    0.988 --     6 C    0.960
    21   1 H    0.988 --     7 C    0.961
    22   1 H    0.988 --     9 C    0.954
    23   1 H    0.988 --    10 C    0.960
    24   1 H    0.990 --    10 C    0.975
    25   1 H    0.988 --    10 C    0.965
    26   1 H    0.997 --    11 C    0.985
    27   1 H    0.999 --    11 C    0.986
    28   1 H    1.000 --    11 C    0.984
 ---------------------------------------------------------------------------

molecular dipole:
                 x           y           z       tot (Debye)
 q only:       -3.579       2.333       4.864
   full:       -3.607       2.440       4.888      16.641

           -------------------------------------------------
          | TOTAL ENERGY              -33.425761472665 Eh   |
          | GRADIENT NORM               0.000652581840 Eh/α |
          | HOMO-LUMO GAP               3.640028197802 eV   |
           -------------------------------------------------

 * finished run on 2024/12/20 at 02:08:59.433
