   * xtb version 6.7.1 (edcfbbe) compiled by 'conda@3ef47c1a292c' on 2024-11-25

   ID    Z sym.   atoms
    1    6 C      1-3
    2    7 N      4
    3    1 H      5-14

          program call               : xtb C0178.xyz --opt --namespace C0178 --charge +1
          :  Hamiltonian                  GFN2-xTB          :
 * total energy  :   -14.0115484 Eh     change       -0.3992184E-10 Eh
 * total energy  :   -14.0123189 Eh     change       -0.7704322E-03 Eh
 * total energy  :   -14.0124612 Eh     change       -0.1423579E-03 Eh
 * total energy  :   -14.0124828 Eh     change       -0.2156471E-04 Eh
 * total energy  :   -14.0124867 Eh     change       -0.3893753E-05 Eh
   *** GEOMETRY OPTIMIZATION CONVERGED AFTER 5 ITERATIONS ***

 final structure:
================
14
 xtb: 6.7.1 (edcfbbe)
C            1.00578586310212       -0.08278817212307       -0.00907628587586
C            0.54630490199134       -0.04107363784854       -1.45359693709180
C            1.00578009066593       -1.24481877550626       -2.25321149668857
N           -0.96889126043801       -0.01853335836054       -1.46526478643897
H            0.67491201039141       -0.99467295091320        0.48280912667983
H            0.64434719369974        0.77640841278970        0.55075932467542
H            2.09108375242513       -0.06371461862597        0.02864576299685
H            0.88092216143131        0.88312808657462       -1.93215668058713
H            0.67490762860033       -2.17279450566685       -1.79240024000852
H            0.64433567961321       -1.20613942075233       -3.27797207491712
H            2.09107778581976       -1.26461771881463       -2.29056467425920
H           -1.32744812815659        0.78827109579937       -0.93960667048696
H           -1.32745168865761        0.01781959962126       -2.42751516769961
H           -1.31692599048807       -0.87851403617356       -1.01995920029836

          :  Hamiltonian                  GFN2-xTB          :
         :: total energy             -14.012486678308 Eh    ::
         :: gradient norm              0.000806596507 Eh/a0 ::
         :: HOMO-LUMO gap              9.623091725803 eV    ::
         :: SCC energy               -14.218220566754 Eh    ::
         :: -> dispersion             -0.005270146793 Eh    ::
         :: repulsion energy           0.205733888446 Eh    ::

    * Orbital Energies and Occupations

         #    Occupation            Energy/Eh            Energy/eV
      -------------------------------------------------------------
         1        2.0000           -0.8935064             -24.3135
         2        2.0000           -0.8440244             -22.9671
         3        2.0000           -0.8073545             -21.9692
         4        2.0000           -0.8010928             -21.7988
         5        2.0000           -0.7741395             -21.0654
         6        2.0000           -0.7593729             -20.6636
         7        2.0000           -0.7210908             -19.6219
         8        2.0000           -0.6840624             -18.6143
         9        2.0000           -0.6594454             -17.9444
        10        2.0000           -0.6362514             -17.3133
        11        2.0000           -0.6315752             -17.1860
        12        2.0000           -0.6219992             -16.9255
        13        2.0000           -0.6200970             -16.8737 (HOMO)
        14                         -0.2664549              -7.2506 (LUMO)
        15                         -0.1705373              -4.6406
        16                         -0.1095971              -2.9823
        17                         -0.1009585              -2.7472
        18                         -0.0736018              -2.0028
        19                         -0.0159617              -0.4343
        20                         -0.0155520              -0.4232
        21                          0.0138474               0.3768
        22                          0.0409212               1.1135
        23                          0.0648878               1.7657
        24                          0.0749285               2.0389
       ...                                ...                  ...
        26                          0.1096863               2.9847
      -------------------------------------------------------------
                  HL-Gap            0.3536421 Eh            9.6231 eV

     #   Z          covCN         q      C6AA      α(0)
     1   6 C        3.756    -0.147    23.386     6.895
     2   6 C        3.778     0.034    20.022     6.375
     3   6 C        3.756    -0.147    23.386     6.895
     4   7 N        3.484    -0.142    24.063     7.286
     5   1 H        0.925     0.076     2.026     2.226
     6   1 H        0.925     0.071     2.072     2.251
     7   1 H        0.925     0.102     1.768     2.079
     8   1 H        0.924     0.097     1.814     2.106
     9   1 H        0.925     0.076     2.026     2.226
    10   1 H        0.925     0.071     2.072     2.251
    11   1 H        0.925     0.102     1.768     2.079
    12   1 H        0.859     0.268     0.818     1.417
    13   1 H        0.859     0.268     0.818     1.417
    14   1 H        0.859     0.272     0.805     1.405

Wiberg/Mayer (AO) data.
largest (>0.10) Wiberg bond orders for each atom

     #   Z sym  total        # sym  WBO       # sym  WBO       # sym  WBO
 ---------------------------------------------------------------------------
     1   6 C    3.977 --     2 C    1.016     6 H    0.980     5 H    0.979
                             7 H    0.969
     2   6 C    3.895 --     1 C    1.016     3 C    1.016     8 H    0.959
                             4 N    0.890
     3   6 C    3.977 --     2 C    1.016    10 H    0.980     9 H    0.979
                            11 H    0.969
     4   7 N    3.666 --    12 H    0.912    13 H    0.912    14 H    0.908
                             2 C    0.890
     5   1 H    0.994 --     1 C    0.979
     6   1 H    0.995 --     1 C    0.980
     7   1 H    0.990 --     1 C    0.969
     8   1 H    0.991 --     2 C    0.959
     9   1 H    0.994 --     3 C    0.979
    10   1 H    0.995 --     3 C    0.980
    11   1 H    0.990 --     3 C    0.969
    12   1 H    0.928 --     4 N    0.912
    13   1 H    0.928 --     4 N    0.912
    14   1 H    0.926 --     4 N    0.908
 ---------------------------------------------------------------------------

molecular dipole:
                 x           y           z       tot (Debye)
 q only:       -0.948      -0.277      -2.644
   full:       -1.216      -0.217      -2.675       7.488

           -------------------------------------------------
          | TOTAL ENERGY              -14.012486678308 Eh   |
          | GRADIENT NORM               0.000806596507 Eh/α |
          | HOMO-LUMO GAP               9.623091725803 eV   |
           -------------------------------------------------

 * finished run on 2024/12/20 at 02:09:00.818
