   * xtb version 6.7.1 (edcfbbe) compiled by 'conda@3ef47c1a292c' on 2024-11-25

   ID    Z sym.   atoms
    1    6 C      1-4, 6-11
    2    7 N      5
    3    1 H      12-33

          program call               : xtb C0173.xyz --opt --namespace C0173 --charge +1
          :  Hamiltonian                  GFN2-xTB          :
 * total energy  :   -35.1631660 Eh     change       -0.7667467E-10 Eh
 * total energy  :   -35.1686844 Eh     change       -0.5518408E-02 Eh
 * total energy  :   -35.1700766 Eh     change       -0.1392212E-02 Eh
 * total energy  :   -35.1701355 Eh     change       -0.5885680E-04 Eh
 * total energy  :   -35.1701661 Eh     change       -0.3059204E-04 Eh
 * total energy  :   -35.1701867 Eh     change       -0.2066232E-04 Eh
 * total energy  :   -35.1702867 Eh     change       -0.9992611E-04 Eh
 * total energy  :   -35.1703340 Eh     change       -0.4731406E-04 Eh
 * total energy  :   -35.1703974 Eh     change       -0.6347422E-04 Eh
 * total energy  :   -35.1704442 Eh     change       -0.4680658E-04 Eh
 * total energy  :   -35.1734479 Eh     change       -0.1432976E-03 Eh
 * total energy  :   -35.1735917 Eh     change       -0.1438096E-03 Eh
 * total energy  :   -35.1736723 Eh     change       -0.8056497E-04 Eh
 * total energy  :   -35.1737511 Eh     change       -0.7883645E-04 Eh
 * total energy  :   -35.1737927 Eh     change       -0.4161495E-04 Eh
 * total energy  :   -35.1738122 Eh     change       -0.1949917E-04 Eh
 * total energy  :   -35.1738206 Eh     change       -0.8334658E-05 Eh
 * total energy  :   -35.1738276 Eh     change       -0.7094545E-05 Eh
 * total energy  :   -35.1738293 Eh     change       -0.1682713E-05 Eh
   *** GEOMETRY OPTIMIZATION CONVERGED AFTER 57 ITERATIONS ***

 final structure:
================
33
 xtb: 6.7.1 (edcfbbe)
C            1.98893988628711       -0.19771111620589       -0.22242161474863
C            1.12007163861836        0.57867299352561        0.76041520470429
C            1.11223851441460        2.08887626821787        0.50581674871040
C            0.60666193411461        2.56221902687097       -0.85726231229465
N           -0.85990270795701        2.52112181259529       -1.14526980188595
C           -1.65502920462550        3.24780071229343       -0.10004343106366
C           -2.17544488035411        2.42457716513029        1.07012738813711
C           -1.38271073998296        1.15799185515203       -1.41418664821319
C           -2.67060261250728        1.37241453906865       -2.20534406250338
C           -2.43409370992111        2.68303256016285       -2.97527801349195
C           -1.08724818943204        3.19611143444965       -2.45921813977580
H            1.57689931987601       -0.19627574333683       -1.22912682152898
H            2.06855849274521       -1.23290043726973        0.09651870513257
H            2.99153389924481        0.22079346995569       -0.25823791434811
H            0.11053788604492        0.16645244653308        0.76088966015064
H            1.52273250369108        0.42903694762153        1.76332717668125
H            0.58468459189453        2.59987070868369        1.31037192888715
H            2.15004489504674        2.42827105390812        0.55407602543746
H            0.90571405074880        3.60696275145160       -0.97647495349490
H            1.10718003948461        1.98123215232097       -1.63394757798064
H           -1.02201768997682        4.05581689074021        0.27114299419511
H           -2.51574483045135        3.69777615630630       -0.59485855130441
H           -1.40171941327177        1.85393637419736        1.57205836732421
H           -2.59392775006011        3.11868913705116        1.79563726843608
H           -2.97503287135745        1.75220826622692        0.77247900759081
H           -1.53419497924135        0.60045256527346       -0.49538963977858
H           -0.64727272679158        0.63252737482560       -2.02477672913094
H           -2.85680118302455        0.53347580895375       -2.87132477658005
H           -3.52990474568158        1.46052609312724       -1.54268987616452
H           -2.38650808207025        2.51669021314660       -4.04920746164322
H           -3.23628103086122        3.39683650070573       -2.79532928752011
H           -0.28664241287530        2.89751060208909       -3.13728852903646
H           -1.05186789176833        4.27841341622982       -2.34120433289703

          :  Hamiltonian                  GFN2-xTB          :
         :: total energy             -35.173829328939 Eh    ::
         :: gradient norm              0.000443594884 Eh/a0 ::
         :: HOMO-LUMO gap              8.719683416423 eV    ::
         :: SCC energy               -35.675177615701 Eh    ::
         :: -> dispersion             -0.025661856653 Eh    ::
         :: repulsion energy           0.501348286762 Eh    ::

    * Orbital Energies and Occupations

         #    Occupation            Energy/Eh            Energy/eV
      -------------------------------------------------------------
         1        2.0000           -0.8578010             -23.3420
       ...           ...                  ...                  ...
        21        2.0000           -0.6333020             -17.2330
        22        2.0000           -0.6240181             -16.9804
        23        2.0000           -0.6224507             -16.9377
        24        2.0000           -0.6175511             -16.8044
        25        2.0000           -0.6131200             -16.6838
        26        2.0000           -0.6065606             -16.5054
        27        2.0000           -0.6038132             -16.4306
        28        2.0000           -0.5971031             -16.2480
        29        2.0000           -0.5923704             -16.1192
        30        2.0000           -0.5798328             -15.7781
        31        2.0000           -0.5690366             -15.4843
        32        2.0000           -0.5599262             -15.2364
        33        2.0000           -0.5531602             -15.0523 (HOMO)
        34                         -0.2327177              -6.3326 (LUMO)
        35                         -0.1848750              -5.0307
        36                         -0.1683938              -4.5822
        37                         -0.1504601              -4.0942
        38                         -0.0871295              -2.3709
        39                         -0.0704063              -1.9159
        40                         -0.0535698              -1.4577
        41                         -0.0490696              -1.3353
        42                         -0.0392778              -1.0688
        43                         -0.0375060              -1.0206
        44                         -0.0256860              -0.6990
       ...                                ...                  ...
        66                          0.2008246               5.4647
      -------------------------------------------------------------
                  HL-Gap            0.3204425 Eh            8.7197 eV

     #   Z          covCN         q      C6AA      α(0)
     1   6 C        3.751    -0.114    22.737     6.800
     2   6 C        3.799    -0.063    21.709     6.634
     3   6 C        3.800    -0.074    21.916     6.665
     4   6 C        3.751    -0.034    21.239     6.572
     5   7 N        3.629     0.105    19.430     6.547
     6   6 C        3.750    -0.029    21.159     6.560
     7   6 C        3.750    -0.126    22.990     6.838
     8   6 C        3.800    -0.029    21.093     6.539
     9   6 C        3.817    -0.074    21.898     6.660
    10   6 C        3.815    -0.074    21.897     6.660
    11   6 C        3.814    -0.033    21.144     6.545
    12   1 H        0.925     0.029     2.607     2.525
    13   1 H        0.925     0.057     2.229     2.335
    14   1 H        0.925     0.050     2.317     2.380
    15   1 H        0.924     0.033     2.546     2.495
    16   1 H        0.924     0.058     2.218     2.329
    17   1 H        0.925     0.058     2.227     2.334
    18   1 H        0.924     0.074     2.039     2.233
    19   1 H        0.924     0.074     2.042     2.235
    20   1 H        0.924     0.083     1.944     2.180
    21   1 H        0.924     0.081     1.972     2.196
    22   1 H        0.925     0.090     1.884     2.146
    23   1 H        0.925     0.069     2.097     2.264
    24   1 H        0.925     0.081     1.967     2.193
    25   1 H        0.925     0.065     2.144     2.290
    26   1 H        0.925     0.095     1.829     2.115
    27   1 H        0.924     0.084     1.942     2.179
    28   1 H        0.925     0.081     1.972     2.196
    29   1 H        0.925     0.068     2.111     2.272
    30   1 H        0.925     0.080     1.974     2.197
    31   1 H        0.925     0.068     2.104     2.269
    32   1 H        0.924     0.084     1.936     2.176
    33   1 H        0.925     0.082     1.960     2.189

Wiberg/Mayer (AO) data.
largest (>0.10) Wiberg bond orders for each atom

     #   Z sym  total        # sym  WBO       # sym  WBO       # sym  WBO
 ---------------------------------------------------------------------------
     1   6 C    3.993 --     2 C    1.021    14 H    0.986    13 H    0.984
                            12 H    0.984
     2   6 C    3.994 --     1 C    1.021     3 C    1.006    16 H    0.974
                            15 H    0.971
     3   6 C    3.984 --     2 C    1.006     4 C    1.005    17 H    0.968
                            18 H    0.963
     4   6 C    3.933 --     3 C    1.005    19 H    0.969    20 H    0.962
                             5 N    0.930
     5   7 N    3.798 --     8 C    0.937    11 C    0.934     4 C    0.930
                             6 C    0.925
     6   6 C    3.934 --     7 C    1.022    21 H    0.969    22 H    0.966
                             5 N    0.925
     7   6 C    3.982 --     6 C    1.022    25 H    0.980    23 H    0.976
                            24 H    0.973
     8   6 C    3.935 --     9 C    1.007    27 H    0.967    26 H    0.959
                             5 N    0.937
     9   6 C    3.987 --     8 C    1.007    10 C    0.998    29 H    0.976
                            28 H    0.974
    10   6 C    3.985 --    11 C    1.005     9 C    0.998    31 H    0.977
                            30 H    0.974
    11   6 C    3.937 --    10 C    1.005    33 H    0.972    32 H    0.970
                             5 N    0.934
    12   1 H    0.999 --     1 C    0.984
    13   1 H    0.997 --     1 C    0.984
    14   1 H    0.997 --     1 C    0.986
    15   1 H    0.999 --     2 C    0.971
    16   1 H    0.996 --     2 C    0.974
    17   1 H    0.997 --     3 C    0.968
    18   1 H    0.994 --     3 C    0.963
    19   1 H    0.995 --     4 C    0.969
    20   1 H    0.993 --     4 C    0.962
    21   1 H    0.993 --     6 C    0.969
    22   1 H    0.992 --     6 C    0.966
    23   1 H    0.995 --     7 C    0.976
    24   1 H    0.993 --     7 C    0.973
    25   1 H    0.996 --     7 C    0.980
    26   1 H    0.991 --     8 C    0.959
    27   1 H    0.993 --     8 C    0.967
    28   1 H    0.993 --     9 C    0.974
    29   1 H    0.995 --     9 C    0.976
    30   1 H    0.993 --    10 C    0.974
    31   1 H    0.995 --    10 C    0.977
    32   1 H    0.993 --    11 C    0.970
    33   1 H    0.993 --    11 C    0.972
 ---------------------------------------------------------------------------

molecular dipole:
                 x           y           z       tot (Debye)
 q only:       -1.805       4.409      -1.964
   full:       -1.700       4.526      -2.002      13.300

           -------------------------------------------------
          | TOTAL ENERGY              -35.173829328939 Eh   |
          | GRADIENT NORM               0.000443594884 Eh/α |
          | HOMO-LUMO GAP               8.719683416423 eV   |
           -------------------------------------------------

 * finished run on 2024/12/20 at 02:08:54.394
