   * xtb version 6.7.1 (edcfbbe) compiled by 'conda@3ef47c1a292c' on 2024-11-25

   ID    Z sym.   atoms
    1    6 C      1, 2, 4, 6-12
    2    8 O      3
    3    7 N      5
    4    1 H      13-26

          program call               : xtb C0174.xyz --opt --namespace C0174 --charge +1
          :  Hamiltonian                  GFN2-xTB          :
 * total energy  :   -35.1084460 Eh     change       -0.2100123E-08 Eh
 * total energy  :   -35.1156786 Eh     change       -0.7232592E-02 Eh
 * total energy  :   -35.1174218 Eh     change       -0.1743229E-02 Eh
 * total energy  :   -35.1180611 Eh     change       -0.6392866E-03 Eh
 * total energy  :   -35.1188176 Eh     change       -0.7565241E-03 Eh
 * total energy  :   -35.1195390 Eh     change       -0.7213708E-03 Eh
 * total energy  :   -35.1203165 Eh     change       -0.7775071E-03 Eh
 * total energy  :   -35.1211994 Eh     change       -0.8829285E-03 Eh
 * total energy  :   -35.1221143 Eh     change       -0.9148464E-03 Eh
 * total energy  :   -35.1229505 Eh     change       -0.8362619E-03 Eh
 * total energy  :   -35.1338801 Eh     change       -0.2445293E-04 Eh
 * total energy  :   -35.1339215 Eh     change       -0.4148190E-04 Eh
 * total energy  :   -35.1339396 Eh     change       -0.1802152E-04 Eh
 * total energy  :   -35.1339476 Eh     change       -0.8064048E-05 Eh
 * total energy  :   -35.1339603 Eh     change       -0.1270043E-04 Eh
 * total energy  :   -35.1339676 Eh     change       -0.7315434E-05 Eh
 * total energy  :   -35.1339771 Eh     change       -0.9486524E-05 Eh
 * total energy  :   -35.1339828 Eh     change       -0.5710105E-05 Eh
 * total energy  :   -35.1339861 Eh     change       -0.3293115E-05 Eh
   *** GEOMETRY OPTIMIZATION CONVERGED AFTER 104 ITERATIONS ***

 final structure:
================
26
 xtb: 6.7.1 (edcfbbe)
C            2.14754300470201       -1.45808552424443       -3.31166817173573
C            1.53053035790834       -0.88684246614938       -2.08213437291302
O            1.46073656332655        0.28000330578144       -1.81610416487681
C            0.95060671975805       -1.94091731166737       -1.09005292483357
N            0.34980262863094       -1.20776017046699        0.02275042115927
C            1.11159177803716       -0.88985692252323        1.08219522514946
C            0.64328423289737       -0.11170439772434        2.11295980347303
C           -0.65729318134512        0.37343499356433        2.04818622007286
C           -1.42133516939977        0.05842876624279        0.94012370045993
C           -0.90801459535226       -0.72540287699054       -0.08695406894800
C           -1.73757837138520       -1.02030282481094       -1.28532528174177
C            2.02076937205334       -2.94585330574473       -0.66536699214385
H            2.19547570136631       -0.69240609593563       -4.08222827039915
H            1.60818080080079       -2.32753655644060       -3.67606110895948
H            3.17000404688644       -1.76188756365220       -3.08605271987494
H            0.15662238578263       -2.48875084083582       -1.60245594740808
H            2.11982753960273       -1.26827142170470        1.09600018105821
H            1.28778289307904        0.11765786987064        2.94556496195792
H           -1.05848037635392        0.99024562285343        2.83653565659981
H           -2.42904062260750        0.43199650297955        0.85194103872687
H           -2.70488034699037       -0.53522628339370       -1.19287774554979
H           -1.26021775253139       -0.64840578659541       -2.19155304719313
H           -1.91288226487290       -2.09052940551341       -1.40140881186920
H            1.67960767714537       -3.52740856261419        0.18859182634952
H            2.20168309550711       -3.63692756368380       -1.48377737510817
H            2.96774388335359       -2.47158118060206       -0.42072803145003

          :  Hamiltonian                  GFN2-xTB          :
         :: total energy             -35.133986132477 Eh    ::
         :: gradient norm              0.000678911857 Eh/a0 ::
         :: HOMO-LUMO gap              2.826432832404 eV    ::
         :: SCC energy               -35.677277527983 Eh    ::
         :: -> dispersion             -0.021656919116 Eh    ::
         :: repulsion energy           0.543291395506 Eh    ::

    * Orbital Energies and Occupations

         #    Occupation            Energy/Eh            Energy/eV
      -------------------------------------------------------------
         1        2.0000           -0.8715659             -23.7165
       ...           ...                  ...                  ...
        20        2.0000           -0.6546055             -17.8127
        21        2.0000           -0.6490213             -17.6608
        22        2.0000           -0.6408799             -17.4392
        23        2.0000           -0.6309819             -17.1699
        24        2.0000           -0.6277040             -17.0807
        25        2.0000           -0.6223506             -16.9350
        26        2.0000           -0.6208094             -16.8931
        27        2.0000           -0.6122098             -16.6591
        28        2.0000           -0.6084036             -16.5555
        29        2.0000           -0.6041914             -16.4409
        30        2.0000           -0.6002453             -16.3335
        31        2.0000           -0.5889477             -16.0261
        32        2.0000           -0.5501207             -14.9695 (HOMO)
        33                         -0.4462512             -12.1431 (LUMO)
        34                         -0.4129995             -11.2383
        35                         -0.4010872             -10.9141
        36                         -0.2956269              -8.0444
        37                         -0.1834440              -4.9918
        38                         -0.1023004              -2.7837
        39                         -0.0848381              -2.3086
        40                         -0.0610311              -1.6607
        41                         -0.0481083              -1.3091
        42                         -0.0387876              -1.0555
        43                         -0.0244413              -0.6651
       ...                                ...                  ...
        62                          0.4977098              13.5434
      -------------------------------------------------------------
                  HL-Gap            0.1038695 Eh            2.8264 eV

     #   Z          covCN         q      C6AA      α(0)
     1   6 C        3.754    -0.154    23.535     6.918
     2   6 C        2.810     0.243    22.941     7.847
     3   8 O        0.857    -0.329    20.308     6.042
     4   6 C        3.802    -0.011    20.766     6.488
     5   7 N        2.753     0.087    19.732     6.597
     6   6 C        2.887     0.035    27.211     8.552
     7   6 C        2.916    -0.015    28.395     8.738
     8   6 C        2.922     0.012    27.750     8.639
     9   6 C        2.923    -0.023    28.572     8.766
    10   6 C        2.927     0.095    25.902     8.346
    11   6 C        3.758    -0.136    23.176     6.864
    12   6 C        3.752    -0.127    23.001     6.839
    13   1 H        0.925     0.105     1.744     2.065
    14   1 H        0.925     0.082     1.955     2.187
    15   1 H        0.924     0.109     1.702     2.040
    16   1 H        0.924     0.097     1.811     2.104
    17   1 H        0.926     0.108     1.709     2.045
    18   1 H        0.926     0.103     1.756     2.072
    19   1 H        0.926     0.103     1.758     2.074
    20   1 H        0.926     0.101     1.779     2.086
    21   1 H        0.925     0.097     1.812     2.105
    22   1 H        0.925     0.095     1.830     2.115
    23   1 H        0.924     0.092     1.858     2.132
    24   1 H        0.925     0.075     2.032     2.229
    25   1 H        0.925     0.087     1.906     2.159
    26   1 H        0.925     0.068     2.107     2.270

Wiberg/Mayer (AO) data.
largest (>0.10) Wiberg bond orders for each atom

     #   Z sym  total        # sym  WBO       # sym  WBO       # sym  WBO
 ---------------------------------------------------------------------------
     1   6 C    3.982 --     2 C    1.028    14 H    0.967    13 H    0.966
                            15 H    0.930
     2   6 C    3.921 --     3 O    1.890     1 C    1.028     4 C    0.908
     3   8 O    2.118 --     2 C    1.890
     4   6 C    3.947 --    12 C    0.993     5 N    0.962    16 H    0.937
                             2 C    0.908
     5   7 N    3.743 --     6 C    1.305    10 C    1.286     4 C    0.962
     6   6 C    3.958 --     7 C    1.484     5 N    1.305    17 H    0.950
     7   6 C    3.983 --     6 C    1.484     8 C    1.397    18 H    0.960
     8   6 C    3.970 --     9 C    1.451     7 C    1.397    19 H    0.962
     9   6 C    3.983 --     8 C    1.451    10 C    1.406    20 H    0.959
    10   6 C    3.959 --     9 C    1.406     5 N    1.286    11 C    1.049
    11   6 C    3.981 --    10 C    1.049    21 H    0.974    22 H    0.951
                            23 H    0.945
    12   6 C    3.979 --     4 C    0.993    26 H    0.980    24 H    0.977
                            25 H    0.975
    13   1 H    0.988 --     1 C    0.966
    14   1 H    0.993 --     1 C    0.967
    15   1 H    0.988 --     1 C    0.930
    16   1 H    0.990 --     4 C    0.937
    17   1 H    0.988 --     6 C    0.950
    18   1 H    0.988 --     7 C    0.960
    19   1 H    0.989 --     8 C    0.962
    20   1 H    0.989 --     9 C    0.959
    21   1 H    0.990 --    11 C    0.974
    22   1 H    0.991 --    11 C    0.951
    23   1 H    0.991 --    11 C    0.945
    24   1 H    0.994 --    12 C    0.977
    25   1 H    0.992 --    12 C    0.975
    26   1 H    0.995 --    12 C    0.980
 ---------------------------------------------------------------------------

molecular dipole:
                 x           y           z       tot (Debye)
 q only:        0.423      -2.804      -0.274
   full:        0.448      -2.940      -0.265       7.588

           -------------------------------------------------
          | TOTAL ENERGY              -35.133986132477 Eh   |
          | GRADIENT NORM               0.000678911857 Eh/α |
          | HOMO-LUMO GAP               2.826432832404 eV   |
           -------------------------------------------------

 * finished run on 2024/12/20 at 02:08:55.773
