   * xtb version 6.7.1 (edcfbbe) compiled by 'conda@3ef47c1a292c' on 2024-11-25

   ID    Z sym.   atoms
    1    8 O      1
    2    6 C      2-9, 11-16, 18, 19, 21-27
    3    7 N      10, 17, 20
    4    1 H      28-47

          program call               : xtb C0179.xyz --opt --namespace C0179 --charge +1
          :  Hamiltonian                  GFN2-xTB          :
 * total energy  :   -71.8268156 Eh     change       -0.1318128E-08 Eh
 * total energy  :   -71.8450008 Eh     change       -0.1818525E-01 Eh
 * total energy  :   -71.8515050 Eh     change       -0.6504132E-02 Eh
 * total energy  :   -71.8534946 Eh     change       -0.1989639E-02 Eh
 * total energy  :   -71.8555932 Eh     change       -0.2098614E-02 Eh
 * total energy  :   -71.8574832 Eh     change       -0.1889973E-02 Eh
 * total energy  :   -71.8593782 Eh     change       -0.1894976E-02 Eh
 * total energy  :   -71.8612674 Eh     change       -0.1889281E-02 Eh
 * total energy  :   -71.8630383 Eh     change       -0.1770842E-02 Eh
 * total energy  :   -71.8646821 Eh     change       -0.1643793E-02 Eh
 * total energy  :   -71.8739728 Eh     change       -0.1677204E-04 Eh
 * total energy  :   -71.8739898 Eh     change       -0.1705423E-04 Eh
 * total energy  :   -71.8740113 Eh     change       -0.2145607E-04 Eh
 * total energy  :   -71.8740350 Eh     change       -0.2365740E-04 Eh
 * total energy  :   -71.8740535 Eh     change       -0.1850435E-04 Eh
 * total energy  :   -71.8740657 Eh     change       -0.1225773E-04 Eh
 * total energy  :   -71.8740736 Eh     change       -0.7891119E-05 Eh
 * total energy  :   -71.8740792 Eh     change       -0.5585216E-05 Eh
 * total energy  :   -71.8740838 Eh     change       -0.4583467E-05 Eh
   *** GEOMETRY OPTIMIZATION CONVERGED AFTER 63 ITERATIONS ***

 final structure:
================
47
 xtb: 6.7.1 (edcfbbe)
O            4.62041584152737       -2.80731805508591       -0.60953695331643
C            4.61510066660781       -1.82653482223400        0.08827910629772
C            5.24498736604784       -0.54948614597036       -0.29264788462541
C            5.45464361095037       -0.32262728450746       -1.65669466135737
C            6.01208845932450        0.86304334662482       -2.09232180645274
C            6.38038082061118        1.83232933917508       -1.17140000819781
C            6.20296994273872        1.60477798703474        0.18519254202935
C            5.63841217272547        0.42333999288516        0.62831216089416
C            3.86969648711078       -1.86173017708027        1.44151692586620
N            3.07373703208402       -0.68417899939018        1.67037745512866
C            3.09382956199538        0.10828198862442        2.80160818146809
C            3.79139752768855        0.02041838432749        4.00007063043094
C            3.55181646943021        1.00478882820395        4.93791938863687
C            2.65163728384186        2.04763573211061        4.70286110960372
C            1.95498490866876        2.14716964188738        3.51605631453912
C            2.19031357872355        1.15700468652407        2.57367372830278
N            1.67456742959472        0.96533418959874        1.30310613494825
C            2.20983175004505       -0.15348280288639        0.78680989639719
C            1.81956739394635       -0.78763211797637       -0.48936560299456
N            0.71990674272271        1.78456446393432        0.80142846309015
C            0.77078843547965        2.18547742548385       -0.41120667087437
C           -0.24091363568843        3.04391563027845       -0.96231989884561
C           -0.12061974333349        3.48576819924914       -2.28561276672866
C           -1.07847376934596        4.31842930646385       -2.82751775998333
C           -2.16337926186803        4.72002920094510       -2.06111115002109
C           -2.29264538061385        4.28600047667667       -0.74798451330850
C           -1.34195604841057        3.45277779751230       -0.19786589414950
H            5.16981752727279       -1.09417072081831       -2.35682096665961
H            6.16733579313676        1.02971438880122       -3.14691276067588
H            6.81929427514830        2.75866304429579       -1.50836711613526
H            6.51423605729160        2.34911387997547        0.90204190632320
H            5.54735200306727        0.25285372820787        1.69011063353164
H            3.24508108764873       -2.76182603446230        1.45191909312183
H            4.60522796522058       -1.95215666423813        2.24334039263162
H            4.48388120091117       -0.78055385682139        4.20339166353765
H            4.07194029551642        0.96658610445053        5.88173726669379
H            2.49821638823892        2.78851173824778        5.47079628758036
H            1.25365569810636        2.94089605573958        3.32102442272234
H            2.52821985241255       -0.55870746811189       -1.28653243204094
H            1.79354080232853       -1.87095991680829       -0.37903750781949
H            0.83314346457678       -0.44071641331680       -0.79440477564593
H            1.59848887375082        1.91688633686818       -1.07470466226047
H            0.72583432641121        3.17363627386610       -2.88004688752014
H           -0.98274274060028        4.65738571929111       -3.84724591509207
H           -2.90949371454299        5.37239499423086       -2.48783095088331
H           -3.13876664137039        4.60220871272077       -0.15800309565256
H           -1.42477815717076        3.10460388547382        0.81935893750437

          :  Hamiltonian                  GFN2-xTB          :
         :: total energy             -71.874083774851 Eh    ::
         :: gradient norm              0.000266438060 Eh/a0 ::
         :: HOMO-LUMO gap              2.576509492647 eV    ::
         :: SCC energy               -73.101976852709 Eh    ::
         :: -> dispersion             -0.054598229842 Eh    ::
         :: repulsion energy           1.227893077858 Eh    ::

    * Orbital Energies and Occupations

         #    Occupation            Energy/Eh            Energy/eV
      -------------------------------------------------------------
         1        2.0000           -0.8691543             -23.6509
       ...           ...                  ...                  ...
        54        2.0000           -0.5643611             -15.3570
        55        2.0000           -0.5537116             -15.0673
        56        2.0000           -0.5466184             -14.8742
        57        2.0000           -0.5410596             -14.7230
        58        2.0000           -0.5386480             -14.6574
        59        2.0000           -0.5378347             -14.6352
        60        2.0000           -0.5331438             -14.5076
        61        2.0000           -0.5284080             -14.3787
        62        2.0000           -0.5259963             -14.3131
        63        2.0000           -0.5253045             -14.2943
        64        2.0000           -0.5198460             -14.1457
        65        2.0000           -0.5185238             -14.1098
        66        2.0000           -0.5113731             -13.9152 (HOMO)
        67                         -0.4166881             -11.3387 (LUMO)
        68                         -0.4005211             -10.8987
        69                         -0.3904627             -10.6250
        70                         -0.3530287              -9.6064
        71                         -0.3435391              -9.3482
        72                         -0.3425802              -9.3221
        73                         -0.3346954              -9.1075
        74                         -0.3172269              -8.6322
        75                         -0.3049015              -8.2968
        76                         -0.2276624              -6.1950
        77                         -0.2089681              -5.6863
       ...                                ...                  ...
       128                          0.5561657              15.1340
      -------------------------------------------------------------
                  HL-Gap            0.0946850 Eh            2.5765 eV

     #   Z          covCN         q      C6AA      α(0)
     1   8 O        0.857    -0.323    20.204     6.026
     2   6 C        2.819     0.225    23.281     7.906
     3   6 C        2.970    -0.021    28.532     8.762
     4   6 C        2.926    -0.018    28.463     8.749
     5   6 C        2.916    -0.022    28.544     8.761
     6   6 C        2.920    -0.014    28.361     8.733
     7   6 C        2.918    -0.024    28.614     8.772
     8   6 C        2.919    -0.032    28.793     8.799
     9   6 C        3.740    -0.041    21.388     6.599
    10   7 N        2.830     0.004    21.185     6.836
    11   6 C        3.086     0.038    27.056     8.527
    12   6 C        2.910    -0.036    28.888     8.813
    13   6 C        2.925    -0.019    28.491     8.753
    14   6 C        2.927    -0.020    28.506     8.756
    15   6 C        2.909    -0.027    28.669     8.780
    16   6 C        3.096     0.035    27.108     8.533
    17   7 N        2.927     0.099    19.530     6.564
    18   6 C        3.055     0.101    25.723     8.318
    19   6 C        3.754    -0.125    22.952     6.831
    20   7 N        1.910    -0.169    25.447     7.479
    21   6 C        2.856     0.078    26.254     8.398
    22   6 C        2.979     0.009    27.816     8.651
    23   6 C        2.925    -0.021    28.535     8.760
    24   6 C        2.916    -0.019    28.494     8.753
    25   6 C        2.921    -0.008    28.213     8.710
    26   6 C        2.916    -0.018    28.463     8.749
    27   6 C        2.922    -0.018    28.448     8.747
    28   1 H        0.926     0.068     2.111     2.272
    29   1 H        0.926     0.061     2.192     2.315
    30   1 H        0.926     0.060     2.195     2.317
    31   1 H        0.926     0.052     2.292     2.367
    32   1 H        0.926     0.037     2.494     2.470
    33   1 H        0.924     0.097     1.809     2.104
    34   1 H        0.924     0.100     1.782     2.088
    35   1 H        0.926     0.064     2.147     2.291
    36   1 H        0.926     0.078     2.005     2.214
    37   1 H        0.926     0.078     1.998     2.210
    38   1 H        0.926     0.079     1.985     2.203
    39   1 H        0.924     0.092     1.862     2.134
    40   1 H        0.925     0.098     1.806     2.101
    41   1 H        0.925     0.089     1.888     2.149
    42   1 H        0.924     0.029     2.600     2.521
    43   1 H        0.926     0.048     2.341     2.393
    44   1 H        0.926     0.061     2.182     2.310
    45   1 H        0.926     0.066     2.132     2.283
    46   1 H        0.926     0.063     2.167     2.302
    47   1 H        0.926     0.066     2.126     2.280

Wiberg/Mayer (AO) data.
largest (>0.10) Wiberg bond orders for each atom

     #   Z sym  total        # sym  WBO       # sym  WBO       # sym  WBO
 ---------------------------------------------------------------------------
     1   8 O    2.107 --     2 C    1.852
     2   6 C    3.930 --     1 O    1.852     3 C    1.044     9 C    0.936
     3   6 C    3.987 --     8 C    1.372     4 C    1.365     2 C    1.044
     4   6 C    3.987 --     5 C    1.459     3 C    1.365    28 H    0.965
                             7 C    0.104
     5   6 C    3.990 --     4 C    1.459     6 C    1.429    29 H    0.968
                             8 C    0.105
     6   6 C    3.987 --     5 C    1.429     7 C    1.427    30 H    0.969
     7   6 C    3.991 --     8 C    1.460     6 C    1.427    31 H    0.969
                             4 C    0.104
     8   6 C    3.991 --     7 C    1.460     3 C    1.372    32 H    0.966
                             5 C    0.105
     9   6 C    3.945 --    10 N    0.983    33 H    0.950    34 H    0.945
                             2 C    0.936
    10   7 N    3.642 --    18 C    1.298    11 C    1.117     9 C    0.983
    11   6 C    3.952 --    12 C    1.342    16 C    1.277    10 N    1.117
    12   6 C    3.983 --    13 C    1.488    11 C    1.342    35 H    0.962
                            15 C    0.117
    13   6 C    3.983 --    12 C    1.488    14 C    1.383    36 H    0.966
    14   6 C    3.981 --    15 C    1.488    13 C    1.383    37 H    0.966
    15   6 C    3.982 --    14 C    1.488    16 C    1.347    38 H    0.963
                            12 C    0.117
    16   6 C    3.945 --    15 C    1.347    11 C    1.277    17 N    1.094
    17   7 N    3.699 --    18 C    1.297    16 C    1.094    20 N    1.066
    18   6 C    3.945 --    10 N    1.298    17 N    1.297    19 C    1.048
    19   6 C    3.979 --    18 C    1.048    41 H    0.965    40 H    0.959
                            39 H    0.945
    20   7 N    3.068 --    21 C    1.701    17 N    1.066
    21   6 C    3.954 --    20 N    1.701    22 C    1.146    42 H    0.945
    22   6 C    3.985 --    23 C    1.342    27 C    1.334    21 C    1.146
    23   6 C    3.981 --    24 C    1.469    22 C    1.342    43 H    0.967
    24   6 C    3.989 --    23 C    1.469    25 C    1.422    44 H    0.968
    25   6 C    3.977 --    24 C    1.422    26 C    1.415    45 H    0.968
    26   6 C    3.990 --    27 C    1.478    25 C    1.415    46 H    0.968
    27   6 C    3.984 --    26 C    1.478    22 C    1.334    47 H    0.966
    28   1 H    0.995 --     4 C    0.965
    29   1 H    0.996 --     5 C    0.968
    30   1 H    0.996 --     6 C    0.969
    31   1 H    0.997 --     7 C    0.969
    32   1 H    0.999 --     8 C    0.966
    33   1 H    0.989 --     9 C    0.950
    34   1 H    0.989 --     9 C    0.945
    35   1 H    0.995 --    12 C    0.962
    36   1 H    0.994 --    13 C    0.966
    37   1 H    0.993 --    14 C    0.966
    38   1 H    0.993 --    15 C    0.963
    39   1 H    0.987 --    19 C    0.945
    40   1 H    0.989 --    19 C    0.959
    41   1 H    0.991 --    19 C    0.965
    42   1 H    0.998 --    21 C    0.945
    43   1 H    0.998 --    23 C    0.967
    44   1 H    0.996 --    24 C    0.968
    45   1 H    0.995 --    25 C    0.968
    46   1 H    0.996 --    26 C    0.968
    47   1 H    0.996 --    27 C    0.966
 ---------------------------------------------------------------------------

molecular dipole:
                 x           y           z       tot (Debye)
 q only:        3.969       2.886       1.772
   full:        4.262       2.775       1.595      13.547

           -------------------------------------------------
          | TOTAL ENERGY              -71.874083774851 Eh   |
          | GRADIENT NORM               0.000266438060 Eh/α |
          | HOMO-LUMO GAP               2.576509492647 eV   |
           -------------------------------------------------

 * finished run on 2024/12/20 at 02:09:03.747
