   * xtb version 6.7.1 (edcfbbe) compiled by 'conda@3ef47c1a292c' on 2024-11-25

   ID    Z sym.   atoms
    1    6 C      1, 2, 4-7, 9-11
    2    7 N      3, 8
    3    1 H      12-28

          program call               : xtb C0171.xyz --opt --namespace C0171 --charge +1
          :  Hamiltonian                  GFN2-xTB          :
 * total energy  :   -33.4556690 Eh     change       -0.4612133E-10 Eh
 * total energy  :   -33.4577261 Eh     change       -0.2057124E-02 Eh
 * total energy  :   -33.4580873 Eh     change       -0.3611929E-03 Eh
 * total energy  :   -33.4581374 Eh     change       -0.5013494E-04 Eh
 * total energy  :   -33.4581822 Eh     change       -0.4476086E-04 Eh
 * total energy  :   -33.4581999 Eh     change       -0.1772967E-04 Eh
 * total energy  :   -33.4582322 Eh     change       -0.3233535E-04 Eh
 * total energy  :   -33.4582402 Eh     change       -0.7994893E-05 Eh
 * total energy  :   -33.4582464 Eh     change       -0.6179489E-05 Eh
 * total energy  :   -33.4582460 Eh     change        0.3788551E-06 Eh
 * total energy  :   -33.4582471 Eh     change       -0.1059863E-05 Eh
   *** GEOMETRY OPTIMIZATION CONVERGED AFTER 11 ITERATIONS ***

 final structure:
================
28
 xtb: 6.7.1 (edcfbbe)
C            1.47508130797653       -0.56394766883546        0.06656387946768
C            0.43152409761752       -0.88126653072835        1.13284654213840
N            0.89585344787750       -0.52202083499172        2.46393136101007
C            1.52137697281643       -1.36486343505678        3.25251154210731
C            1.78626692092131       -2.80909831997141        2.96117425585723
C            2.77424370702457       -3.21185682617468        4.06609532806298
C            2.54119908564832       -2.17161286454315        5.16585364289703
N            1.96901014297731       -1.04664809727098        4.44936587695145
C            1.85187896956975        0.27382706829125        5.01937895022216
C            1.77554439125467        1.27907480890284        3.87500187029370
C            0.68643950749028        0.85348914961602        2.89732863935507
H            1.70877865036146        0.49730408647827        0.05006278613759
H            1.08928175782278       -0.84030314991788       -0.90983173802289
H            2.39462177870013       -1.11673430191664        0.24129874367831
H           -0.48233961572296       -0.31548704296081        0.94009586700407
H            0.18193563682207       -1.94251191140269        1.11395241683558
H            0.84992281943009       -3.36781964126480        3.04133640239824
H            2.19087666960668       -2.97142114110332        1.96427033774374
H            2.60866919240019       -4.22545733466891        4.41950103723770
H            3.79647225384788       -3.14384649086626        3.69539006174327
H            1.83252394512335       -2.52397799558238        5.92286071108843
H            3.46191151181909       -1.87277669771946        5.66877853918579
H            2.72416080096500        0.46416905133562        5.64831340848914
H            0.95846190071019        0.33017453118342        5.65098485568472
H            2.73610198220011        1.31345733623059        3.35803268524210
H            1.55878376753664        2.27300632767808        4.26081748767787
H           -0.30154376033527        0.93254961366809        3.36365089633247
H            0.69873215753839        1.49660831159140        2.01644361318081

          :  Hamiltonian                  GFN2-xTB          :
         :: total energy             -33.458247098552 Eh    ::
         :: gradient norm              0.000134472148 Eh/a0 ::
         :: HOMO-LUMO gap              4.208561573151 eV    ::
         :: SCC energy               -33.934385147242 Eh    ::
         :: -> dispersion             -0.021413497804 Eh    ::
         :: repulsion energy           0.476138048690 Eh    ::

    * Orbital Energies and Occupations

         #    Occupation            Energy/Eh            Energy/eV
      -------------------------------------------------------------
         1        2.0000           -0.8590380             -23.3756
       ...           ...                  ...                  ...
        19        2.0000           -0.6525674             -17.7573
        20        2.0000           -0.6446454             -17.5417
        21        2.0000           -0.6430753             -17.4990
        22        2.0000           -0.6226955             -16.9444
        23        2.0000           -0.6177960             -16.8111
        24        2.0000           -0.6149210             -16.7329
        25        2.0000           -0.6122852             -16.6611
        26        2.0000           -0.6054578             -16.4753
        27        2.0000           -0.5946987             -16.1826
        28        2.0000           -0.5925209             -16.1233
        29        2.0000           -0.5826112             -15.8537
        30        2.0000           -0.5774353             -15.7128
        31        2.0000           -0.5422735             -14.7560 (HOMO)
        32                         -0.3876117             -10.5475 (LUMO)
        33                         -0.1875449              -5.1034
        34                         -0.1607531              -4.3743
        35                         -0.1286807              -3.5016
        36                         -0.0922177              -2.5094
        37                         -0.0698221              -1.9000
        38                         -0.0472035              -1.2845
        39                         -0.0459875              -1.2514
        40                         -0.0339495              -0.9238
        41                         -0.0263105              -0.7159
        42                         -0.0222892              -0.6065
       ...                                ...                  ...
        61                          0.3763645              10.2414
      -------------------------------------------------------------
                  HL-Gap            0.1546618 Eh            4.2086 eV

     #   Z          covCN         q      C6AA      α(0)
     1   6 C        3.752    -0.122    22.904     6.825
     2   6 C        3.747    -0.019    20.974     6.532
     3   7 N        2.739    -0.022    21.677     6.915
     4   6 C        2.907     0.144    24.864     8.176
     5   6 C        3.835    -0.080    21.993     6.672
     6   6 C        3.835    -0.073    21.859     6.652
     7   6 C        3.793    -0.020    20.932     6.515
     8   7 N        2.775    -0.017    21.581     6.900
     9   6 C        3.748    -0.019    20.976     6.532
    10   6 C        3.808    -0.076    21.953     6.670
    11   6 C        3.757    -0.020    20.989     6.532
    12   1 H        0.925     0.061     2.190     2.314
    13   1 H        0.925     0.077     2.015     2.220
    14   1 H        0.925     0.055     2.258     2.350
    15   1 H        0.924     0.079     1.989     2.205
    16   1 H        0.924     0.072     2.059     2.244
    17   1 H        0.924     0.091     1.865     2.136
    18   1 H        0.925     0.090     1.878     2.143
    19   1 H        0.925     0.083     1.952     2.185
    20   1 H        0.925     0.074     2.045     2.236
    21   1 H        0.924     0.077     2.013     2.219
    22   1 H        0.924     0.081     1.970     2.195
    23   1 H        0.924     0.085     1.929     2.172
    24   1 H        0.924     0.077     2.015     2.220
    25   1 H        0.924     0.071     2.073     2.252
    26   1 H        0.925     0.086     1.918     2.166
    27   1 H        0.924     0.077     2.015     2.220
    28   1 H        0.924     0.089     1.890     2.150

Wiberg/Mayer (AO) data.
largest (>0.10) Wiberg bond orders for each atom

     #   Z sym  total        # sym  WBO       # sym  WBO       # sym  WBO
 ---------------------------------------------------------------------------
     1   6 C    3.985 --     2 C    1.007    14 H    0.984    12 H    0.983
                            13 H    0.978
     2   6 C    3.951 --     1 C    1.007     3 N    0.968    16 H    0.967
                            15 H    0.967
     3   7 N    3.596 --     4 C    1.403    11 C    0.969     2 C    0.968
                             8 N    0.151
     4   6 C    3.964 --     3 N    1.403     8 N    1.389     5 C    1.010
     5   6 C    3.987 --     4 C    1.010     6 C    1.000    18 H    0.958
                            17 H    0.943
     6   6 C    3.986 --     7 C    1.003     5 C    1.000    20 H    0.978
                            19 H    0.975
     7   6 C    3.955 --     6 C    1.003     8 N    0.972    22 H    0.968
                            21 H    0.962
     8   7 N    3.598 --     4 C    1.389     9 C    0.980     7 C    0.972
                             3 N    0.151
     9   6 C    3.960 --    10 C    1.004     8 N    0.980    23 H    0.963
                            24 H    0.958
    10   6 C    3.989 --    11 C    1.007     9 C    1.004    25 H    0.973
                            26 H    0.967
    11   6 C    3.958 --    10 C    1.007     3 N    0.969    28 H    0.963
                            27 H    0.960
    12   1 H    0.996 --     1 C    0.983
    13   1 H    0.993 --     1 C    0.978
    14   1 H    0.997 --     1 C    0.984
    15   1 H    0.993 --     2 C    0.967
    16   1 H    0.994 --     2 C    0.967
    17   1 H    0.992 --     5 C    0.943
    18   1 H    0.992 --     5 C    0.958
    19   1 H    0.993 --     6 C    0.975
    20   1 H    0.995 --     6 C    0.978
    21   1 H    0.994 --     7 C    0.962
    22   1 H    0.993 --     7 C    0.968
    23   1 H    0.993 --     9 C    0.963
    24   1 H    0.994 --     9 C    0.958
    25   1 H    0.995 --    10 C    0.973
    26   1 H    0.992 --    10 C    0.967
    27   1 H    0.994 --    11 C    0.960
    28   1 H    0.992 --    11 C    0.963
 ---------------------------------------------------------------------------

molecular dipole:
                 x           y           z       tot (Debye)
 q only:        2.943      -1.716       6.216
   full:        2.856      -1.713       6.275      18.057

           -------------------------------------------------
          | TOTAL ENERGY              -33.458247098552 Eh   |
          | GRADIENT NORM               0.000134472148 Eh/α |
          | HOMO-LUMO GAP               4.208561573151 eV   |
           -------------------------------------------------

 * finished run on 2024/12/20 at 02:08:51.766
