   * xtb version 6.7.1 (edcfbbe) compiled by 'conda@3ef47c1a292c' on 2024-11-25

   ID    Z sym.   atoms
    1    7 N      1, 5, 7, 18
    2    6 C      2-4, 6, 8-16, 19-25, 28, 29
    3    8 O      17, 26, 27
    4    1 H      30-52

          program call               : xtb C0175.xyz --opt --namespace C0175 --charge +1
          :  Hamiltonian                  GFN2-xTB          :
 * total energy  :   -82.3147385 Eh     change       -0.9626149E-09 Eh
 * total energy  :   -82.3537992 Eh     change       -0.3906070E-01 Eh
 * total energy  :   -82.3584079 Eh     change       -0.4608750E-02 Eh
 * total energy  :   -82.3601822 Eh     change       -0.1774258E-02 Eh
 * total energy  :   -82.3611682 Eh     change       -0.9860492E-03 Eh
 * total energy  :   -82.3621861 Eh     change       -0.1017859E-02 Eh
 * total energy  :   -82.3629638 Eh     change       -0.7777544E-03 Eh
 * total energy  :   -82.3635709 Eh     change       -0.6071068E-03 Eh
 * total energy  :   -82.3640332 Eh     change       -0.4623003E-03 Eh
 * total energy  :   -82.3643873 Eh     change       -0.3540008E-03 Eh
 * total energy  :   -82.3676683 Eh     change       -0.3331874E-04 Eh
 * total energy  :   -82.3676906 Eh     change       -0.2226098E-04 Eh
 * total energy  :   -82.3677009 Eh     change       -0.1031503E-04 Eh
 * total energy  :   -82.3677123 Eh     change       -0.1146355E-04 Eh
 * total energy  :   -82.3676856 Eh     change        0.2676366E-04 Eh
 * total energy  :   -82.3677132 Eh     change       -0.2764567E-04 Eh
 * total energy  :   -82.3677011 Eh     change        0.1210211E-04 Eh
 * total energy  :   -82.3677263 Eh     change       -0.2519069E-04 Eh
 * total energy  :   -82.3677312 Eh     change       -0.4851507E-05 Eh
   *** GEOMETRY OPTIMIZATION CONVERGED AFTER 47 ITERATIONS ***

 final structure:
================
52
 xtb: 6.7.1 (edcfbbe)
N            2.01832098696601       -1.59537457166942       -1.37819580121112
C            2.86951322482998       -0.96635245071169       -0.94985213014206
C            3.93859251784473       -0.24895238539626       -0.29638590691846
C            3.85637317408262       -0.50161481949096        1.22330827559187
N            3.57187041091939       -1.91255416391091        1.46191784524547
C            2.43232907962243       -2.35832386280212        1.97728943456846
N            2.37603223088234       -3.68265521517787        1.97057527241019
C            3.53766888407464       -4.15843683413056        1.38529639980943
C            4.31170962238946       -3.01652023694508        1.07679079357821
C            5.57126897688915       -3.12789362355818        0.50065662866379
C            6.02668900845807       -4.40096639090922        0.23701908866503
C            5.24349021858750       -5.52261822371071        0.49929693866464
C            3.97928266338229       -5.44855781367421        1.06030436658779
C            3.16790481011036       -6.69055363716757        1.23871635806718
C            1.28483590132455       -4.40330453542188        2.58290090620840
C            0.99432694164520       -3.80450360537828        3.98298014587229
O            0.09259317818735       -3.02467439767018        4.15877831071146
N            1.84251758940293       -4.19993763092145        4.95084111149232
C            3.01982833463777       -4.97769783072764        4.76582965994085
C            2.98638557247294       -6.35854935419630        4.92100558052027
C            4.12980257774412       -7.09855136094701        4.68154786290618
C            5.30674606776630       -6.46641785244317        4.28917532277726
C            5.34704976922717       -5.08125179407955        4.17396480501190
C            4.20561482679823       -4.34077692464280        4.41356570738559
C            6.49327495350797       -7.31923845629145        3.98614745029370
O            6.43989190374148       -8.51816257987485        3.89924862285477
O            7.60118856912917       -6.59955117589670        3.79933724638990
C            8.78822092999858       -7.33947961286238        3.52893676897702
C            5.10587567969044       -0.04155948946376        1.96372556094045
H            4.88999264866946       -0.59206471326234       -0.70773035100705
H            3.84112818262718        0.81907817095184       -0.49968702264267
H            2.99083347915085        0.04341429510318        1.61677071543990
H            1.64614101835531       -1.73397617341526        2.36261086608144
H            6.17576316135767       -2.27069064188578        0.26046913934809
H            7.00132877094041       -4.53361415178344       -0.20450125941164
H            5.63239818064500       -6.49435512715228        0.23848604824459
H            3.06780456238848       -6.95271876704129        2.29112269105936
H            2.17850933986740       -6.57639561677679        0.79963174997673
H            3.66159162385600       -7.52211534275123        0.74362418218914
H            0.37738995836800       -4.28418980729316        1.98262790465070
H            1.53684699786517       -5.45657058864361        2.66924620015303
H            1.64506182003166       -3.85312156789073        5.88216497149780
H            2.06900897436000       -6.84128765455138        5.22217686852854
H            4.12941941679200       -8.17304041344542        4.78547656876910
H            6.26826086188006       -4.59596196596419        3.89494945170654
H            4.22690915878979       -3.26283503457203        4.33962414766766
H            9.09381842899984       -7.89588391771304        4.41611810067549
H            8.61783649140105       -8.04462843794451        2.71395895503262
H            9.54697010334047       -6.61027154716746        3.25896837501066
H            5.23603337869885        1.02743125595283        1.82034354204096
H            5.00371393170153       -0.22886820664823        3.02964389094959
H            5.99892090557012       -0.54562321612139        1.60857163815550

          :  Hamiltonian                  GFN2-xTB          :
         :: total energy             -82.367731168185 Eh    ::
         :: gradient norm              0.000988073480 Eh/a0 ::
         :: HOMO-LUMO gap              2.689318798410 eV    ::
         :: SCC energy               -83.622651966079 Eh    ::
         :: -> dispersion             -0.065238049519 Eh    ::
         :: repulsion energy           1.254920797894 Eh    ::

    * Orbital Energies and Occupations

         #    Occupation            Energy/Eh            Energy/eV
      -------------------------------------------------------------
         1        2.0000           -0.8806652             -23.9641
       ...           ...                  ...                  ...
        62        2.0000           -0.5764232             -15.6853
        63        2.0000           -0.5720143             -15.5653
        64        2.0000           -0.5680298             -15.4569
        65        2.0000           -0.5604552             -15.2508
        66        2.0000           -0.5557121             -15.1217
        67        2.0000           -0.5456560             -14.8481
        68        2.0000           -0.5449619             -14.8292
        69        2.0000           -0.5444752             -14.8159
        70        2.0000           -0.5379676             -14.6388
        71        2.0000           -0.5352348             -14.5645
        72        2.0000           -0.5351632             -14.5625
        73        2.0000           -0.5269163             -14.3381
        74        2.0000           -0.5141231             -13.9900 (HOMO)
        75                         -0.4152925             -11.3007 (LUMO)
        76                         -0.3869349             -10.5290
        77                         -0.3669802              -9.9860
        78                         -0.3602781              -9.8037
        79                         -0.3567940              -9.7089
        80                         -0.3485491              -9.4845
        81                         -0.3317941              -9.0286
        82                         -0.3243107              -8.8249
        83                         -0.3041335              -8.2759
        84                         -0.2424181              -6.5965
        85                         -0.2154644              -5.8631
       ...                                ...                  ...
       139                          1.0230086              27.8375
      -------------------------------------------------------------
                  HL-Gap            0.0988306 Eh            2.6893 eV

     #   Z          covCN         q      C6AA      α(0)
     1   7 N        0.911    -0.212    25.623     7.321
     2   6 C        1.901     0.111    28.366     8.602
     3   6 C        3.806    -0.068    21.805     6.648
     4   6 C        3.799     0.042    19.870     6.347
     5   7 N        2.822     0.016    20.969     6.801
     6   6 C        3.075     0.068    26.400     8.424
     7   7 N        2.829     0.041    20.523     6.728
     8   6 C        3.105     0.029    27.212     8.547
     9   6 C        3.120     0.044    26.849     8.486
    10   6 C        2.909    -0.040    29.000     8.830
    11   6 C        2.924    -0.020    28.515     8.757
    12   6 C        2.932    -0.033    28.818     8.804
    13   6 C        2.955     0.023    27.487     8.599
    14   6 C        3.757    -0.126    22.974     6.834
    15   6 C        3.747    -0.055    21.628     6.634
    16   6 C        2.747     0.271    22.412     7.752
    17   8 O        0.859    -0.393    21.534     6.222
    18   7 N        2.692    -0.170    24.680     7.378
    19   6 C        2.909     0.066    26.515     8.443
    20   6 C        2.919    -0.040    28.984     8.829
    21   6 C        2.924    -0.017    28.430     8.744
    22   6 C        2.973    -0.013    28.342     8.733
    23   6 C        2.920    -0.023    28.585     8.768
    24   6 C        2.922    -0.043    29.074     8.842
    25   6 C        2.731     0.351    21.038     7.509
    26   8 O        0.857    -0.391    21.508     6.218
    27   8 O        1.704    -0.257    18.260     5.769
    28   6 C        3.657     0.026    20.421     6.486
    29   6 C        3.754    -0.125    22.952     6.831
    30   1 H        0.924     0.093     1.853     2.129
    31   1 H        0.924     0.103     1.761     2.075
    32   1 H        0.924     0.073     2.048     2.238
    33   1 H        0.926     0.115     1.655     2.012
    34   1 H        0.926     0.065     2.144     2.290
    35   1 H        0.926     0.078     1.998     2.211
    36   1 H        0.926     0.077     2.012     2.218
    37   1 H        0.925     0.064     2.155     2.296
    38   1 H        0.925     0.072     2.066     2.248
    39   1 H        0.925     0.079     1.991     2.207
    40   1 H        0.924     0.110     1.696     2.037
    41   1 H        0.925     0.101     1.780     2.086
    42   1 H        0.860     0.211     1.052     1.606
    43   1 H        0.926     0.069     2.099     2.266
    44   1 H        0.926     0.089     1.885     2.147
    45   1 H        0.926     0.067     2.119     2.276
    46   1 H        0.926     0.038     2.482     2.464
    47   1 H        0.924     0.075     2.031     2.228
    48   1 H        0.924     0.073     2.052     2.240
    49   1 H        0.925     0.077     2.015     2.220
    50   1 H        0.925     0.081     1.973     2.196
    51   1 H        0.925     0.063     2.160     2.298
    52   1 H        0.925     0.067     2.123     2.279

Wiberg/Mayer (AO) data.
largest (>0.10) Wiberg bond orders for each atom

     #   Z sym  total        # sym  WBO       # sym  WBO       # sym  WBO
 ---------------------------------------------------------------------------
     1   7 N    3.016 --     2 C    2.864
     2   6 C    3.949 --     1 N    2.864     3 C    1.049
     3   6 C    3.989 --     2 C    1.049     4 C    0.958    30 H    0.940
                            31 H    0.940
     4   6 C    3.947 --    29 C    1.000    32 H    0.961     3 C    0.958
                             5 N    0.950
     5   7 N    3.667 --     6 C    1.363     9 C    1.120     4 C    0.950
                             7 N    0.102
     6   6 C    3.953 --     7 N    1.379     5 N    1.363    33 H    0.950
     7   7 N    3.686 --     6 C    1.379     8 C    1.119    15 C    0.974
                             5 N    0.102
     8   6 C    3.946 --    13 C    1.306     9 C    1.275     7 N    1.119
     9   6 C    3.951 --    10 C    1.339     8 C    1.275     5 N    1.120
    10   6 C    3.985 --    11 C    1.485     9 C    1.339    34 H    0.959
                            13 C    0.113
    11   6 C    3.986 --    10 C    1.485    12 C    1.388    35 H    0.966
    12   6 C    3.985 --    13 C    1.456    11 C    1.388    36 H    0.964
    13   6 C    3.984 --    12 C    1.456     8 C    1.306    14 C    1.033
                            10 C    0.113
    14   6 C    3.988 --    13 C    1.033    39 H    0.977    38 H    0.966
                            37 H    0.953
    15   6 C    3.938 --     7 N    0.974    41 H    0.954    40 H    0.952
                            16 C    0.918
    16   6 C    3.958 --    17 O    1.719    18 N    1.264    15 C    0.918
    17   8 O    2.055 --    16 C    1.719    18 N    0.216
    18   7 N    3.458 --    16 C    1.264    19 C    0.994    42 H    0.912
                            17 O    0.216
    19   6 C    3.961 --    20 C    1.399    24 C    1.395    18 N    0.994
                            22 C    0.101
    20   6 C    3.988 --    21 C    1.446    19 C    1.399    43 H    0.965
                            23 C    0.107
    21   6 C    3.983 --    20 C    1.446    22 C    1.395    44 H    0.961
                            24 C    0.107
    22   6 C    3.988 --    23 C    1.396    21 C    1.395    25 C    0.983
                            19 C    0.101
    23   6 C    3.988 --    24 C    1.453    22 C    1.396    45 H    0.964
                            20 C    0.107
    24   6 C    3.991 --    23 C    1.453    19 C    1.395    46 H    0.968
                            21 C    0.107
    25   6 C    3.927 --    26 O    1.741    27 O    1.137    22 C    0.983
    26   8 O    2.052 --    25 C    1.741    27 O    0.180
    27   8 O    2.316 --    25 C    1.137    28 C    0.949    26 O    0.180
    28   6 C    3.913 --    49 H    0.981    48 H    0.976    47 H    0.974
                            27 O    0.949
    29   6 C    3.982 --     4 C    1.000    51 H    0.981    52 H    0.978
                            50 H    0.977
    30   1 H    0.991 --     3 C    0.940
    31   1 H    0.988 --     3 C    0.940
    32   1 H    0.994 --     4 C    0.961
    33   1 H    0.986 --     6 C    0.950
    34   1 H    0.994 --    10 C    0.959
    35   1 H    0.993 --    11 C    0.966
    36   1 H    0.994 --    12 C    0.964
    37   1 H    0.996 --    14 C    0.953
    38   1 H    0.995 --    14 C    0.966
    39   1 H    0.993 --    14 C    0.977
    40   1 H    0.987 --    15 C    0.952
    41   1 H    0.989 --    15 C    0.954
    42   1 H    0.955 --    18 N    0.912
    43   1 H    0.995 --    20 C    0.965
    44   1 H    0.991 --    21 C    0.961
    45   1 H    0.995 --    23 C    0.964
    46   1 H    0.998 --    24 C    0.968
    47   1 H    0.994 --    28 C    0.974
    48   1 H    0.994 --    28 C    0.976
    49   1 H    0.994 --    28 C    0.981
    50   1 H    0.993 --    29 C    0.977
    51   1 H    0.995 --    29 C    0.981
    52   1 H    0.996 --    29 C    0.978
 ---------------------------------------------------------------------------

molecular dipole:
                 x           y           z       tot (Debye)
 q only:        8.590      -6.110       3.850
   full:        8.867      -5.698       4.179      28.818

           -------------------------------------------------
          | TOTAL ENERGY              -82.367731168185 Eh   |
          | GRADIENT NORM               0.000988073480 Eh/α |
          | HOMO-LUMO GAP               2.689318798410 eV   |
           -------------------------------------------------

 * finished run on 2024/12/20 at 02:08:58.785
