   * xtb version 6.7.1 (edcfbbe) compiled by 'conda@3ef47c1a292c' on 2024-11-25

   ID    Z sym.   atoms
    1    6 C      1, 2, 4, 6-14, 16-18
    2    7 N      3, 5
    3   14 Si     15
    4    1 H      19-43

          program call               : xtb C0170.xyz --opt --namespace C0170 --charge +1
          :  Hamiltonian                  GFN2-xTB          :
 * total energy  :   -52.0742061 Eh     change       -0.8486580E-09 Eh
 * total energy  :   -52.0808638 Eh     change       -0.6657647E-02 Eh
 * total energy  :   -52.0820193 Eh     change       -0.1155509E-02 Eh
 * total energy  :   -52.0822968 Eh     change       -0.2775348E-03 Eh
 * total energy  :   -52.0825846 Eh     change       -0.2878017E-03 Eh
 * total energy  :   -52.0827788 Eh     change       -0.1942085E-03 Eh
 * total energy  :   -52.0829375 Eh     change       -0.1586394E-03 Eh
 * total energy  :   -52.0830400 Eh     change       -0.1025447E-03 Eh
 * total energy  :   -52.0831178 Eh     change       -0.7781830E-04 Eh
 * total energy  :   -52.0832066 Eh     change       -0.8879740E-04 Eh
 * total energy  :   -52.0860427 Eh     change       -0.2516373E-04 Eh
 * total energy  :   -52.0860546 Eh     change       -0.1185719E-04 Eh
 * total energy  :   -52.0860796 Eh     change       -0.2506793E-04 Eh
 * total energy  :   -52.0861065 Eh     change       -0.2682459E-04 Eh
 * total energy  :   -52.0861224 Eh     change       -0.1592794E-04 Eh
 * total energy  :   -52.0861342 Eh     change       -0.1181896E-04 Eh
 * total energy  :   -52.0861435 Eh     change       -0.9307014E-05 Eh
 * total energy  :   -52.0861495 Eh     change       -0.5996389E-05 Eh
 * total energy  :   -52.0861540 Eh     change       -0.4533661E-05 Eh
   *** GEOMETRY OPTIMIZATION CONVERGED AFTER 58 ITERATIONS ***

 final structure:
================
43
 xtb: 6.7.1 (edcfbbe)
C           -0.42083499862796        0.13831875595876       -0.23897546274134
C           -0.31301797761309        1.49419011042633        0.43622095921865
N            0.32299073212276        2.49430336038641       -0.39839758591974
C            0.68606263579076        2.38790894209031       -1.67271555059407
N            1.23691970478324        3.51219179181125       -2.11593368833254
C            1.25315784269081        4.41363152378655       -1.07293618536969
C            0.66002228154680        3.76424471034880        0.02637864077155
C            0.50805708878787        4.40581573256411        1.25006590668531
C            0.96754966469548        5.70349312290767        1.33485723530836
C            1.55845216332890        6.34858481443260        0.24384283292702
C            1.71271576848718        5.72204524877502       -0.97485205537387
C            1.83372824923464        3.70703928647967       -3.41530323403474
C            3.33470455011849        3.40425478192656       -3.37216461197092
C            3.63972075607834        1.93029390502749       -3.12238543404108
Si           3.19917630730578        0.70500998437061       -4.55484861513718
C            3.42969633266235        1.58449860023525       -6.22556976838744
C            4.35704270845534       -0.78961758511623       -4.37580302027975
C            1.38991734923451        0.08876891834191       -4.40015666980058
H           -1.05659162763459        0.18149341346059       -1.11951371728047
H           -0.86648072344685       -0.56469009774746        0.45880830789352
H            0.55982244091521       -0.24073954342921       -0.51641059211040
H           -1.30883558947933        1.86085843486135        0.70604804090532
H            0.27576357316606        1.40895383661300        1.35462918006370
H            0.55441334413082        1.51622447564240       -2.28422118178934
H            0.05091457502420        3.91533985405954        2.09345495404266
H            0.86914603320424        6.23813814226095        2.26592202967518
H            1.90201296939384        7.36377270588304        0.36200050944239
H            2.17046260404945        6.22557940354777       -1.81024691747998
H            1.34324198448892        3.04275514736534       -4.12676547572654
H            1.66255455847524        4.74271640659465       -3.71501835915563
H            3.76328552920556        3.70596107652400       -4.32647083230042
H            3.79308965204437        4.01939622441447       -2.59289759434957
H            4.71394373875725        1.84835728696071       -2.95851332163130
H            3.17905498709248        1.61574810432980       -2.18296449676980
H            4.42558528352437        2.00778762860466       -6.31475809788031
H            3.30804961175742        0.88018364645271       -7.04239920687796
H            2.71442887488920        2.38645984820133       -6.38489735391752
H            4.26663281667858       -1.25738258816508       -3.39976291619646
H            4.13412864730191       -1.54699509136957       -5.12052571230920
H            5.39636891667333       -0.50401180399125       -4.50511773791016
H            1.19357037231585       -0.36516860251589       -3.43202585425996
H            0.64399675366898        0.85854151152558       -4.58167280761267
H            1.21866951470533       -0.68449542483206       -5.14225453939998

          :  Hamiltonian                  GFN2-xTB          :
         :: total energy             -52.086154049562 Eh    ::
         :: gradient norm              0.000420052490 Eh/a0 ::
         :: HOMO-LUMO gap              2.280646178732 eV    ::
         :: SCC energy               -52.923985991547 Eh    ::
         :: -> dispersion             -0.040771207413 Eh    ::
         :: repulsion energy           0.837831941986 Eh    ::

    * Orbital Energies and Occupations

         #    Occupation            Energy/Eh            Energy/eV
      -------------------------------------------------------------
         1        2.0000           -0.8725062             -23.7421
       ...           ...                  ...                  ...
        37        2.0000           -0.5688636             -15.4796
        38        2.0000           -0.5670134             -15.4292
        39        2.0000           -0.5629323             -15.3182
        40        2.0000           -0.5588751             -15.2078
        41        2.0000           -0.5533948             -15.0586
        42        2.0000           -0.5500281             -14.9670
        43        2.0000           -0.5480568             -14.9134
        44        2.0000           -0.5466881             -14.8761
        45        2.0000           -0.5442995             -14.8111
        46        2.0000           -0.5371525             -14.6167
        47        2.0000           -0.4968219             -13.5192
        48        2.0000           -0.4922618             -13.3951
        49        2.0000           -0.4902221             -13.3396 (HOMO)
        50                         -0.4064099             -11.0590 (LUMO)
        51                         -0.3585236              -9.7559
        52                         -0.3492200              -9.5028
        53                         -0.2375338              -6.4636
        54                         -0.2329701              -6.3394
        55                         -0.2323868              -6.3236
        56                         -0.2256012              -6.1389
        57                         -0.1721592              -4.6847
        58                         -0.1244581              -3.3867
        59                         -0.1214647              -3.3052
        60                         -0.1191241              -3.2415
       ...                                ...                  ...
       102                          0.5440985              14.8057
      -------------------------------------------------------------
                  HL-Gap            0.0838122 Eh            2.2806 eV

     #   Z          covCN         q      C6AA      α(0)
     1   6 C        3.752    -0.126    22.986     6.837
     2   6 C        3.739    -0.014    20.908     6.525
     3   7 N        2.826     0.027    20.766     6.768
     4   6 C        3.072     0.062    26.533     8.446
     5   7 N        2.829     0.036    20.613     6.743
     6   6 C        3.119     0.040    26.928     8.499
     7   6 C        3.123     0.036    27.016     8.512
     8   6 C        2.908    -0.034    28.858     8.809
     9   6 C        2.926    -0.018    28.464     8.749
    10   6 C        2.925    -0.019    28.476     8.751
    11   6 C        2.909    -0.032    28.809     8.801
    12   6 C        3.742    -0.025    21.102     6.554
    13   6 C        3.807    -0.069    21.811     6.648
    14   6 C        3.694    -0.173    24.075     7.020
    15  14 Si       3.495     0.485   101.160    19.474
    16   6 C        3.649    -0.212    25.087     7.195
    17   6 C        3.650    -0.213    25.096     7.196
    18   6 C        3.647    -0.213    25.116     7.202
    19   1 H        0.925     0.063     2.168     2.302
    20   1 H        0.925     0.082     1.954     2.186
    21   1 H        0.925     0.061     2.185     2.312
    22   1 H        0.924     0.085     1.926     2.170
    23   1 H        0.924     0.086     1.921     2.167
    24   1 H        0.926     0.117     1.634     1.999
    25   1 H        0.926     0.069     2.101     2.267
    26   1 H        0.926     0.079     1.994     2.208
    27   1 H        0.926     0.078     1.994     2.208
    28   1 H        0.926     0.071     2.079     2.255
    29   1 H        0.925     0.080     1.982     2.201
    30   1 H        0.924     0.080     1.982     2.201
    31   1 H        0.925     0.064     2.153     2.295
    32   1 H        0.924     0.046     2.374     2.410
    33   1 H        0.925     0.043     2.410     2.428
    34   1 H        0.924     0.011     2.882     2.655
    35   1 H        0.925     0.043     2.405     2.425
    36   1 H        0.925     0.048     2.345     2.395
    37   1 H        0.925     0.035     2.517     2.481
    38   1 H        0.925     0.041     2.438     2.442
    39   1 H        0.925     0.045     2.378     2.411
    40   1 H        0.925     0.046     2.375     2.410
    41   1 H        0.925     0.024     2.679     2.560
    42   1 H        0.925     0.021     2.712     2.575
    43   1 H        0.925     0.046     2.368     2.406

Wiberg/Mayer (AO) data.
largest (>0.10) Wiberg bond orders for each atom

     #   Z sym  total        # sym  WBO       # sym  WBO       # sym  WBO
 ---------------------------------------------------------------------------
     1   6 C    3.984 --     2 C    1.021    21 H    0.983    19 H    0.983
                            20 H    0.977
     2   6 C    3.946 --     1 C    1.021     3 N    0.967    23 H    0.958
                            22 H    0.956
     3   7 N    3.678 --     4 C    1.367     7 C    1.126     2 C    0.967
                             5 N    0.102
     4   6 C    3.950 --     5 N    1.368     3 N    1.367    24 H    0.943
     5   7 N    3.686 --     4 C    1.368     6 C    1.130    12 C    0.970
                             3 N    0.102
     6   6 C    3.955 --    11 C    1.337     7 C    1.275     5 N    1.130
     7   6 C    3.953 --     8 C    1.339     6 C    1.275     3 N    1.126
     8   6 C    3.986 --     9 C    1.496     7 C    1.339    25 H    0.964
                            11 C    0.119
     9   6 C    3.986 --     8 C    1.496    10 C    1.376    26 H    0.966
    10   6 C    3.986 --    11 C    1.497     9 C    1.376    27 H    0.966
    11   6 C    3.987 --    10 C    1.497     6 C    1.337    28 H    0.963
                             8 C    0.119
    12   6 C    3.940 --    13 C    0.982     5 N    0.970    30 H    0.964
                            29 H    0.963
    13   6 C    3.983 --    14 C    1.025    12 C    0.982    32 H    0.974
                            31 H    0.971
    14   6 C    3.963 --    13 C    1.025    34 H    0.981    33 H    0.980
                            15 Si   0.839
    15  14 Si   3.616 --    17 C    0.911    16 C    0.907    18 C    0.884
                            14 C    0.839
    16   6 C    3.982 --    36 H    0.985    35 H    0.985    37 H    0.984
                            15 Si   0.907
    17   6 C    3.983 --    39 H    0.986    40 H    0.984    38 H    0.984
                            15 Si   0.911
    18   6 C    3.975 --    43 H    0.987    41 H    0.986    42 H    0.985
                            15 Si   0.884
    19   1 H    0.996 --     1 C    0.983
    20   1 H    0.993 --     1 C    0.977
    21   1 H    0.996 --     1 C    0.983
    22   1 H    0.992 --     2 C    0.956
    23   1 H    0.992 --     2 C    0.958
    24   1 H    0.985 --     4 C    0.943
    25   1 H    0.995 --     8 C    0.964
    26   1 H    0.993 --     9 C    0.966
    27   1 H    0.993 --    10 C    0.966
    28   1 H    0.994 --    11 C    0.963
    29   1 H    0.993 --    12 C    0.963
    30   1 H    0.993 --    12 C    0.964
    31   1 H    0.994 --    13 C    0.971
    32   1 H    0.998 --    13 C    0.974
    33   1 H    0.998 --    14 C    0.980
    34   1 H    1.000 --    14 C    0.981
    35   1 H    0.998 --    16 C    0.985
    36   1 H    0.998 --    16 C    0.985
    37   1 H    0.999 --    16 C    0.984
    38   1 H    0.998 --    17 C    0.984
    39   1 H    0.998 --    17 C    0.986
    40   1 H    0.998 --    17 C    0.984
    41   1 H    0.999 --    18 C    0.986
    42   1 H    1.000 --    18 C    0.985
    43   1 H    0.998 --    18 C    0.987
 ---------------------------------------------------------------------------

molecular dipole:
                 x           y           z       tot (Debye)
 q only:        2.063       5.512      -2.537
   full:        2.042       5.451      -2.592      16.196

           -------------------------------------------------
          | TOTAL ENERGY              -52.086154049562 Eh   |
          | GRADIENT NORM               0.000420052490 Eh/α |
          | HOMO-LUMO GAP               2.280646178732 eV   |
           -------------------------------------------------

 * finished run on 2024/12/20 at 02:08:51.130
