   * xtb version 6.7.1 (edcfbbe) compiled by 'conda@3ef47c1a292c' on 2024-11-25

   ID    Z sym.   atoms
    1    6 C      1-3, 5, 6, 9-17
    2    7 N      4, 8, 18
    3    8 O      7
    4    1 H      19-32

          program call               : xtb C0177.xyz --opt --namespace C0177 --charge +1
          :  Hamiltonian                  GFN2-xTB          :
 * total energy  :   -49.4522074 Eh     change       -0.6712000E-09 Eh
 * total energy  :   -49.4802683 Eh     change       -0.2806088E-01 Eh
 * total energy  :   -49.4832300 Eh     change       -0.2961705E-02 Eh
 * total energy  :   -49.4839112 Eh     change       -0.6811627E-03 Eh
 * total energy  :   -49.4840581 Eh     change       -0.1469663E-03 Eh
 * total energy  :   -49.4844466 Eh     change       -0.3884854E-03 Eh
 * total energy  :   -49.4845707 Eh     change       -0.1241165E-03 Eh
 * total energy  :   -49.4847620 Eh     change       -0.1912548E-03 Eh
 * total energy  :   -49.4849359 Eh     change       -0.1739171E-03 Eh
 * total energy  :   -49.4851488 Eh     change       -0.2129051E-03 Eh
 * total energy  :   -49.4857326 Eh     change       -0.2459317E-05 Eh
 * total energy  :   -49.4857481 Eh     change       -0.1544244E-04 Eh
 * total energy  :   -49.4857580 Eh     change       -0.9954813E-05 Eh
 * total energy  :   -49.4857734 Eh     change       -0.1538487E-04 Eh
 * total energy  :   -49.4857744 Eh     change       -0.9855828E-06 Eh
 * total energy  :   -49.4857887 Eh     change       -0.1429218E-04 Eh
 * total energy  :   -49.4857926 Eh     change       -0.3867828E-05 Eh
 * total energy  :   -49.4857958 Eh     change       -0.3203416E-05 Eh
 * total energy  :   -49.4857992 Eh     change       -0.3432492E-05 Eh
   *** GEOMETRY OPTIMIZATION CONVERGED AFTER 40 ITERATIONS ***

 final structure:
================
32
 xtb: 6.7.1 (edcfbbe)
C            0.66235330518745       -0.65875712916626       -0.33876886831804
C           -0.43028952579724       -0.21229335936069       -0.14318775313148
C           -1.75683199984129        0.34853293798390        0.04887614662075
N           -2.18433895767613        1.04394229590499       -1.15359283114748
C           -2.02949928894454        2.34217032152349       -1.40847145471964
C           -1.43700436427174        3.29288956319442       -0.40204034710243
O           -2.11051160213202        3.22469509195944        0.81787702936188
N           -2.48196628914866        2.62497340554006       -2.64164092823216
C           -2.95146724787272        1.45145094848044       -3.20744267412084
C           -2.74810937483237        0.43791965063564       -2.25581593568869
C           -3.09527733738099       -0.88186418117855       -2.51599951130112
C           -3.65662539254038       -1.14639015822235       -3.74810331558976
C           -3.86654846409770       -0.13764631092108       -4.69218955340273
C           -3.51963070819900        1.17515144342511       -4.44442132205427
C           -2.58732540829183        3.92244483868536       -3.27083954988622
C           -3.96232997166323        4.56112193647873       -2.98535911019662
C           -4.18234402315538        4.57703534737543       -1.56342133375174
N           -4.27278483267231        4.50957799915639       -0.42607814637989
H            1.62132660257031       -1.06462738545583       -0.47546550631314
H           -2.47291413817267       -0.45164674961983        0.25811300876145
H           -1.75360543282255        1.05221729938582        0.88659312069404
H           -0.40307926740221        2.97961997784144       -0.20379840290689
H           -1.41580738070596        4.31184304102778       -0.80051428410234
H           -2.93729046837456        3.73920697153557        0.78601195467855
H           -2.92546913759029       -1.66605440440046       -1.79708264999997
H           -3.93958364376506       -2.15742930976176       -3.99304355640511
H           -4.30985225689072       -0.39385814909837       -5.64107866528625
H           -3.68361690585424        1.94054207980160       -5.18537076050352
H           -1.78649848864816        4.56829411727271       -2.90560918436214
H           -2.45894347955231        3.79114748636360       -4.34716602638562
H           -3.98743198798788        5.58132754235677       -3.37370625692622
H           -4.76421253147751        3.98718284125801       -3.45779333189948

          :  Hamiltonian                  GFN2-xTB          :
         :: total energy             -49.485799206830 Eh    ::
         :: gradient norm              0.000953951269 Eh/a0 ::
         :: HOMO-LUMO gap              3.256704881814 eV    ::
         :: SCC energy               -50.342115501154 Eh    ::
         :: -> dispersion             -0.033888333663 Eh    ::
         :: repulsion energy           0.856316294325 Eh    ::

    * Orbital Energies and Occupations

         #    Occupation            Energy/Eh            Energy/eV
      -------------------------------------------------------------
         1        2.0000           -0.8834605             -24.0402
       ...           ...                  ...                  ...
        33        2.0000           -0.6241110             -16.9829
        34        2.0000           -0.6097488             -16.5921
        35        2.0000           -0.6060265             -16.4908
        36        2.0000           -0.6006328             -16.3441
        37        2.0000           -0.5956472             -16.2084
        38        2.0000           -0.5845619             -15.9067
        39        2.0000           -0.5779450             -15.7267
        40        2.0000           -0.5693214             -15.4920
        41        2.0000           -0.5648868             -15.3714
        42        2.0000           -0.5555513             -15.1173
        43        2.0000           -0.5503863             -14.9768
        44        2.0000           -0.5473431             -14.8940
        45        2.0000           -0.5392320             -14.6732 (HOMO)
        46                         -0.4195503             -11.4165 (LUMO)
        47                         -0.3688380             -10.0366
        48                         -0.3625751              -9.8662
        49                         -0.3543375              -9.6420
        50                         -0.3470275              -9.4431
        51                         -0.2941805              -8.0051
        52                         -0.2789010              -7.5893
        53                         -0.2422653              -6.5924
        54                         -0.1871138              -5.0916
        55                         -0.1300139              -3.5379
        56                         -0.0927474              -2.5238
       ...                                ...                  ...
        86                          1.3027098              35.4485
      -------------------------------------------------------------
                  HL-Gap            0.1196817 Eh            3.2567 eV

     #   Z          covCN         q      C6AA      α(0)
     1   6 C        1.909    -0.078    33.236     9.311
     2   6 C        1.968    -0.027    31.783     9.104
     3   6 C        3.743    -0.007    20.778     6.503
     4   7 N        2.840     0.034    20.646     6.748
     5   6 C        3.073     0.101    25.697     8.312
     6   6 C        3.677     0.070    19.626     6.347
     7   8 O        1.655    -0.421    21.253     6.223
     8   7 N        2.829    -0.004    21.338     6.861
     9   6 C        3.099     0.039    27.014     8.518
    10   6 C        3.100     0.041    26.963     8.509
    11   6 C        2.909    -0.030    28.746     8.791
    12   6 C        2.926    -0.017    28.446     8.747
    13   6 C        2.926    -0.018    28.448     8.747
    14   6 C        2.909    -0.036    28.901     8.815
    15   6 C        3.749    -0.005    20.740     6.495
    16   6 C        3.804    -0.065    21.753     6.640
    17   6 C        1.902     0.124    28.063     8.556
    18   7 N        0.911    -0.225    25.916     7.363
    19   1 H        0.928     0.117     1.635     1.999
    20   1 H        0.924     0.102     1.764     2.077
    21   1 H        0.924     0.128     1.548     1.946
    22   1 H        0.923     0.100     1.789     2.092
    23   1 H        0.924     0.057     2.236     2.338
    24   1 H        0.804     0.333     0.629     1.246
    25   1 H        0.926     0.076     2.016     2.220
    26   1 H        0.926     0.082     1.954     2.186
    27   1 H        0.926     0.081     1.969     2.194
    28   1 H        0.926     0.065     2.137     2.286
    29   1 H        0.924     0.081     1.968     2.194
    30   1 H        0.924     0.094     1.838     2.120
    31   1 H        0.924     0.109     1.702     2.040
    32   1 H        0.924     0.098     1.804     2.101

Wiberg/Mayer (AO) data.
largest (>0.10) Wiberg bond orders for each atom

     #   Z sym  total        # sym  WBO       # sym  WBO       # sym  WBO
 ---------------------------------------------------------------------------
     1   6 C    3.966 --     2 C    2.903    19 H    0.963
     2   6 C    3.976 --     1 C    2.903     3 C    1.032
     3   6 C    3.935 --     2 C    1.032     4 N    0.950    20 H    0.942
                            21 H    0.933
     4   7 N    3.683 --     5 C    1.365    10 C    1.126     3 C    0.950
     5   6 C    3.951 --     4 N    1.365     8 N    1.314     6 C    0.990
     6   6 C    3.961 --     7 O    1.022     5 C    0.990    23 H    0.960
                            22 H    0.940
     7   8 O    1.980 --     6 C    1.022    24 H    0.845
     8   7 N    3.645 --     5 C    1.314     9 C    1.113    15 C    0.982
     9   6 C    3.951 --    14 C    1.344    10 C    1.277     8 N    1.113
    10   6 C    3.956 --    11 C    1.340     9 C    1.277     4 N    1.126
    11   6 C    3.984 --    12 C    1.493    10 C    1.340    25 H    0.962
                            14 C    0.118
    12   6 C    3.984 --    11 C    1.493    13 C    1.381    26 H    0.966
    13   6 C    3.983 --    14 C    1.489    12 C    1.381    27 H    0.966
    14   6 C    3.985 --    13 C    1.489     9 C    1.344    28 H    0.963
                            11 C    0.118
    15   6 C    3.953 --     8 N    0.982    29 H    0.964    16 C    0.963
                            30 H    0.960
    16   6 C    3.989 --    17 C    1.059    15 C    0.963    32 H    0.940
                            31 H    0.936
    17   6 C    3.947 --    18 N    2.836    16 C    1.059
    18   7 N    3.031 --    17 C    2.836
    19   1 H    0.986 --     1 C    0.963
    20   1 H    0.989 --     3 C    0.942
    21   1 H    0.983 --     3 C    0.933
    22   1 H    0.988 --     6 C    0.940
    23   1 H    0.996 --     6 C    0.960
    24   1 H    0.889 --     7 O    0.845
    25   1 H    0.994 --    11 C    0.962
    26   1 H    0.993 --    12 C    0.966
    27   1 H    0.993 --    13 C    0.966
    28   1 H    0.995 --    14 C    0.963
    29   1 H    0.993 --    15 C    0.964
    30   1 H    0.991 --    15 C    0.960
    31   1 H    0.987 --    16 C    0.936
    32   1 H    0.990 --    16 C    0.940
 ---------------------------------------------------------------------------

molecular dipole:
                 x           y           z       tot (Debye)
 q only:       -4.672       3.351      -4.845
   full:       -4.733       3.653      -5.440      20.546

           -------------------------------------------------
          | TOTAL ENERGY              -49.485799206830 Eh   |
          | GRADIENT NORM               0.000953951269 Eh/α |
          | HOMO-LUMO GAP               3.256704881814 eV   |
           -------------------------------------------------

 * finished run on 2024/12/20 at 02:09:00.760
