   * xtb version 6.7.1 (edcfbbe) compiled by 'conda@3ef47c1a292c' on 2024-11-25

   ID    Z sym.   atoms
    1    6 C      1-5, 7-21
    2    7 N      6
    3    1 H      22-65

          program call               : xtb C0180.xyz --opt --namespace C0180 --charge +1
          :  Hamiltonian                  GFN2-xTB          :
 * total energy  :   -67.7868607 Eh     change       -0.1952145E-09 Eh
 * total energy  :   -67.7967398 Eh     change       -0.9879066E-02 Eh
 * total energy  :   -67.7995211 Eh     change       -0.2781279E-02 Eh
 * total energy  :   -67.7999627 Eh     change       -0.4416688E-03 Eh
 * total energy  :   -67.8003570 Eh     change       -0.3943121E-03 Eh
 * total energy  :   -67.8006512 Eh     change       -0.2941028E-03 Eh
 * total energy  :   -67.8010312 Eh     change       -0.3800182E-03 Eh
 * total energy  :   -67.8015115 Eh     change       -0.4803673E-03 Eh
 * total energy  :   -67.8020461 Eh     change       -0.5345500E-03 Eh
 * total energy  :   -67.8026002 Eh     change       -0.5540708E-03 Eh
 * total energy  :   -67.8162471 Eh     change       -0.3822205E-04 Eh
 * total energy  :   -67.8162774 Eh     change       -0.3032526E-04 Eh
 * total energy  :   -67.8162911 Eh     change       -0.1367452E-04 Eh
 * total energy  :   -67.8163090 Eh     change       -0.1789196E-04 Eh
 * total energy  :   -67.8163274 Eh     change       -0.1844665E-04 Eh
 * total energy  :   -67.8163416 Eh     change       -0.1411786E-04 Eh
 * total energy  :   -67.8163501 Eh     change       -0.8594247E-05 Eh
 * total energy  :   -67.8163576 Eh     change       -0.7498928E-05 Eh
 * total energy  :   -67.8163626 Eh     change       -0.4987364E-05 Eh
   *** GEOMETRY OPTIMIZATION CONVERGED AFTER 60 ITERATIONS ***

 final structure:
================
65
 xtb: 6.7.1 (edcfbbe)
C            1.78177962483912        1.29956831547319        1.88111025633005
C            1.71193288384529       -0.19865139203546        1.60763300930815
C            1.29762978109597       -1.01112636202897        2.83646298905652
C           -0.15845025301340       -0.81164372676258        3.26845989037212
C           -1.28214261267500       -1.26917778391427        2.32934270713331
N           -1.57436538242078       -2.73568935994884        2.19857312590148
C           -1.37651830396796       -3.44888962099023        3.50654800460935
C           -2.17192421521050       -2.91430852912700        4.70887487694046
C           -3.13908294638301       -3.95186440402064        5.29301802400018
C           -2.44723957788856       -5.14311311532707        5.95987008804507
C           -1.66215691348744       -4.76202004649790        7.20910910604671
C           -3.00649465756237       -2.94753194460222        1.80689320088247
C           -3.63463984571327       -1.95651158488211        0.82311183132611
C           -4.90214837379526       -2.55232183105978        0.19748191751097
C           -5.99591331197126       -2.93332449619290        1.19738082465602
C           -6.48810273138569       -1.75873317700608        2.03449836052946
C           -0.63508272061219       -3.40699366832567        1.22356725096171
C           -0.96247133675438       -3.42702254289652       -0.27536808078772
C           -0.47397302033572       -2.23077682591319       -1.09984569259646
C            1.03094358720568       -2.26613970453712       -1.38431063453029
C            1.40746918054299       -3.29429268339393       -2.44423509306242
H            0.80319331667049        1.71184863260547        2.11426307488575
H            2.16241286405943        1.81853191035060        1.00597725950153
H            2.44996496156001        1.50426392343518        2.71385788562924
H            1.02801244795617       -0.37930651249269        0.77735794070295
H            2.69993906742182       -0.53937761696223        1.29330069711210
H            1.52078279681518       -2.06829872650824        2.67591746305515
H            1.92199932283281       -0.69215954572931        3.67360144122749
H           -0.29229148483940       -1.24173647017216        4.25853656546932
H           -0.31304900745407        0.26319284991450        3.38218615840114
H           -2.19561778757635       -0.80000717033957        2.69504999545401
H           -1.09225758954683       -0.88577684755831        1.32899069028398
H           -1.66958624445085       -4.48781241486985        3.33974657973642
H           -0.30810641808870       -3.43696193789188        3.72207587027687
H           -1.48373000408907       -2.61916209206856        5.50053532717624
H           -2.73906574568863       -2.02256817803866        4.44344104418603
H           -3.75838516076067       -3.45324474329639        6.04040963717240
H           -3.80697231500367       -4.32263729328738        4.51128160053542
H           -3.21871180202281       -5.86190300931807        6.23972615023967
H           -1.78118847379094       -5.64273847135624        5.25276822513364
H           -2.29712524268129       -4.22595031193479        7.91000637279050
H           -1.29384377451404       -5.65721342094550        7.70195660978240
H           -0.80382752141820       -4.13792019150755        6.97132597608227
H           -3.07614040405046       -3.95967628491382        1.40262123020895
H           -3.60035068319154       -2.91846503583631        2.71894187096983
H           -3.90536961990376       -1.03166365438955        1.33177959105807
H           -2.95140514769666       -1.69834910817364        0.01698448228930
H           -5.30797880395856       -1.81431032831416       -0.49586746276211
H           -4.63647042090847       -3.43662224724435       -0.38683011224858
H           -6.83754346718749       -3.33002056407963        0.62798328164926
H           -5.65005079445843       -3.73528812223328        1.85315701597812
H           -6.79233112866826       -0.93600325980316        1.39248453812993
H           -7.34683638313634       -2.06003931126399        2.62805001115448
H           -5.72267303317155       -1.39794216056269        2.71882207853796
H            0.34458520293605       -2.95311367060389        1.35735263983693
H           -0.56871575315860       -4.44943984574796        1.54031507213610
H           -0.45798362711117       -4.31051963698771       -0.67110984313657
H           -2.02339336025756       -3.58921473113038       -0.44661034134682
H           -0.99914992860462       -2.24199988243737       -2.05661243597381
H           -0.72854195935278       -1.28743700537700       -0.61257369055640
H            1.33974281758353       -1.28056868212400       -1.73566621189276
H            1.58591540212385       -2.47533160272095       -0.46770701725916
H            0.87799529060568       -3.09492789776688       -3.37259241912930
H            2.47424050069052       -3.24712422475272       -2.64503424211849
H            1.17222024115245       -4.30679062152072       -2.12488656296898

          :  Hamiltonian                  GFN2-xTB          :
         :: total energy             -67.816362631920 Eh    ::
         :: gradient norm              0.000820078960 Eh/a0 ::
         :: HOMO-LUMO gap              8.013846616410 eV    ::
         :: SCC energy               -68.805049012943 Eh    ::
         :: -> dispersion             -0.056500980509 Eh    ::
         :: repulsion energy           0.988686381023 Eh    ::

    * Orbital Energies and Occupations

         #    Occupation            Energy/Eh            Energy/eV
      -------------------------------------------------------------
         1        2.0000           -0.8373693             -22.7860
       ...           ...                  ...                  ...
        52        2.0000           -0.5628824             -15.3168
        53        2.0000           -0.5435405             -14.7905
        54        2.0000           -0.5416234             -14.7383
        55        2.0000           -0.5408334             -14.7168
        56        2.0000           -0.5403655             -14.7041
        57        2.0000           -0.5356574             -14.5760
        58        2.0000           -0.5347067             -14.5501
        59        2.0000           -0.5335387             -14.5183
        60        2.0000           -0.5321784             -14.4813
        61        2.0000           -0.5299031             -14.4194
        62        2.0000           -0.5292400             -14.4014
        63        2.0000           -0.5279399             -14.3660
        64        2.0000           -0.5273875             -14.3509 (HOMO)
        65                         -0.2328841              -6.3371 (LUMO)
        66                         -0.1742159              -4.7407
        67                         -0.1604753              -4.3668
        68                         -0.1467436              -3.9931
        69                         -0.0714393              -1.9440
        70                         -0.0659303              -1.7941
        71                         -0.0564904              -1.5372
        72                         -0.0523827              -1.4254
        73                         -0.0472521              -1.2858
        74                         -0.0385538              -1.0491
        75                         -0.0331246              -0.9014
       ...                                ...                  ...
       128                          0.2277717               6.1980
      -------------------------------------------------------------
                  HL-Gap            0.2945034 Eh            8.0138 eV

     #   Z          covCN         q      C6AA      α(0)
     1   6 C        3.752    -0.111    22.681     6.792
     2   6 C        3.800    -0.060    21.652     6.625
     3   6 C        3.800    -0.064    21.737     6.638
     4   6 C        3.799    -0.077    21.970     6.674
     5   6 C        3.744    -0.032    21.214     6.570
     6   7 N        3.614     0.096    19.572     6.571
     7   6 C        3.764    -0.034    21.222     6.566
     8   6 C        3.799    -0.071    21.861     6.657
     9   6 C        3.801    -0.066    21.774     6.644
    10   6 C        3.800    -0.060    21.647     6.624
    11   6 C        3.752    -0.110    22.666     6.789
    12   6 C        3.757    -0.036    21.273     6.576
    13   6 C        3.799    -0.072    21.880     6.660
    14   6 C        3.802    -0.065    21.741     6.638
    15   6 C        3.799    -0.060    21.664     6.627
    16   6 C        3.751    -0.108    22.628     6.784
    17   6 C        3.752    -0.038    21.303     6.582
    18   6 C        3.799    -0.076    21.944     6.670
    19   6 C        3.800    -0.063    21.705     6.633
    20   6 C        3.800    -0.059    21.640     6.623
    21   6 C        3.752    -0.110    22.674     6.791
    22   1 H        0.925     0.034     2.527     2.486
    23   1 H        0.925     0.048     2.345     2.395
    24   1 H        0.925     0.046     2.376     2.410
    25   1 H        0.924     0.031     2.574     2.509
    26   1 H        0.924     0.044     2.398     2.422
    27   1 H        0.924     0.024     2.668     2.554
    28   1 H        0.924     0.056     2.248     2.345
    29   1 H        0.925     0.055     2.253     2.347
    30   1 H        0.924     0.073     2.052     2.240
    31   1 H        0.925     0.074     2.043     2.235
    32   1 H        0.925     0.087     1.910     2.161
    33   1 H        0.924     0.079     1.986     2.204
    34   1 H        0.925     0.079     1.988     2.205
    35   1 H        0.925     0.066     2.129     2.282
    36   1 H        0.925     0.051     2.312     2.378
    37   1 H        0.924     0.056     2.250     2.346
    38   1 H        0.924     0.032     2.561     2.503
    39   1 H        0.924     0.048     2.340     2.392
    40   1 H        0.924     0.028     2.621     2.532
    41   1 H        0.925     0.046     2.374     2.410
    42   1 H        0.925     0.049     2.328     2.386
    43   1 H        0.925     0.032     2.557     2.501
    44   1 H        0.924     0.077     2.007     2.215
    45   1 H        0.925     0.089     1.888     2.149
    46   1 H        0.925     0.054     2.271     2.356
    47   1 H        0.925     0.055     2.254     2.348
    48   1 H        0.924     0.056     2.241     2.341
    49   1 H        0.924     0.036     2.503     2.474
    50   1 H        0.924     0.050     2.316     2.380
    51   1 H        0.924     0.027     2.627     2.535
    52   1 H        0.925     0.046     2.366     2.405
    53   1 H        0.925     0.048     2.341     2.393
    54   1 H        0.925     0.025     2.657     2.549
    55   1 H        0.925     0.091     1.865     2.135
    56   1 H        0.924     0.068     2.108     2.271
    57   1 H        0.924     0.072     2.066     2.248
    58   1 H        0.925     0.059     2.207     2.323
    59   1 H        0.924     0.053     2.280     2.361
    60   1 H        0.924     0.024     2.667     2.554
    61   1 H        0.924     0.044     2.392     2.419
    62   1 H        0.924     0.031     2.575     2.509
    63   1 H        0.925     0.045     2.381     2.413
    64   1 H        0.925     0.049     2.338     2.391
    65   1 H        0.925     0.035     2.519     2.482

Wiberg/Mayer (AO) data.
largest (>0.10) Wiberg bond orders for each atom

     #   Z sym  total        # sym  WBO       # sym  WBO       # sym  WBO
 ---------------------------------------------------------------------------
     1   6 C    3.994 --     2 C    1.020    24 H    0.986    23 H    0.986
                            22 H    0.985
     2   6 C    3.996 --     1 C    1.020     3 C    1.007    26 H    0.977
                            25 H    0.971
     3   6 C    3.993 --     2 C    1.007     4 C    1.006    28 H    0.972
                            27 H    0.967
     4   6 C    3.985 --     3 C    1.006     5 C    1.005    29 H    0.967
                            30 H    0.961
     5   6 C    3.934 --     4 C    1.005    31 H    0.965    32 H    0.955
                             6 N    0.930
     6   7 N    3.794 --     7 C    0.932    12 C    0.930     5 C    0.930
                            17 C    0.925
     7   6 C    3.934 --     8 C    1.001    34 H    0.969    33 H    0.963
                             6 N    0.932
     8   6 C    3.987 --     9 C    1.004     7 C    1.001    35 H    0.966
                            36 H    0.966
     9   6 C    3.993 --    10 C    1.008     8 C    1.004    38 H    0.974
                            37 H    0.974
    10   6 C    3.996 --    11 C    1.021     9 C    1.008    39 H    0.976
                            40 H    0.975
    11   6 C    3.995 --    10 C    1.021    41 H    0.987    42 H    0.985
                            43 H    0.985
    12   6 C    3.932 --    13 C    1.004    44 H    0.964    45 H    0.959
                             6 N    0.930
    13   6 C    3.988 --    12 C    1.004    14 C    0.999    46 H    0.972
                            47 H    0.968
    14   6 C    3.992 --    15 C    1.008    13 C    0.999    49 H    0.976
                            48 H    0.974
    15   6 C    3.996 --    16 C    1.020    14 C    1.008    51 H    0.977
                            50 H    0.976
    16   6 C    3.995 --    15 C    1.020    52 H    0.986    54 H    0.986
                            53 H    0.986
    17   6 C    3.932 --    18 C    1.006    56 H    0.970    55 H    0.955
                             6 N    0.925
    18   6 C    3.984 --    19 C    1.006    17 C    1.006    58 H    0.966
                            57 H    0.961
    19   6 C    3.994 --    20 C    1.006    18 C    1.006    59 H    0.974
                            60 H    0.965
    20   6 C    3.996 --    21 C    1.021    19 C    1.006    61 H    0.977
                            62 H    0.974
    21   6 C    3.994 --    20 C    1.021    63 H    0.986    64 H    0.985
                            65 H    0.984
    22   1 H    0.999 --     1 C    0.985
    23   1 H    0.998 --     1 C    0.986
    24   1 H    0.998 --     1 C    0.986
    25   1 H    0.999 --     2 C    0.971
    26   1 H    0.998 --     2 C    0.977
    27   1 H    0.999 --     3 C    0.967
    28   1 H    0.996 --     3 C    0.972
    29   1 H    0.997 --     4 C    0.967
    30   1 H    0.994 --     4 C    0.961
    31   1 H    0.995 --     5 C    0.965
    32   1 H    0.992 --     5 C    0.955
    33   1 H    0.994 --     7 C    0.963
    34   1 H    0.993 --     7 C    0.969
    35   1 H    0.995 --     8 C    0.966
    36   1 H    0.997 --     8 C    0.966
    37   1 H    0.997 --     9 C    0.974
    38   1 H    0.999 --     9 C    0.974
    39   1 H    0.998 --    10 C    0.976
    40   1 H    0.999 --    10 C    0.975
    41   1 H    0.998 --    11 C    0.987
    42   1 H    0.998 --    11 C    0.985
    43   1 H    0.999 --    11 C    0.985
    44   1 H    0.994 --    12 C    0.964
    45   1 H    0.992 --    12 C    0.959
    46   1 H    0.997 --    13 C    0.972
    47   1 H    0.997 --    13 C    0.968
    48   1 H    0.996 --    14 C    0.974
    49   1 H    0.999 --    14 C    0.976
    50   1 H    0.997 --    15 C    0.976
    51   1 H    0.999 --    15 C    0.977
    52   1 H    0.998 --    16 C    0.986
    53   1 H    0.998 --    16 C    0.986
    54   1 H    0.999 --    16 C    0.986
    55   1 H    0.991 --    17 C    0.955
    56   1 H    0.995 --    17 C    0.970
    57   1 H    0.995 --    18 C    0.961
    58   1 H    0.996 --    18 C    0.966
    59   1 H    0.997 --    19 C    0.974
    60   1 H    0.999 --    19 C    0.965
    61   1 H    0.998 --    20 C    0.977
    62   1 H    0.999 --    20 C    0.974
    63   1 H    0.998 --    21 C    0.986
    64   1 H    0.998 --    21 C    0.985
    65   1 H    0.999 --    21 C    0.984
 ---------------------------------------------------------------------------

molecular dipole:
                 x           y           z       tot (Debye)
 q only:       -3.018      -4.903       4.068
   full:       -3.003      -4.968       4.092      18.053

           -------------------------------------------------
          | TOTAL ENERGY              -67.816362631920 Eh   |
          | GRADIENT NORM               0.000820078960 Eh/α |
          | HOMO-LUMO GAP               8.013846616410 eV   |
           -------------------------------------------------

 * finished run on 2024/12/20 at 02:09:07.655
