   * xtb version 6.7.1 (edcfbbe) compiled by 'conda@3ef47c1a292c' on 2024-11-25

   ID    Z sym.   atoms
    1    6 C      1-4, 6, 7
    2    7 N      5, 8-10
    3    1 H      11-23

          program call               : xtb C0188.xyz --opt --namespace C0188 --charge +1
          :  Hamiltonian                  GFN2-xTB          :
 * total energy  :   -30.7132637 Eh     change       -0.6439294E-10 Eh
 * total energy  :   -30.7234609 Eh     change       -0.1019721E-01 Eh
 * total energy  :   -30.7257683 Eh     change       -0.2307373E-02 Eh
 * total energy  :   -30.7261539 Eh     change       -0.3856557E-03 Eh
 * total energy  :   -30.7264605 Eh     change       -0.3066124E-03 Eh
 * total energy  :   -30.7265161 Eh     change       -0.5557115E-04 Eh
 * total energy  :   -30.7265621 Eh     change       -0.4593947E-04 Eh
 * total energy  :   -30.7266200 Eh     change       -0.5792757E-04 Eh
 * total energy  :   -30.7266670 Eh     change       -0.4704161E-04 Eh
 * total energy  :   -30.7267613 Eh     change       -0.9430498E-04 Eh
 * total energy  :   -30.7287323 Eh     change       -0.2875915E-04 Eh
 * total energy  :   -30.7287600 Eh     change       -0.2771836E-04 Eh
 * total energy  :   -30.7287896 Eh     change       -0.2954523E-04 Eh
 * total energy  :   -30.7288071 Eh     change       -0.1748965E-04 Eh
 * total energy  :   -30.7288244 Eh     change       -0.1735921E-04 Eh
 * total energy  :   -30.7288404 Eh     change       -0.1592956E-04 Eh
 * total energy  :   -30.7288519 Eh     change       -0.1158332E-04 Eh
 * total energy  :   -30.7288606 Eh     change       -0.8696619E-05 Eh
 * total energy  :   -30.7288641 Eh     change       -0.3498650E-05 Eh
   *** GEOMETRY OPTIMIZATION CONVERGED AFTER 39 ITERATIONS ***

 final structure:
================
23
 xtb: 6.7.1 (edcfbbe)
C            0.83298250417056       -0.80737940691941        0.38285434416729
C            0.32552999822506       -0.02099173026846       -0.82036882361586
C            0.78158121463832       -0.60112278815698       -2.16026894700277
C            0.33622227956001       -2.05112424795172       -2.38772713890644
N           -1.09350138336048       -2.17980310822080       -2.27726414586581
C           -2.03959685279420       -1.71879505672767       -3.11037613529400
C           -3.24558386495620       -2.02982013549981       -2.52663094577045
N           -2.92078796901053       -2.66015049185168       -1.37421533596786
N           -1.63138346182408       -2.75136726994338       -1.23201765956166
N           -3.75381973997733       -3.07268023937738       -0.40661094294857
H            0.37097841771937       -1.78951003925718        0.44659120624764
H            0.60036564384449       -0.27001594358861        1.29754174552604
H            1.91133755794374       -0.92929142973839        0.32979864704348
H           -0.76567302021068        0.04000185078183       -0.78696014815851
H            0.70256319030842        1.00030546529064       -0.75996640008447
H            0.40884309227246        0.02691806990573       -2.97147285903116
H            1.87063074069017       -0.59019090551756       -2.20525075398111
H            0.64449557202681       -2.38422396563439       -3.38114468061043
H            0.77219823738502       -2.70637147178681       -1.63343895378751
H           -1.82375288360962       -1.21991339219975       -4.03237879804218
H           -4.25180802693882       -1.84755621806347       -2.84110924727471
H           -3.30056594783872       -3.64185100752424        0.29863354745778
H           -4.66052529826647       -3.39796653774941       -0.71536757453680

          :  Hamiltonian                  GFN2-xTB          :
         :: total energy             -30.728864142782 Eh    ::
         :: gradient norm              0.000683854871 Eh/a0 ::
         :: HOMO-LUMO gap              3.057362497213 eV    ::
         :: SCC energy               -31.140339235847 Eh    ::
         :: -> dispersion             -0.016424235774 Eh    ::
         :: repulsion energy           0.411475093065 Eh    ::

    * Orbital Energies and Occupations

         #    Occupation            Energy/Eh            Energy/eV
      -------------------------------------------------------------
         1        2.0000           -0.9360850             -25.4722
       ...           ...                  ...                  ...
        16        2.0000           -0.6793986             -18.4874
        17        2.0000           -0.6661592             -18.1271
        18        2.0000           -0.6557046             -17.8426
        19        2.0000           -0.6390570             -17.3896
        20        2.0000           -0.6218262             -16.9208
        21        2.0000           -0.6205998             -16.8874
        22        2.0000           -0.6152851             -16.7428
        23        2.0000           -0.6034887             -16.4218
        24        2.0000           -0.5927710             -16.1301
        25        2.0000           -0.5782142             -15.7340
        26        2.0000           -0.5633098             -15.3284
        27        2.0000           -0.5541233             -15.0785
        28        2.0000           -0.5476645             -14.9027 (HOMO)
        29                         -0.4353085             -11.8453 (LUMO)
        30                         -0.3900317             -10.6133
        31                         -0.2241385              -6.0991
        32                         -0.1572316              -4.2785
        33                         -0.1098303              -2.9886
        34                         -0.0854109              -2.3241
        35                         -0.0555821              -1.5125
        36                         -0.0386327              -1.0512
        37                         -0.0246482              -0.6707
        38                         -0.0189802              -0.5165
        39                         -0.0040109              -0.1091
       ...                                ...                  ...
        53                          0.4505034              12.2588
      -------------------------------------------------------------
                  HL-Gap            0.1123560 Eh            3.0574 eV

     #   Z          covCN         q      C6AA      α(0)
     1   6 C        3.752    -0.118    22.821     6.813
     2   6 C        3.800    -0.060    21.651     6.625
     3   6 C        3.802    -0.072    21.868     6.658
     4   6 C        3.743    -0.037    21.304     6.585
     5   7 N        3.029     0.158    18.578     6.402
     6   6 C        3.020    -0.002    28.051     8.688
     7   6 C        3.005    -0.032    28.791     8.802
     8   7 N        3.107     0.255    17.131     6.147
     9   7 N        2.153    -0.141    24.573     7.355
    10   7 N        2.716    -0.215    25.684     7.527
    11   1 H        0.925     0.038     2.474     2.460
    12   1 H        0.925     0.055     2.255     2.348
    13   1 H        0.925     0.052     2.291     2.367
    14   1 H        0.924     0.025     2.662     2.551
    15   1 H        0.924     0.061     2.192     2.315
    16   1 H        0.924     0.055     2.261     2.352
    17   1 H        0.925     0.080     1.974     2.197
    18   1 H        0.924     0.092     1.856     2.130
    19   1 H        0.925     0.111     1.686     2.030
    20   1 H        0.927     0.118     1.626     1.994
    21   1 H        0.927     0.116     1.644     2.005
    22   1 H        0.860     0.234     0.948     1.525
    23   1 H        0.860     0.225     0.989     1.558

Wiberg/Mayer (AO) data.
largest (>0.10) Wiberg bond orders for each atom

     #   Z sym  total        # sym  WBO       # sym  WBO       # sym  WBO
 ---------------------------------------------------------------------------
     1   6 C    3.993 --     2 C    1.020    13 H    0.986    11 H    0.985
                            12 H    0.985
     2   6 C    3.994 --     1 C    1.020     3 C    1.007    14 H    0.978
                            15 H    0.973
     3   6 C    3.979 --     2 C    1.007     4 C    0.977    16 H    0.975
                            17 H    0.965
     4   6 C    3.926 --     3 C    0.977     5 N    0.965    19 H    0.960
                            18 H    0.956
     5   7 N    3.747 --     6 C    1.318     9 N    1.277     4 C    0.965
     6   6 C    3.960 --     7 C    1.499     5 N    1.318    20 H    0.958
                             9 N    0.112
     7   6 C    3.942 --     6 C    1.499     8 N    1.251    21 H    0.959
     8   7 N    3.787 --     9 N    1.293     7 C    1.251    10 N    1.108
     9   7 N    2.970 --     8 N    1.293     5 N    1.277     6 C    0.112
                            10 N    0.109
    10   7 N    3.211 --     8 N    1.108    23 H    0.928    22 H    0.926
                             9 N    0.109
    11   1 H    0.999 --     1 C    0.985
    12   1 H    0.997 --     1 C    0.985
    13   1 H    0.997 --     1 C    0.986
    14   1 H    0.999 --     2 C    0.978
    15   1 H    0.996 --     2 C    0.973
    16   1 H    0.997 --     3 C    0.975
    17   1 H    0.993 --     3 C    0.965
    18   1 H    0.990 --     4 C    0.956
    19   1 H    0.988 --     4 C    0.960
    20   1 H    0.986 --     6 C    0.958
    21   1 H    0.986 --     7 C    0.959
    22   1 H    0.945 --    10 N    0.926
    23   1 H    0.949 --    10 N    0.928
 ---------------------------------------------------------------------------

molecular dipole:
                 x           y           z       tot (Debye)
 q only:       -3.774      -4.352      -3.416
   full:       -4.064      -4.503      -3.753      18.130

           -------------------------------------------------
          | TOTAL ENERGY              -30.728864142782 Eh   |
          | GRADIENT NORM               0.000683854871 Eh/α |
          | HOMO-LUMO GAP               3.057362497213 eV   |
           -------------------------------------------------

 * finished run on 2024/12/20 at 02:09:28.479
