   * xtb version 6.7.1 (edcfbbe) compiled by 'conda@3ef47c1a292c' on 2024-11-25

   ID    Z sym.   atoms
    1    6 C      1-11, 13, 15-26
    2    7 N      12
    3    8 O      14
    4    1 H      27-76

          program call               : xtb C0183.xyz --opt --namespace C0183 --charge +1
          :  Hamiltonian                  GFN2-xTB          :
 * total energy  :   -83.5198568 Eh     change       -0.3358167E-09 Eh
 * total energy  :   -83.5275177 Eh     change       -0.7660968E-02 Eh
 * total energy  :   -83.5294849 Eh     change       -0.1967117E-02 Eh
 * total energy  :   -83.5298127 Eh     change       -0.3278183E-03 Eh
 * total energy  :   -83.5301517 Eh     change       -0.3390252E-03 Eh
 * total energy  :   -83.5303280 Eh     change       -0.1762606E-03 Eh
 * total energy  :   -83.5304737 Eh     change       -0.1457187E-03 Eh
 * total energy  :   -83.5305658 Eh     change       -0.9209368E-04 Eh
 * total energy  :   -83.5306419 Eh     change       -0.7615653E-04 Eh
 * total energy  :   -83.5307358 Eh     change       -0.9387123E-04 Eh
 * total energy  :   -83.5336917 Eh     change       -0.8973637E-05 Eh
 * total energy  :   -83.5337016 Eh     change       -0.9899520E-05 Eh
 * total energy  :   -83.5337135 Eh     change       -0.1184996E-04 Eh
 * total energy  :   -83.5337285 Eh     change       -0.1505400E-04 Eh
 * total energy  :   -83.5337473 Eh     change       -0.1874667E-04 Eh
 * total energy  :   -83.5337679 Eh     change       -0.2063003E-04 Eh
 * total energy  :   -83.5337868 Eh     change       -0.1887089E-04 Eh
 * total energy  :   -83.5338013 Eh     change       -0.1452186E-04 Eh
 * total energy  :   -83.5338042 Eh     change       -0.2859393E-05 Eh
   *** GEOMETRY OPTIMIZATION CONVERGED AFTER 68 ITERATIONS ***

 final structure:
================
76
 xtb: 6.7.1 (edcfbbe)
C            3.94150835479303      -14.60073386003855       -6.43326140706091
C            2.82957629345340      -13.99318284540976       -7.27999649550555
C            1.46760385181166      -14.00280892929956       -6.58426817972014
C            1.39277137015935      -13.17366186742243       -5.30048202409173
C            1.69026907880386      -11.68265352255704       -5.47303792141217
C            0.77581237130963      -10.94820090532768       -6.45615408403002
C           -0.71915097949112      -11.03945894487178       -6.14180251215218
C           -1.11501574941364      -10.52789259633420       -4.75524371972356
C           -0.79512231219417       -9.05478555791261       -4.49105598195660
C           -1.43169000972927       -8.05510293520538       -5.46741137249564
C           -2.93745081603935       -8.17848732971182       -5.71178239807474
N           -3.85782526473275       -7.47613202850679       -4.76068753633349
C           -3.80118329030872       -5.97732502285205       -5.02730345958268
O           -4.18268037875937       -5.71545814099251       -6.31170270014208
C           -5.36884059786519       -4.90327728392616       -6.51287432317666
C           -5.09858921878989       -3.43680662146847       -6.17682262037983
C           -4.23409013262988       -2.69903511379058       -7.20217026752958
C           -2.77371319631005       -3.14375400822397       -7.16672968119125
C           -4.86342673653266       -2.85989708256813       -8.58520785398676
C           -5.04811387762736       -4.32419142937988       -8.97245104605107
C           -5.82198888612652       -5.17920314396780       -7.95827989932830
C           -7.36209487185145       -5.18085514790625       -8.11526850077100
C           -8.01924852553534       -3.80868758527655       -8.22213291340081
C           -7.76332166345926       -6.02180135823192       -9.32869564831772
C           -5.22830466629239       -7.95476596581650       -5.02152168682248
C           -3.51957628042893       -7.72845490299269       -3.35384242546772
H            4.14059117924896      -13.99745756804258       -5.55115462820722
H            4.86048979510422      -14.66544161598392       -7.01080102705795
H            3.66944384072320      -15.60353946802995       -6.11133992035281
H            3.09964546739141      -12.97307504590360       -7.55901901982054
H            2.73876759851310      -14.56802598256888       -8.20464683748811
H            0.71142969900162      -13.65098347347575       -7.28969689578100
H            1.21625089054814      -15.03577445793029       -6.33116864998189
H            0.39627545791539      -13.29937443027790       -4.87014531483358
H            2.10214885967118      -13.57695305504416       -4.57613491501440
H            1.63072135079953      -11.20542453736778       -4.49171509357279
H            2.71808351330812      -11.56247920881767       -5.81855158538015
H            1.08066685527858       -9.89928044056037       -6.49016530996518
H            0.93128246490197      -11.35472717008724       -7.45648021327500
H           -1.26789287617341      -10.49034492299303       -6.91155845369121
H           -1.03025843388405      -12.08247131819602       -6.21368358300447
H           -2.18225661172307      -10.71799616292107       -4.60447741195915
H           -0.59063019884311      -11.11640877377419       -4.00226437558767
H           -1.06343728803058       -8.82683348161255       -3.45880073234957
H            0.28420337556404       -8.91959465214155       -4.56516763551337
H           -1.16799944570432       -7.04202199713048       -5.16061983255332
H           -0.96312726573828       -8.20961590293628       -6.44050676593726
H           -3.17005653158136       -7.75788405951966       -6.69260122896078
H           -3.20836761491550       -9.23428701985512       -5.71392963966920
H           -4.44266708429231       -5.49013704771200       -4.28234264690555
H           -2.76010625555488       -5.67219885970673       -4.86484044865782
H           -6.14395340919517       -5.27197657664093       -5.82237324984588
H           -4.62947270902402       -3.37539607725182       -5.19031839605816
H           -6.06430796416221       -2.93539839519718       -6.10589762088459
H           -4.25793005564137       -1.63547326907249       -6.93983683452753
H           -2.35006568130792       -2.96845474420935       -6.17924361270897
H           -2.67344714112182       -4.19766846540737       -7.40636996481201
H           -2.19638081833955       -2.56955599566216       -7.88665523236769
H           -5.82063384978358       -2.34135219313604       -8.59304348489222
H           -4.22656234704460       -2.38211880530788       -9.33136402021940
H           -4.06123842250798       -4.77094567051213       -9.10244807356102
H           -5.55202630456099       -4.37770479466959       -9.93704834835740
H           -5.52286655474417       -6.21919315949211       -8.14722154313423
H           -7.77152886045608       -5.67769473778398       -7.22509958590532
H           -7.73315554348959       -3.31309470710527       -9.14475051122424
H           -9.10014526809984       -3.93012535510853       -8.23296428070734
H           -7.76556236771246       -3.17162144833709       -7.38023636286403
H           -7.37546574341282       -7.03553150316288       -9.25316753509312
H           -8.84620647168965       -6.07767781852275       -9.39951352574609
H           -7.39047429522243       -5.58048161967386      -10.24873015425906
H           -5.29581118559304       -9.02242310235354       -4.82233404277204
H           -5.93521946206959       -7.43386567472897       -4.37746767198322
H           -5.49031668566265       -7.76813951499595       -6.06164715289926
H           -3.46197344323689       -8.80060565128909       -3.17644188629226
H           -2.56509456964023       -7.27148905205718       -3.10531003504515
H           -4.28538545424291       -7.30637688563595       -2.70419805010424

          :  Hamiltonian                  GFN2-xTB          :
         :: total energy             -83.533804172951 Eh    ::
         :: gradient norm              0.000212187122 Eh/a0 ::
         :: HOMO-LUMO gap              6.609748550054 eV    ::
         :: SCC energy               -84.688291269271 Eh    ::
         :: -> dispersion             -0.068866916418 Eh    ::
         :: repulsion energy           1.154487096320 Eh    ::

    * Orbital Energies and Occupations

         #    Occupation            Energy/Eh            Energy/eV
      -------------------------------------------------------------
         1        2.0000           -0.8637370             -23.5035
       ...           ...                  ...                  ...
        66        2.0000           -0.5240474             -14.2601
        67        2.0000           -0.5211967             -14.1825
        68        2.0000           -0.5185650             -14.1109
        69        2.0000           -0.5160201             -14.0416
        70        2.0000           -0.5054490             -13.7540
        71        2.0000           -0.5051918             -13.7470
        72        2.0000           -0.5025820             -13.6760
        73        2.0000           -0.5003797             -13.6160
        74        2.0000           -0.4987390             -13.5714
        75        2.0000           -0.4961194             -13.5001
        76        2.0000           -0.4807685             -13.0824
        77        2.0000           -0.4768122             -12.9747
        78        2.0000           -0.4738952             -12.8953 (HOMO)
        79                         -0.2309914              -6.2856 (LUMO)
        80                         -0.1800840              -4.9003
        81                         -0.1445040              -3.9322
        82                         -0.1379119              -3.7528
        83                         -0.1225912              -3.3359
        84                         -0.0683028              -1.8586
        85                         -0.0622664              -1.6944
        86                         -0.0537105              -1.4615
        87                         -0.0348167              -0.9474
        88                         -0.0280228              -0.7625
        89                         -0.0256762              -0.6987
       ...                                ...                  ...
       154                          0.2498566               6.7989
      -------------------------------------------------------------
                  HL-Gap            0.2429038 Eh            6.6097 eV

     #   Z          covCN         q      C6AA      α(0)
     1   6 C        3.751    -0.103    22.533     6.770
     2   6 C        3.799    -0.053    21.526     6.606
     3   6 C        3.800    -0.058    21.620     6.620
     4   6 C        3.800    -0.058    21.625     6.621
     5   6 C        3.800    -0.059    21.633     6.622
     6   6 C        3.800    -0.060    21.649     6.625
     7   6 C        3.800    -0.061    21.681     6.630
     8   6 C        3.800    -0.062    21.687     6.631
     9   6 C        3.799    -0.071    21.862     6.657
    10   6 C        3.799    -0.072    21.877     6.660
    11   6 C        3.757    -0.041    21.351     6.588
    12   7 N        3.617     0.105    19.434     6.548
    13   6 C        3.642     0.122    18.916     6.253
    14   8 O        1.699    -0.299    18.971     5.881
    15   6 C        3.735     0.108    18.892     6.203
    16   6 C        3.805    -0.067    21.787     6.645
    17   6 C        3.851    -0.013    20.766     6.481
    18   6 C        3.753    -0.110    22.665     6.789
    19   6 C        3.807    -0.069    21.813     6.649
    20   6 C        3.803    -0.061    21.678     6.629
    21   6 C        3.850    -0.028    21.041     6.524
    22   6 C        3.848    -0.014    20.785     6.485
    23   6 C        3.755    -0.111    22.676     6.790
    24   6 C        3.757    -0.112    22.696     6.792
    25   6 C        3.723    -0.085    22.230     6.733
    26   6 C        3.714    -0.092    22.384     6.760
    27   1 H        0.925     0.034     2.532     2.488
    28   1 H        0.925     0.035     2.512     2.478
    29   1 H        0.925     0.036     2.502     2.474
    30   1 H        0.924     0.030     2.592     2.518
    31   1 H        0.924     0.030     2.583     2.513
    32   1 H        0.924     0.026     2.645     2.543
    33   1 H        0.924     0.032     2.552     2.498
    34   1 H        0.924     0.024     2.669     2.555
    35   1 H        0.924     0.038     2.481     2.463
    36   1 H        0.924     0.025     2.665     2.553
    37   1 H        0.924     0.040     2.451     2.448
    38   1 H        0.924     0.024     2.667     2.554
    39   1 H        0.924     0.041     2.429     2.437
    40   1 H        0.924     0.021     2.716     2.577
    41   1 H        0.924     0.044     2.392     2.419
    42   1 H        0.924     0.014     2.828     2.630
    43   1 H        0.925     0.053     2.279     2.361
    44   1 H        0.924     0.031     2.566     2.505
    45   1 H        0.924     0.062     2.176     2.307
    46   1 H        0.924     0.046     2.368     2.406
    47   1 H        0.924     0.079     1.992     2.207
    48   1 H        0.924     0.095     1.828     2.114
    49   1 H        0.925     0.091     1.871     2.139
    50   1 H        0.924     0.063     2.168     2.302
    51   1 H        0.924     0.079     1.988     2.205
    52   1 H        0.923     0.013     2.838     2.634
    53   1 H        0.924     0.027     2.625     2.534
    54   1 H        0.924     0.050     2.314     2.379
    55   1 H        0.924     0.039     2.467     2.456
    56   1 H        0.925     0.027     2.631     2.536
    57   1 H        0.925     0.044     2.397     2.421
    58   1 H        0.925     0.046     2.375     2.410
    59   1 H        0.925     0.047     2.359     2.402
    60   1 H        0.924     0.045     2.381     2.413
    61   1 H        0.924     0.042     2.418     2.432
    62   1 H        0.925     0.050     2.325     2.385
    63   1 H        0.923     0.039     2.467     2.456
    64   1 H        0.923     0.020     2.741     2.589
    65   1 H        0.925     0.051     2.312     2.378
    66   1 H        0.925     0.047     2.361     2.403
    67   1 H        0.925     0.034     2.525     2.485
    68   1 H        0.925     0.030     2.579     2.512
    69   1 H        0.925     0.049     2.328     2.386
    70   1 H        0.925     0.046     2.367     2.406
    71   1 H        0.925     0.094     1.845     2.124
    72   1 H        0.925     0.088     1.898     2.154
    73   1 H        0.925     0.106     1.732     2.058
    74   1 H        0.925     0.106     1.736     2.060
    75   1 H        0.925     0.099     1.794     2.095
    76   1 H        0.925     0.090     1.882     2.145

Wiberg/Mayer (AO) data.
largest (>0.10) Wiberg bond orders for each atom

     #   Z sym  total        # sym  WBO       # sym  WBO       # sym  WBO
 ---------------------------------------------------------------------------
     1   6 C    3.997 --     2 C    1.020    29 H    0.987    28 H    0.987
                            27 H    0.986
     2   6 C    3.998 --     1 C    1.020     3 C    1.008    31 H    0.978
                            30 H    0.976
     3   6 C    3.997 --     2 C    1.008     4 C    1.008    33 H    0.977
                            32 H    0.976
     4   6 C    3.997 --     5 C    1.008     3 C    1.008    34 H    0.975
                            35 H    0.975
     5   6 C    3.997 --     4 C    1.008     6 C    1.007    36 H    0.975
                            37 H    0.974
     6   6 C    3.996 --     5 C    1.007     7 C    1.007    38 H    0.975
                            39 H    0.974
     7   6 C    3.996 --     6 C    1.007     8 C    1.007    40 H    0.976
                            41 H    0.973
     8   6 C    3.995 --     9 C    1.008     7 C    1.007    42 H    0.972
                            43 H    0.971
     9   6 C    3.992 --     8 C    1.008    10 C    1.004    44 H    0.974
                            45 H    0.970
    10   6 C    3.984 --    11 C    1.006     9 C    1.004    46 H    0.967
                            47 H    0.963
    11   6 C    3.919 --    10 C    1.006    48 H    0.964    49 H    0.960
                            12 N    0.916
    12   7 N    3.797 --    26 C    0.964    25 C    0.960    11 C    0.916
                            13 C    0.885
    13   6 C    3.934 --    14 O    1.069    50 H    0.957    51 H    0.950
                            12 N    0.885
    14   8 O    2.125 --    13 C    1.069    15 C    0.904
    15   6 C    3.913 --    16 C    0.996    21 C    0.979    52 H    0.959
                            14 O    0.904
    16   6 C    3.994 --    15 C    0.996    17 C    0.995    53 H    0.970
                            54 H    0.965
    17   6 C    3.994 --    18 C    1.010    19 C    0.997    16 C    0.995
                            55 H    0.967
    18   6 C    3.996 --    17 C    1.010    56 H    0.987    58 H    0.985
                            57 H    0.982
    19   6 C    3.996 --    20 C    1.010    17 C    0.997    60 H    0.974
                            59 H    0.972
    20   6 C    3.995 --    19 C    1.010    21 C    0.995    61 H    0.975
                            62 H    0.970
    21   6 C    3.987 --    20 C    0.995    15 C    0.979    22 C    0.978
                            63 H    0.960
    22   6 C    3.994 --    23 C    1.011    24 C    1.008    21 C    0.978
                            64 H    0.966
    23   6 C    3.994 --    22 C    1.011    66 H    0.984    65 H    0.982
                            67 H    0.980
    24   6 C    3.994 --    22 C    1.008    68 H    0.986    69 H    0.985
                            70 H    0.983
    25   6 C    3.929 --    72 H    0.976    71 H    0.975    73 H    0.972
                            12 N    0.960
    26   6 C    3.930 --    76 H    0.975    74 H    0.972    75 H    0.971
                            12 N    0.964
    27   1 H    0.999 --     1 C    0.986
    28   1 H    0.999 --     1 C    0.987
    29   1 H    0.999 --     1 C    0.987
    30   1 H    0.999 --     2 C    0.976
    31   1 H    0.999 --     2 C    0.978
    32   1 H    0.999 --     3 C    0.976
    33   1 H    0.999 --     3 C    0.977
    34   1 H    0.999 --     4 C    0.975
    35   1 H    0.999 --     4 C    0.975
    36   1 H    0.999 --     5 C    0.975
    37   1 H    0.998 --     5 C    0.974
    38   1 H    0.999 --     6 C    0.975
    39   1 H    0.998 --     6 C    0.974
    40   1 H    1.000 --     7 C    0.976
    41   1 H    0.998 --     7 C    0.973
    42   1 H    1.000 --     8 C    0.972
    43   1 H    0.997 --     8 C    0.971
    44   1 H    0.999 --     9 C    0.974
    45   1 H    0.996 --     9 C    0.970
    46   1 H    0.998 --    10 C    0.967
    47   1 H    0.993 --    10 C    0.963
    48   1 H    0.991 --    11 C    0.964
    49   1 H    0.992 --    11 C    0.960
    50   1 H    0.996 --    13 C    0.957
    51   1 H    0.993 --    13 C    0.950
    52   1 H    1.000 --    15 C    0.959
    53   1 H    0.999 --    16 C    0.970
    54   1 H    0.997 --    16 C    0.965
    55   1 H    0.998 --    17 C    0.967
    56   1 H    0.999 --    18 C    0.987
    57   1 H    0.998 --    18 C    0.982
    58   1 H    0.998 --    18 C    0.985
    59   1 H    0.998 --    19 C    0.972
    60   1 H    0.998 --    19 C    0.974
    61   1 H    0.998 --    20 C    0.975
    62   1 H    0.997 --    20 C    0.970
    63   1 H    0.998 --    21 C    0.960
    64   1 H    1.000 --    22 C    0.966
    65   1 H    0.997 --    23 C    0.982
    66   1 H    0.998 --    23 C    0.984
    67   1 H    0.999 --    23 C    0.980
    68   1 H    0.999 --    24 C    0.986
    69   1 H    0.997 --    24 C    0.985
    70   1 H    0.998 --    24 C    0.983
    71   1 H    0.991 --    25 C    0.975
    72   1 H    0.992 --    25 C    0.976
    73   1 H    0.989 --    25 C    0.972
    74   1 H    0.989 --    26 C    0.972
    75   1 H    0.990 --    26 C    0.971
    76   1 H    0.992 --    26 C    0.975
 ---------------------------------------------------------------------------

molecular dipole:
                 x           y           z       tot (Debye)
 q only:       -7.294     -13.782      -9.766
   full:       -7.436     -13.748      -9.429      46.398

           -------------------------------------------------
          | TOTAL ENERGY              -83.533804172951 Eh   |
          | GRADIENT NORM               0.000212187122 Eh/α |
          | HOMO-LUMO GAP               6.609748550054 eV   |
           -------------------------------------------------

 * finished run on 2024/12/20 at 02:09:17.781
