   * xtb version 6.7.1 (edcfbbe) compiled by 'conda@3ef47c1a292c' on 2024-11-25

   ID    Z sym.   atoms
    1    6 C      1-12, 14, 16-22
    2    7 N      13
    3   16 S      15
    4    1 H      23-62

          program call               : xtb C0189.xyz --opt --namespace C0189 --charge +1
          :  Hamiltonian                  GFN2-xTB          :
 * total energy  :   -69.0271829 Eh     change       -0.1406448E-09 Eh
 * total energy  :   -69.0340821 Eh     change       -0.6899178E-02 Eh
 * total energy  :   -69.0361355 Eh     change       -0.2053460E-02 Eh
 * total energy  :   -69.0367591 Eh     change       -0.6235490E-03 Eh
 * total energy  :   -69.0373749 Eh     change       -0.6158386E-03 Eh
 * total energy  :   -69.0377611 Eh     change       -0.3862228E-03 Eh
 * total energy  :   -69.0381229 Eh     change       -0.3618119E-03 Eh
 * total energy  :   -69.0384527 Eh     change       -0.3297496E-03 Eh
 * total energy  :   -69.0387710 Eh     change       -0.3183431E-03 Eh
 * total energy  :   -69.0391074 Eh     change       -0.3363684E-03 Eh
 * total energy  :   -69.0466133 Eh     change       -0.2019703E-04 Eh
 * total energy  :   -69.0466362 Eh     change       -0.2285749E-04 Eh
 * total energy  :   -69.0466607 Eh     change       -0.2448163E-04 Eh
 * total energy  :   -69.0466861 Eh     change       -0.2541181E-04 Eh
 * total energy  :   -69.0467124 Eh     change       -0.2632041E-04 Eh
 * total energy  :   -69.0467397 Eh     change       -0.2735294E-04 Eh
 * total energy  :   -69.0467679 Eh     change       -0.2818448E-04 Eh
 * total energy  :   -69.0467963 Eh     change       -0.2838738E-04 Eh
 * total energy  :   -69.0468003 Eh     change       -0.3983919E-05 Eh
   *** GEOMETRY OPTIMIZATION CONVERGED AFTER 94 ITERATIONS ***

 final structure:
================
62
 xtb: 6.7.1 (edcfbbe)
C            1.05362232426554       -0.84229139299823       -0.64097920229191
C            0.37740233757799        0.41358696021419       -0.10475147931396
C            1.14842085300999        1.69610577522352       -0.42078025907270
C            1.28013062530629        2.02316680818306       -1.90975949828825
C           -0.04374016441863        2.18519694698659       -2.65963423842165
C           -0.99695635859957        3.22494456429460       -2.06698608851354
C           -0.42502502250776        4.63983020717909       -1.96267266543619
C           -0.01470774917256        5.27729737564132       -3.29159416809468
C           -1.13485872792058        5.38386729780178       -4.32918825528696
C           -2.33923716936706        6.16896802600396       -3.81198041346508
C           -3.33800444853427        6.53943141441231       -4.90994086234763
C           -3.89392665682905        5.28998083262733       -5.60778310193554
N           -5.16907187810752        5.47926578103933       -6.27414794297482
C           -6.32502134271989        5.02785442676433       -5.86158957924826
S           -7.58710491923614        5.13817761272308       -7.00546559081408
C           -6.43650994243424        5.69470435895422       -8.30591030232905
C           -5.19903892337833        6.18933414884571       -7.55875757030211
C           -5.22255755795241        7.71698920053576       -7.37021342295562
C           -6.38842510901459        8.23606187857455       -6.53750967691867
C           -6.68367836616960        4.37935370730396       -4.55962426315344
C           -6.24881984661899        2.90493806865063       -4.56219603320161
C           -6.19279225272104        5.12308635903453       -3.31564526425882
H            1.07004326482215       -0.84742982623472       -1.72790937893595
H            0.52000752659608       -1.72916067431029       -0.30702544161773
H            2.07789098210508       -0.90451313430684       -0.28080685413637
H           -0.63710528689254        0.47928958931842       -0.50292270889192
H            0.29375622429114        0.32997804639068        0.98144146985144
H            0.66531236326941        2.53029103100194        0.09244371327147
H            2.15567289218171        1.60475905319913       -0.00749472461145
H            1.86399853707106        2.94095283633099       -2.00637494769472
H            1.85047291068999        1.23228349028464       -2.39999513912465
H            0.18179755841602        2.44784842382371       -3.69616678317267
H           -0.56201234517520        1.22410356123185       -2.68041509167945
H           -1.90742638583539        3.24065352574735       -2.67361465862238
H           -1.29091838124484        2.90584793359832       -1.06572375418360
H           -1.16299785455973        5.27653013499122       -1.46916818616521
H            0.45318319991250        4.61857054070465       -1.31713689524650
H            0.36511138209052        6.28001830485878       -3.08298817760123
H            0.80444946463028        4.70510277059336       -3.72859441251777
H           -0.73297873702103        5.88754621658254       -5.21187392409724
H           -1.44146336659782        4.38108813689836       -4.63149955821385
H           -2.84623132983843        5.59381847378454       -3.03580317009993
H           -1.98562521696347        7.09441657690815       -3.35459308877048
H           -4.15839436629583        7.10302021537898       -4.46338933898453
H           -2.83382206206521        7.17990648803713       -5.63361219124168
H           -3.18223983798156        4.94934372013486       -6.36419990024698
H           -4.00991485929380        4.49539554260919       -4.87422304003959
H           -6.90893010290898        6.47928268601046       -8.89149250036242
H           -6.23293271456661        4.84049257249554       -8.95211381683205
H           -4.29401806834512        5.92337530955875       -8.11369763311458
H           -4.28730552741814        8.03971757037313       -6.91626610471315
H           -5.26321904979787        8.15907328038038       -8.36703102633565
H           -6.39199003270174        7.80222526797833       -5.53965965454205
H           -6.29629466851250        9.31292110818334       -6.42878279865465
H           -7.34698231593585        8.03307238334128       -7.00767816649531
H           -7.77973631918745        4.38371696581758       -4.53323514218999
H           -5.16842481791919        2.79203036907660       -4.56467850161869
H           -6.63501202646070        2.42640604570162       -3.66701761656520
H           -6.65449935740963        2.38599968927080       -5.42692458768276
H           -6.71579809700560        4.72769427334757       -2.44918764416192
H           -5.12951033028614        4.99831493546737       -3.14326347479742
H           -6.41849255238197        6.18431620739033       -3.38355527062402

          :  Hamiltonian                  GFN2-xTB          :
         :: total energy             -69.046800292349 Eh    ::
         :: gradient norm              0.000255112427 Eh/a0 ::
         :: HOMO-LUMO gap              1.018066166281 eV    ::
         :: SCC energy               -70.027987851561 Eh    ::
         :: -> dispersion             -0.056797028847 Eh    ::
         :: repulsion energy           0.981187559212 Eh    ::

    * Orbital Energies and Occupations

         #    Occupation            Energy/Eh            Energy/eV
      -------------------------------------------------------------
         1        2.0000           -0.8970314             -24.4095
       ...           ...                  ...                  ...
        53        2.0000           -0.5390724             -14.6689
        54        2.0000           -0.5379347             -14.6379
        55        2.0000           -0.5319393             -14.4748
        56        2.0000           -0.5281092             -14.3706
        57        2.0000           -0.5168117             -14.0632
        58        2.0000           -0.5124983             -13.9458
        59        2.0000           -0.5066993             -13.7880
        60        2.0000           -0.4978023             -13.5459
        61        2.0000           -0.4946850             -13.4611
        62        2.0000           -0.4926209             -13.4049
        63        2.0000           -0.4769588             -12.9787
        64        2.0000           -0.4735629             -12.8863
        65        2.0000           -0.4712170             -12.8225 (HOMO)
        66                         -0.4338037             -11.8044 (LUMO)
        67                         -0.3745075             -10.1909
        68                         -0.2855310              -7.7697
        69                         -0.1954408              -5.3182
        70                         -0.1691622              -4.6031
        71                         -0.1610342              -4.3820
        72                         -0.1301026              -3.5403
        73                         -0.1096013              -2.9824
        74                         -0.0762148              -2.0739
        75                         -0.0715499              -1.9470
        76                         -0.0578111              -1.5731
       ...                                ...                  ...
       133                          0.3887139              10.5774
      -------------------------------------------------------------
                  HL-Gap            0.0374132 Eh            1.0181 eV

     #   Z          covCN         q      C6AA      α(0)
     1   6 C        3.751    -0.103    22.522     6.768
     2   6 C        3.799    -0.052    21.507     6.603
     3   6 C        3.801    -0.059    21.628     6.621
     4   6 C        3.800    -0.058    21.624     6.621
     5   6 C        3.800    -0.056    21.588     6.615
     6   6 C        3.800    -0.054    21.554     6.610
     7   6 C        3.800    -0.062    21.684     6.630
     8   6 C        3.801    -0.061    21.673     6.628
     9   6 C        3.801    -0.061    21.681     6.629
    10   6 C        3.803    -0.065    21.744     6.639
    11   6 C        3.800    -0.066    21.770     6.643
    12   6 C        3.743    -0.020    20.999     6.537
    13   7 N        2.854     0.010    21.081     6.819
    14   6 C        2.911     0.106    25.656     8.306
    15  16 S        2.200     0.077   137.964    19.769
    16   6 C        3.803    -0.047    21.406     6.587
    17   6 C        3.898     0.026    20.083     6.370
    18   6 C        3.801    -0.073    21.887     6.661
    19   6 C        3.751    -0.113    22.726     6.799
    20   6 C        3.904    -0.018    20.830     6.487
    21   6 C        3.755    -0.115    22.761     6.803
    22   6 C        3.753    -0.118    22.818     6.812
    23   1 H        0.925     0.033     2.545     2.495
    24   1 H        0.925     0.033     2.544     2.494
    25   1 H        0.925     0.037     2.490     2.468
    26   1 H        0.924     0.026     2.638     2.540
    27   1 H        0.924     0.029     2.596     2.520
    28   1 H        0.924     0.028     2.613     2.528
    29   1 H        0.924     0.034     2.536     2.490
    30   1 H        0.924     0.030     2.592     2.518
    31   1 H        0.924     0.036     2.508     2.477
    32   1 H        0.924     0.024     2.672     2.556
    33   1 H        0.924     0.031     2.571     2.507
    34   1 H        0.924     0.011     2.876     2.652
    35   1 H        0.924     0.037     2.495     2.470
    36   1 H        0.924     0.026     2.640     2.541
    37   1 H        0.925     0.045     2.384     2.415
    38   1 H        0.924     0.035     2.518     2.481
    39   1 H        0.924     0.044     2.396     2.421
    40   1 H        0.924     0.032     2.564     2.504
    41   1 H        0.924     0.030     2.588     2.516
    42   1 H        0.924     0.040     2.442     2.444
    43   1 H        0.924     0.057     2.239     2.340
    44   1 H        0.924     0.052     2.299     2.371
    45   1 H        0.925     0.052     2.292     2.368
    46   1 H        0.924     0.078     2.002     2.213
    47   1 H        0.925     0.085     1.928     2.171
    48   1 H        0.925     0.100     1.788     2.091
    49   1 H        0.925     0.084     1.937     2.177
    50   1 H        0.924     0.080     1.982     2.202
    51   1 H        0.925     0.067     2.119     2.277
    52   1 H        0.924     0.069     2.093     2.262
    53   1 H        0.925     0.036     2.507     2.476
    54   1 H        0.925     0.067     2.118     2.276
    55   1 H        0.925     0.049     2.327     2.386
    56   1 H        0.924     0.080     1.981     2.201
    57   1 H        0.925     0.055     2.253     2.347
    58   1 H        0.925     0.082     1.958     2.188
    59   1 H        0.925     0.058     2.219     2.330
    60   1 H        0.925     0.075     2.033     2.230
    61   1 H        0.925     0.064     2.155     2.296
    62   1 H        0.925     0.052     2.300     2.372

Wiberg/Mayer (AO) data.
largest (>0.10) Wiberg bond orders for each atom

     #   Z sym  total        # sym  WBO       # sym  WBO       # sym  WBO
 ---------------------------------------------------------------------------
     1   6 C    3.997 --     2 C    1.020    25 H    0.987    24 H    0.987
                            23 H    0.986
     2   6 C    3.998 --     1 C    1.020     3 C    1.008    27 H    0.978
                            26 H    0.976
     3   6 C    3.997 --     2 C    1.008     4 C    1.008    29 H    0.977
                            28 H    0.975
     4   6 C    3.997 --     3 C    1.008     5 C    1.008    30 H    0.975
                            31 H    0.975
     5   6 C    3.998 --     4 C    1.008     6 C    1.007    32 H    0.976
                            33 H    0.975
     6   6 C    3.998 --     7 C    1.008     5 C    1.007    34 H    0.975
                            35 H    0.974
     7   6 C    3.996 --     8 C    1.008     6 C    1.008    36 H    0.976
                            37 H    0.973
     8   6 C    3.995 --     7 C    1.008     9 C    1.005    38 H    0.977
                            39 H    0.974
     9   6 C    3.996 --    10 C    1.008     8 C    1.005    40 H    0.977
                            41 H    0.975
    10   6 C    3.990 --     9 C    1.008    11 C    1.001    42 H    0.972
                            43 H    0.971
    11   6 C    3.987 --    10 C    1.001    12 C    0.981    44 H    0.973
                            45 H    0.972
    12   6 C    3.940 --    11 C    0.981    13 N    0.965    46 H    0.957
                            47 H    0.954
    13   7 N    3.660 --    14 C    1.490    12 C    0.965    17 C    0.952
                            15 S    0.150
    14   6 C    3.945 --    13 N    1.490    15 S    1.282    20 C    1.012
    15  16 S    2.565 --    14 C    1.282    16 C    0.982    13 N    0.150
    16   6 C    3.965 --    17 C    0.999    15 S    0.982    49 H    0.970
                            48 H    0.965
    17   6 C    3.955 --    16 C    0.999    18 C    0.976    50 H    0.953
                            13 N    0.952
    18   6 C    3.984 --    19 C    1.022    17 C    0.976    51 H    0.966
                            52 H    0.966
    19   6 C    3.991 --    18 C    1.022    55 H    0.984    53 H    0.984
                            54 H    0.981
    20   6 C    3.978 --    14 C    1.012    22 C    0.989    21 C    0.966
                            56 H    0.953
    21   6 C    3.983 --    59 H    0.985    57 H    0.979    58 H    0.975
                            20 C    0.966
    22   6 C    3.985 --    20 C    0.989    62 H    0.984    60 H    0.978
                            61 H    0.976
    23   1 H    0.999 --     1 C    0.986
    24   1 H    0.999 --     1 C    0.987
    25   1 H    0.999 --     1 C    0.987
    26   1 H    0.999 --     2 C    0.976
    27   1 H    0.999 --     2 C    0.978
    28   1 H    0.999 --     3 C    0.975
    29   1 H    0.999 --     3 C    0.977
    30   1 H    0.999 --     4 C    0.975
    31   1 H    0.999 --     4 C    0.975
    32   1 H    0.999 --     5 C    0.976
    33   1 H    0.999 --     5 C    0.975
    34   1 H    1.000 --     6 C    0.975
    35   1 H    0.999 --     6 C    0.974
    36   1 H    0.999 --     7 C    0.976
    37   1 H    0.998 --     7 C    0.973
    38   1 H    0.999 --     8 C    0.977
    39   1 H    0.998 --     8 C    0.974
    40   1 H    0.999 --     9 C    0.977
    41   1 H    0.999 --     9 C    0.975
    42   1 H    0.998 --    10 C    0.972
    43   1 H    0.994 --    10 C    0.971
    44   1 H    0.997 --    11 C    0.973
    45   1 H    0.997 --    11 C    0.972
    46   1 H    0.994 --    12 C    0.957
    47   1 H    0.993 --    12 C    0.954
    48   1 H    0.989 --    16 C    0.965
    49   1 H    0.993 --    16 C    0.970
    50   1 H    0.994 --    17 C    0.953
    51   1 H    0.996 --    18 C    0.966
    52   1 H    0.994 --    18 C    0.966
    53   1 H    0.999 --    19 C    0.984
    54   1 H    0.995 --    19 C    0.981
    55   1 H    0.998 --    19 C    0.984
    56   1 H    0.993 --    20 C    0.953
    57   1 H    0.997 --    21 C    0.979
    58   1 H    0.992 --    21 C    0.975
    59   1 H    0.997 --    21 C    0.985
    60   1 H    0.994 --    22 C    0.978
    61   1 H    0.996 --    22 C    0.976
    62   1 H    0.997 --    22 C    0.984
 ---------------------------------------------------------------------------

molecular dipole:
                 x           y           z       tot (Debye)
 q only:      -10.037      10.264     -11.296
   full:       -9.975      10.272     -11.561      46.776

           -------------------------------------------------
          | TOTAL ENERGY              -69.046800292349 Eh   |
          | GRADIENT NORM               0.000255112427 Eh/α |
          | HOMO-LUMO GAP               1.018066166281 eV   |
           -------------------------------------------------

 * finished run on 2024/12/20 at 02:09:33.210
