   * xtb version 6.7.1 (edcfbbe) compiled by 'conda@3ef47c1a292c' on 2024-11-25

   ID    Z sym.   atoms
    1    6 C      1-3, 5-18
    2    7 N      4
    3    1 H      19-48

          program call               : xtb C0182.xyz --opt --namespace C0182 --charge +1
          :  Hamiltonian                  GFN2-xTB          :
 * total energy  :   -54.1974563 Eh     change       -0.2580286E-08 Eh
 * total energy  :   -54.2081656 Eh     change       -0.1070924E-01 Eh
 * total energy  :   -54.2120255 Eh     change       -0.3859882E-02 Eh
 * total energy  :   -54.2126094 Eh     change       -0.5839519E-03 Eh
 * total energy  :   -54.2129378 Eh     change       -0.3283779E-03 Eh
 * total energy  :   -54.2132451 Eh     change       -0.3073448E-03 Eh
 * total energy  :   -54.2136604 Eh     change       -0.4152282E-03 Eh
 * total energy  :   -54.2141389 Eh     change       -0.4785560E-03 Eh
 * total energy  :   -54.2145588 Eh     change       -0.4198855E-03 Eh
 * total energy  :   -54.2148755 Eh     change       -0.3166478E-03 Eh
 * total energy  :   -54.2250924 Eh     change       -0.4272247E-04 Eh
 * total energy  :   -54.2251308 Eh     change       -0.3846506E-04 Eh
 * total energy  :   -54.2251829 Eh     change       -0.5207791E-04 Eh
 * total energy  :   -54.2252132 Eh     change       -0.3024310E-04 Eh
 * total energy  :   -54.2252548 Eh     change       -0.4163940E-04 Eh
 * total energy  :   -54.2252716 Eh     change       -0.1677188E-04 Eh
 * total energy  :   -54.2252799 Eh     change       -0.8364194E-05 Eh
 * total energy  :   -54.2252880 Eh     change       -0.8059136E-05 Eh
 * total energy  :   -54.2252923 Eh     change       -0.4329862E-05 Eh
   *** GEOMETRY OPTIMIZATION CONVERGED AFTER 110 ITERATIONS ***

 final structure:
================
48
 xtb: 6.7.1 (edcfbbe)
C            0.78136198754168        0.54378970103911        2.60661675989806
C            0.39091145552164        0.84600360570329        1.16192444884820
C            1.07011641345757        2.14475160760622        0.73069035584355
N            0.63931104491701        2.74584608937919       -0.56700297488762
C           -0.85273379517660        3.11202653631836       -0.48426682999863
C           -1.33465033459488        3.56576587335015        0.88149178367903
C           -0.88368724272606        4.71391628939007        1.52652007789694
C           -1.40705628062291        5.08871427615919        2.75218142222473
C           -2.40363199563618        4.33719376685832        3.34940058779651
C           -2.88451679211865        3.21137599906723        2.70437877903173
C           -2.35445168478383        2.83290572589561        1.48413817730292
C           -1.30276354097450        4.13095258257593       -1.53158002486710
C            1.45200985818462        3.97449105105394       -0.85859428056507
C            2.89622733353355        4.04312092176263       -0.35605383405544
C            3.54967783139467        5.30283661378775       -0.92194646681658
C            0.75429838701125        1.76449287492351       -1.69718333329453
C            2.13575587963566        1.38274231814860       -2.23883277700731
C            2.92244313277319        0.35553410857782       -1.43127059223534
H            1.86060230974790        0.47209870492726        2.71116950829341
H            0.34721537203269       -0.40087919181859        2.91881727167563
H            0.41851268279929        1.32186072952801        3.27344508792083
H            0.71161854280742        0.01327759460329        0.53658136088399
H           -0.69273650919829        0.92566895565411        1.10984546813894
H            0.89736153171532        2.89726596761277        1.50232336061707
H            2.13885600170131        1.95587431462216        0.67050451417709
H           -1.37133310321723        2.17388971966195       -0.70204395934049
H           -0.12233776313881        5.34454083741282        1.09362997132089
H           -1.03631703220206        5.97910328302490        3.23575046914483
H           -2.80990856242362        4.63506226031051        4.30268384467832
H           -3.67462905765167        2.62573082325731        3.14733519991788
H           -2.75950529160030        1.96291593549733        0.98630315899872
H           -0.97708540462350        3.88222812156402       -2.53806751088528
H           -2.39088149176152        4.13397918324638       -1.53295213075399
H           -0.98305688664537        5.14182896423511       -1.29785348173288
H            1.44891093363282        4.11478350942539       -1.94057074387082
H            0.93577152958637        4.82272882086092       -0.41674260274047
H            2.92015237478289        4.10225542884823        0.73252047962492
H            3.48474107358468        3.18133564941613       -0.66540918283463
H            3.00576376055079        6.19433171628027       -0.62024801964395
H            4.56733916713789        5.38719514994881       -0.55334671848942
H            3.58421210910550        5.27202976526223       -2.00829885871983
H            0.24031925582150        0.85241996301280       -1.39217929060781
H            0.19721485397949        2.19676696004389       -2.53002240692516
H            1.93635604029055        0.93673284492827       -3.21661351152107
H            2.74620462585214        2.26452072463366       -2.42465604412602
H            2.31498804388645       -0.52195049087474       -1.22536705475280
H            3.78111307472617        0.03161997897269       -2.01344457801850
H            3.29943616135166        0.74680383430628       -0.49063487916109

          :  Hamiltonian                  GFN2-xTB          :
         :: total energy             -54.225292332911 Eh    ::
         :: gradient norm              0.000652568566 Eh/a0 ::
         :: HOMO-LUMO gap              4.675828877121 eV    ::
         :: SCC energy               -55.088980033635 Eh    ::
         :: -> dispersion             -0.046581064951 Eh    ::
         :: repulsion energy           0.863687700723 Eh    ::

    * Orbital Energies and Occupations

         #    Occupation            Energy/Eh            Energy/eV
      -------------------------------------------------------------
         1        2.0000           -0.8354437             -22.7336
       ...           ...                  ...                  ...
        39        2.0000           -0.5856639             -15.9367
        40        2.0000           -0.5837758             -15.8853
        41        2.0000           -0.5808224             -15.8050
        42        2.0000           -0.5721440             -15.5688
        43        2.0000           -0.5695516             -15.4983
        44        2.0000           -0.5661127             -15.4047
        45        2.0000           -0.5650679             -15.3763
        46        2.0000           -0.5609651             -15.2646
        47        2.0000           -0.5558632             -15.1258
        48        2.0000           -0.5419329             -14.7467
        49        2.0000           -0.5378970             -14.6369
        50        2.0000           -0.5229900             -14.2313
        51        2.0000           -0.5220961             -14.2070 (HOMO)
        52                         -0.3502626              -9.5311 (LUMO)
        53                         -0.3418424              -9.3020
        54                         -0.2413907              -6.5686
        55                         -0.2096992              -5.7062
        56                         -0.1712735              -4.6606
        57                         -0.1561168              -4.2482
        58                         -0.1509758              -4.1083
        59                         -0.0651606              -1.7731
        60                         -0.0552725              -1.5040
        61                         -0.0456149              -1.2412
        62                         -0.0444590              -1.2098
       ...                                ...                  ...
       102                          0.5456238              14.8472
      -------------------------------------------------------------
                  HL-Gap            0.1718335 Eh            4.6758 eV

     #   Z          covCN         q      C6AA      α(0)
     1   6 C        3.755    -0.115    22.767     6.804
     2   6 C        3.799    -0.067    21.785     6.646
     3   6 C        3.753    -0.034    21.247     6.573
     4   7 N        3.611     0.089    19.699     6.592
     5   6 C        3.802     0.009    20.419     6.434
     6   6 C        2.969    -0.004    28.117     8.698
     7   6 C        2.923    -0.038    28.946     8.823
     8   6 C        2.919    -0.024    28.613     8.772
     9   6 C        2.920    -0.020    28.502     8.755
    10   6 C        2.918    -0.021    28.534     8.760
    11   6 C        2.927    -0.035    28.865     8.811
    12   6 C        3.755    -0.122    22.901     6.824
    13   6 C        3.752    -0.035    21.268     6.577
    14   6 C        3.799    -0.065    21.754     6.641
    15   6 C        3.755    -0.116    22.770     6.804
    16   6 C        3.752    -0.034    21.234     6.571
    17   6 C        3.798    -0.067    21.795     6.647
    18   6 C        3.751    -0.114    22.749     6.802
    19   1 H        0.925     0.050     2.314     2.379
    20   1 H        0.925     0.064     2.155     2.296
    21   1 H        0.925     0.047     2.357     2.401
    22   1 H        0.925     0.055     2.258     2.350
    23   1 H        0.925     0.052     2.291     2.367
    24   1 H        0.924     0.080     1.976     2.198
    25   1 H        0.925     0.086     1.915     2.164
    26   1 H        0.924     0.070     2.082     2.256
    27   1 H        0.926     0.033     2.545     2.495
    28   1 H        0.926     0.054     2.267     2.355
    29   1 H        0.926     0.059     2.207     2.323
    30   1 H        0.926     0.058     2.227     2.333
    31   1 H        0.926     0.037     2.487     2.466
    32   1 H        0.925     0.055     2.256     2.349
    33   1 H        0.925     0.079     1.992     2.207
    34   1 H        0.925     0.065     2.147     2.291
    35   1 H        0.924     0.081     1.973     2.197
    36   1 H        0.925     0.085     1.932     2.173
    37   1 H        0.924     0.052     2.295     2.369
    38   1 H        0.925     0.056     2.241     2.341
    39   1 H        0.925     0.049     2.330     2.387
    40   1 H        0.925     0.065     2.140     2.287
    41   1 H        0.925     0.049     2.331     2.388
    42   1 H        0.924     0.080     1.978     2.200
    43   1 H        0.924     0.073     2.053     2.241
    44   1 H        0.924     0.068     2.110     2.271
    45   1 H        0.925     0.060     2.200     2.320
    46   1 H        0.925     0.049     2.338     2.391
    47   1 H        0.925     0.062     2.175     2.306
    48   1 H        0.925     0.041     2.436     2.441

Wiberg/Mayer (AO) data.
largest (>0.10) Wiberg bond orders for each atom

     #   Z sym  total        # sym  WBO       # sym  WBO       # sym  WBO
 ---------------------------------------------------------------------------
     1   6 C    3.990 --     2 C    1.012    21 H    0.987    19 H    0.986
                            20 H    0.983
     2   6 C    3.990 --     1 C    1.012     3 C    1.006    22 H    0.971
                            23 H    0.969
     3   6 C    3.933 --     2 C    1.006    24 H    0.960    25 H    0.956
                             4 N    0.935
     4   7 N    3.791 --     3 C    0.935    16 C    0.935    13 C    0.931
                             5 C    0.889
     5   6 C    3.935 --    12 C    1.006     6 C    0.992    26 H    0.957
                             4 N    0.889
     6   6 C    3.981 --     7 C    1.409    11 C    1.407     5 C    0.992
                             9 C    0.110
     7   6 C    3.992 --     8 C    1.443     6 C    1.409    27 H    0.958
                            10 C    0.110
     8   6 C    3.990 --     7 C    1.443     9 C    1.438    28 H    0.969
                            11 C    0.109
     9   6 C    3.988 --     8 C    1.438    10 C    1.438    29 H    0.969
                             6 C    0.110
    10   6 C    3.990 --    11 C    1.444     9 C    1.438    30 H    0.968
                             7 C    0.110
    11   6 C    3.991 --    10 C    1.444     6 C    1.407    31 H    0.964
                             8 C    0.109
    12   6 C    3.985 --     5 C    1.006    34 H    0.979    32 H    0.974
                            33 H    0.973
    13   6 C    3.933 --    14 C    1.005    35 H    0.966    36 H    0.954
                             4 N    0.931
    14   6 C    3.989 --    15 C    1.011    13 C    1.005    37 H    0.975
                            38 H    0.968
    15   6 C    3.989 --    14 C    1.011    39 H    0.986    41 H    0.986
                            40 H    0.983
    16   6 C    3.938 --    17 C    1.004    43 H    0.964    42 H    0.963
                             4 N    0.935
    17   6 C    3.986 --    18 C    1.020    16 C    1.004    45 H    0.967
                            44 H    0.967
    18   6 C    3.991 --    17 C    1.020    46 H    0.984    47 H    0.982
                            48 H    0.978
    19   1 H    0.997 --     1 C    0.986
    20   1 H    0.995 --     1 C    0.983
    21   1 H    0.998 --     1 C    0.987
    22   1 H    0.997 --     2 C    0.971
    23   1 H    0.997 --     2 C    0.969
    24   1 H    0.994 --     3 C    0.960
    25   1 H    0.992 --     3 C    0.956
    26   1 H    0.994 --     5 C    0.957
    27   1 H    0.999 --     7 C    0.958
    28   1 H    0.997 --     8 C    0.969
    29   1 H    0.996 --     9 C    0.969
    30   1 H    0.996 --    10 C    0.968
    31   1 H    0.999 --    11 C    0.964
    32   1 H    0.996 --    12 C    0.974
    33   1 H    0.993 --    12 C    0.973
    34   1 H    0.996 --    12 C    0.979
    35   1 H    0.993 --    13 C    0.966
    36   1 H    0.993 --    13 C    0.954
    37   1 H    0.997 --    14 C    0.975
    38   1 H    0.997 --    14 C    0.968
    39   1 H    0.998 --    15 C    0.986
    40   1 H    0.995 --    15 C    0.983
    41   1 H    0.998 --    15 C    0.986
    42   1 H    0.993 --    16 C    0.963
    43   1 H    0.995 --    16 C    0.964
    44   1 H    0.995 --    17 C    0.967
    45   1 H    0.996 --    17 C    0.967
    46   1 H    0.998 --    18 C    0.984
    47   1 H    0.996 --    18 C    0.982
    48   1 H    0.998 --    18 C    0.978
 ---------------------------------------------------------------------------

molecular dipole:
                 x           y           z       tot (Debye)
 q only:        1.121       5.312      -0.433
   full:        1.019       5.339      -0.534      13.881

           -------------------------------------------------
          | TOTAL ENERGY              -54.225292332911 Eh   |
          | GRADIENT NORM               0.000652568566 Eh/α |
          | HOMO-LUMO GAP               4.675828877121 eV   |
           -------------------------------------------------

 * finished run on 2024/12/20 at 02:09:12.289
