   * xtb version 6.7.1 (edcfbbe) compiled by 'conda@3ef47c1a292c' on 2024-11-25

   ID    Z sym.   atoms
    1    6 C      1-7, 9, 10, 12-19
    2    7 N      8, 11
    3    1 H      20-36

          program call               : xtb C0181.xyz --opt --namespace C0181 --charge +1
          :  Hamiltonian                  GFN2-xTB          :
 * total energy  :   -50.5234391 Eh     change       -0.1784009E-08 Eh
 * total energy  :   -50.5285290 Eh     change       -0.5089893E-02 Eh
 * total energy  :   -50.5292897 Eh     change       -0.7606992E-03 Eh
 * total energy  :   -50.5294206 Eh     change       -0.1309551E-03 Eh
 * total energy  :   -50.5294749 Eh     change       -0.5428530E-04 Eh
 * total energy  :   -50.5294829 Eh     change       -0.8031779E-05 Eh
 * total energy  :   -50.5294891 Eh     change       -0.6181300E-05 Eh
 * total energy  :   -50.5294967 Eh     change       -0.7623608E-05 Eh
 * total energy  :   -50.5295056 Eh     change       -0.8904408E-05 Eh
 * total energy  :   -50.5295146 Eh     change       -0.8978303E-05 Eh
 * total energy  :   -50.5295213 Eh     change       -0.6707197E-05 Eh
 * total energy  :   -50.5295250 Eh     change       -0.3657439E-05 Eh
   *** GEOMETRY OPTIMIZATION CONVERGED AFTER 12 ITERATIONS ***

 final structure:
================
36
 xtb: 6.7.1 (edcfbbe)
C            1.24321866619235       -0.37127160752398        0.39179548001423
C            0.96269443394141        0.96616991518995        0.16557589485935
C           -0.33424927126907        1.36615454591832       -0.10330662658439
C           -1.35804572200323        0.42841889095886       -0.15010930451530
C           -1.07384922846412       -0.91013348062435        0.08299378687443
C            0.22510024054771       -1.30865452114148        0.34840205100041
C           -2.77833013801266        0.87398061593789       -0.42340851009225
N           -3.35787502188730        1.44610843637883        0.77691296281406
C           -3.44373382258541        2.76999506102206        1.07457440750271
C           -3.97461997538171        2.87142576740296        2.32518793760229
N           -4.19312228298034        1.60682037042386        2.77589160192889
C           -3.81470814833691        0.76129888591271        1.82219086062308
C           -4.84352548053446        1.25565992721110        4.02369455311006
C           -6.34423883966453        1.24612495950007        3.82485932270292
C           -7.09660383978245        2.37886925930201        4.10378431659670
C           -8.46430234794753        2.37419206107073        3.89012706145420
C           -9.08491776260612        1.24179188328564        3.39034064482611
C           -8.33741254762722        0.11030259079510        3.10866746203996
C           -6.97031460201603        0.11281971320189        3.32207351125647
H            2.25534751508786       -0.68309736576338        0.59573854861552
H            1.75432217149424        1.69841773726191        0.19248806471752
H           -0.54744167376101        2.40885408728677       -0.28932131281001
H           -1.86320858985772       -1.64666474718639        0.03791097362125
H            0.44090484627959       -2.35204932335527        0.51709534592269
H           -2.79822064752063        1.63644778839020       -1.20411024535649
H           -3.38850830785511        0.02460324029855       -0.73754065144823
H           -3.13598383472014        3.53674883534017        0.39353833097088
H           -4.20389493166723        3.73922827938522        2.90857111159659
H           -3.86197222730179       -0.30794629689083        1.88534044607359
H           -4.49053896741130        0.27049113348207        4.33442184760996
H           -4.56197991541173        1.99316055108583        4.77730993580332
H           -6.61873349435277        3.26138052638592        4.50337198876466
H           -9.04436326504897        3.25482456929641        4.11714635099489
H          -10.15080335303591        1.23848886811998        3.22559202702979
H           -8.81848839054245       -0.77646291851655        2.72657070020219
H           -6.39240124395711       -0.77599823884255        3.11249912367947

          :  Hamiltonian                  GFN2-xTB          :
         :: total energy             -50.529524988132 Eh    ::
         :: gradient norm              0.000256797228 Eh/a0 ::
         :: HOMO-LUMO gap              3.233544691125 eV    ::
         :: SCC energy               -51.442015546366 Eh    ::
         :: -> dispersion             -0.034923736552 Eh    ::
         :: repulsion energy           0.912490558235 Eh    ::

    * Orbital Energies and Occupations

         #    Occupation            Energy/Eh            Energy/eV
      -------------------------------------------------------------
         1        2.0000           -0.8869371             -24.1348
       ...           ...                  ...                  ...
        35        2.0000           -0.5898803             -16.0515
        36        2.0000           -0.5893248             -16.0363
        37        2.0000           -0.5888088             -16.0223
        38        2.0000           -0.5846157             -15.9082
        39        2.0000           -0.5787226             -15.7478
        40        2.0000           -0.5389419             -14.6654
        41        2.0000           -0.5369680             -14.6116
        42        2.0000           -0.5339897             -14.5306
        43        2.0000           -0.5336472             -14.5213
        44        2.0000           -0.5189397             -14.1211
        45        2.0000           -0.5184076             -14.1066
        46        2.0000           -0.5183611             -14.1053
        47        2.0000           -0.5180197             -14.0960 (HOMO)
        48                         -0.3991892             -10.8625 (LUMO)
        49                         -0.3638489              -9.9008
        50                         -0.3427653              -9.3271
        51                         -0.3413744              -9.2893
        52                         -0.3364687              -9.1558
        53                         -0.3362119              -9.1488
        54                         -0.2163580              -5.8874
        55                         -0.2111508              -5.7457
        56                         -0.1578698              -4.2959
        57                         -0.1132888              -3.0827
        58                         -0.0456264              -1.2416
       ...                                ...                  ...
        93                          0.5504561              14.9787
      -------------------------------------------------------------
                  HL-Gap            0.1188306 Eh            3.2335 eV

     #   Z          covCN         q      C6AA      α(0)
     1   6 C        2.920    -0.020    28.505     8.755
     2   6 C        2.919    -0.022    28.552     8.762
     3   6 C        2.923    -0.036    28.897     8.815
     4   6 C        2.973    -0.003    28.107     8.696
     5   6 C        2.922    -0.037    28.919     8.819
     6   6 C        2.919    -0.022    28.555     8.763
     7   6 C        3.747    -0.029    21.151     6.560
     8   7 N        2.871     0.065    20.102     6.659
     9   6 C        3.075    -0.005    28.078     8.688
    10   6 C        3.076    -0.006    28.092     8.690
    11   7 N        2.872     0.066    20.088     6.657
    12   6 C        3.104     0.048    26.789     8.481
    13   6 C        3.747    -0.028    21.146     6.559
    14   6 C        2.973    -0.003    28.086     8.693
    15   6 C        2.923    -0.035    28.865     8.811
    16   6 C        2.920    -0.021    28.540     8.761
    17   6 C        2.920    -0.020    28.500     8.754
    18   6 C        2.919    -0.022    28.560     8.764
    19   6 C        2.923    -0.037    28.931     8.821
    20   1 H        0.926     0.060     2.204     2.321
    21   1 H        0.926     0.057     2.240     2.340
    22   1 H        0.926     0.039     2.468     2.457
    23   1 H        0.926     0.038     2.470     2.458
    24   1 H        0.926     0.057     2.237     2.339
    25   1 H        0.924     0.090     1.877     2.142
    26   1 H        0.924     0.084     1.935     2.175
    27   1 H        0.926     0.105     1.743     2.064
    28   1 H        0.926     0.106     1.735     2.060
    29   1 H        0.926     0.109     1.703     2.041
    30   1 H        0.924     0.084     1.939     2.177
    31   1 H        0.924     0.090     1.878     2.143
    32   1 H        0.926     0.042     2.426     2.436
    33   1 H        0.926     0.058     2.224     2.332
    34   1 H        0.926     0.060     2.201     2.320
    35   1 H        0.926     0.056     2.250     2.345
    36   1 H        0.926     0.034     2.524     2.485

Wiberg/Mayer (AO) data.
largest (>0.10) Wiberg bond orders for each atom

     #   Z sym  total        # sym  WBO       # sym  WBO       # sym  WBO
 ---------------------------------------------------------------------------
     1   6 C    3.988 --     6 C    1.441     2 C    1.437    20 H    0.969
                             4 C    0.109
     2   6 C    3.990 --     3 C    1.445     1 C    1.437    21 H    0.969
                             5 C    0.111
     3   6 C    3.992 --     2 C    1.445     4 C    1.413    22 H    0.969
                             6 C    0.111
     4   6 C    3.977 --     5 C    1.416     3 C    1.413     7 C    0.977
                             1 C    0.109
     5   6 C    3.991 --     6 C    1.441     4 C    1.416    23 H    0.968
                             2 C    0.111
     6   6 C    3.990 --     1 C    1.441     5 C    1.441    24 H    0.969
                             3 C    0.111
     7   6 C    3.934 --     4 C    0.977    25 H    0.962    26 H    0.962
                             8 N    0.957
     8   7 N    3.715 --    12 C    1.358     9 C    1.233     7 C    0.957
     9   6 C    3.949 --    10 C    1.584     8 N    1.233    27 H    0.961
    10   6 C    3.949 --     9 C    1.584    11 N    1.232    28 H    0.961
    11   7 N    3.717 --    12 C    1.362    10 C    1.232    13 C    0.957
    12   6 C    3.944 --    11 N    1.362     8 N    1.358    29 H    0.955
    13   6 C    3.934 --    14 C    0.975    30 H    0.963    31 H    0.962
                            11 N    0.957
    14   6 C    3.977 --    15 C    1.416    19 C    1.413    13 C    0.975
                            17 C    0.109
    15   6 C    3.991 --    16 C    1.441    14 C    1.416    32 H    0.968
                            18 C    0.110
    16   6 C    3.989 --    15 C    1.441    17 C    1.440    33 H    0.969
                            19 C    0.111
    17   6 C    3.988 --    16 C    1.440    18 C    1.437    34 H    0.969
                            14 C    0.109
    18   6 C    3.990 --    19 C    1.445    17 C    1.437    35 H    0.969
                            15 C    0.110
    19   6 C    3.992 --    18 C    1.445    14 C    1.413    36 H    0.969
                            16 C    0.111
    20   1 H    0.996 --     1 C    0.969
    21   1 H    0.996 --     2 C    0.969
    22   1 H    0.999 --     3 C    0.969
    23   1 H    0.999 --     5 C    0.968
    24   1 H    0.996 --     6 C    0.969
    25   1 H    0.991 --     7 C    0.962
    26   1 H    0.992 --     7 C    0.962
    27   1 H    0.989 --     9 C    0.961
    28   1 H    0.989 --    10 C    0.961
    29   1 H    0.988 --    12 C    0.955
    30   1 H    0.992 --    13 C    0.963
    31   1 H    0.991 --    13 C    0.962
    32   1 H    0.998 --    15 C    0.968
    33   1 H    0.996 --    16 C    0.969
    34   1 H    0.996 --    17 C    0.969
    35   1 H    0.996 --    18 C    0.969
    36   1 H    0.999 --    19 C    0.969
 ---------------------------------------------------------------------------

molecular dipole:
                 x           y           z       tot (Debye)
 q only:       -7.214       2.527       3.416
   full:       -7.209       2.494       3.408      21.237

           -------------------------------------------------
          | TOTAL ENERGY              -50.529524988132 Eh   |
          | GRADIENT NORM               0.000256797228 Eh/α |
          | HOMO-LUMO GAP               3.233544691125 eV   |
           -------------------------------------------------

 * finished run on 2024/12/20 at 02:09:08.645
