   * xtb version 6.7.1 (edcfbbe) compiled by 'conda@3ef47c1a292c' on 2024-11-25

   ID    Z sym.   atoms
    1    6 C      1-16, 18-20
    2    7 N      17
    3    1 H      21-62

          program call               : xtb C0186.xyz --opt --namespace C0186 --charge +1
          :  Hamiltonian                  GFN2-xTB          :
 * total energy  :   -64.6452646 Eh     change       -0.7618439E-10 Eh
 * total energy  :   -64.6516137 Eh     change       -0.6349179E-02 Eh
 * total energy  :   -64.6530230 Eh     change       -0.1409261E-02 Eh
 * total energy  :   -64.6531094 Eh     change       -0.8639810E-04 Eh
 * total energy  :   -64.6532481 Eh     change       -0.1387107E-03 Eh
 * total energy  :   -64.6533106 Eh     change       -0.6248340E-04 Eh
 * total energy  :   -64.6534438 Eh     change       -0.1331897E-03 Eh
 * total energy  :   -64.6535366 Eh     change       -0.9276155E-04 Eh
 * total energy  :   -64.6535853 Eh     change       -0.4871255E-04 Eh
 * total energy  :   -64.6537020 Eh     change       -0.1167685E-03 Eh
 * total energy  :   -64.6545847 Eh     change       -0.1883251E-04 Eh
 * total energy  :   -64.6546043 Eh     change       -0.1953887E-04 Eh
 * total energy  :   -64.6546249 Eh     change       -0.2067110E-04 Eh
 * total energy  :   -64.6546448 Eh     change       -0.1989092E-04 Eh
 * total energy  :   -64.6546617 Eh     change       -0.1691643E-04 Eh
 * total energy  :   -64.6546743 Eh     change       -0.1251765E-04 Eh
 * total energy  :   -64.6546830 Eh     change       -0.8782877E-05 Eh
 * total energy  :   -64.6546885 Eh     change       -0.5473123E-05 Eh
 * total energy  :   -64.6546917 Eh     change       -0.3236261E-05 Eh
   *** GEOMETRY OPTIMIZATION CONVERGED AFTER 43 ITERATIONS ***

 final structure:
================
62
 xtb: 6.7.1 (edcfbbe)
C            1.50105070932905       -0.25428716006683       -0.57625270745623
C            1.39864637749036       -1.70129907845997       -0.10906329599576
C            1.60980419594980       -1.86557787651784        1.39674584520796
C            0.58839647448861       -1.14004546044195        2.27483234539368
C           -0.86696228753713       -1.55613343203530        2.05362493178159
C           -1.15866032889096       -3.03967895366939        2.28801742382261
C           -0.80738563518406       -3.55505511232668        3.68524244341353
C           -1.48006192900103       -2.80704732080948        4.83765229905764
C           -3.00912080228078       -2.80202023570395        4.79922077228079
C           -3.66171144393669       -4.18459156830391        4.85409243522363
C           -3.31574340425134       -5.01343094636324        6.09315971579445
C           -3.63348790931705       -4.33776088527944        7.42868587332420
C           -5.09467342797978       -3.92230738966321        7.61091340669790
C           -6.11141832931936       -5.06331025059559        7.52269502127729
C           -5.92433743519974       -6.16608334847360        8.57174731820015
C           -6.13854676934246       -5.70918030280695       10.01979130443475
N           -7.46838260456866       -6.02541621677867       10.63116697645353
C           -7.61663312892097       -7.47887182967566       10.82554954166552
C           -7.53462841043408       -5.36674600275236       11.95042424757223
C           -8.57383578022027       -5.52338817015911        9.79762926432200
H            0.69006590034062        0.34711116048915       -0.17347161305429
H            1.45039080868989       -0.20463856567149       -1.66154322827055
H            2.44520771459122        0.18230991799658       -0.25769063592476
H            0.42717405612164       -2.10826294738552       -0.39510920920272
H            2.16097870670983       -2.29183243510858       -0.62322129290196
H            1.60113317846065       -2.93103178815646        1.63637082955830
H            2.60268958568431       -1.48556091500931        1.65134118092869
H            0.85742663934465       -1.30805301403255        3.32004765870574
H            0.66511665329283       -0.06570062347389        2.09673336976321
H           -1.49757191364122       -0.95508325766530        2.71298140697675
H           -1.15743789570426       -1.31179713988447        1.03010344890669
H           -2.21979687756148       -3.21404482545166        2.09400276106406
H           -0.60232348222679       -3.63284737836782        1.55977316848668
H           -1.07193501168778       -4.61398071178600        3.73580004016052
H            0.27298327102161       -3.49147851240345        3.82781664401757
H           -1.14062999467805       -3.24897710278781        5.77752149664814
H           -1.14005167833432       -1.77000825386826        4.83486261865901
H           -3.37083498839948       -2.19488584038361        5.63269681513125
H           -3.34044460503815       -2.31004238832056        3.88341546942990
H           -4.74516301855068       -4.05527728510974        4.79147324423670
H           -3.36077324604163       -4.75519694384323        3.97429980663832
H           -3.84349952198732       -5.96837044475354        6.02762209528266
H           -2.24919777453436       -5.24181088846276        6.08050395933060
H           -3.33408776676898       -5.00825813353730        8.23862284116930
H           -3.02068038402211       -3.44086807145713        7.52355882008361
H           -5.18599131187612       -3.40648628640475        8.57122340101903
H           -5.35079158897497       -3.19408257037717        6.84147463484509
H           -7.11409588514535       -4.63679599634817        7.58757742450709
H           -6.02570516614650       -5.52658140272466        6.54014134681610
H           -6.57361030176275       -7.00575251922922        8.32334659624712
H           -4.90297231577004       -6.53608710494059        8.48657580179964
H           -5.38540358409326       -6.16382815405492       10.66561862926938
H           -6.00677649092628       -4.62688498094565       10.06604307125193
H           -6.82607689791497       -7.85333293619385       11.47315271524695
H           -8.57844725654758       -7.69821101465554       11.28545729624655
H           -7.56241391745667       -8.00286187587547        9.87426759308645
H           -7.46995791914920       -4.28579244516059       11.83820713689543
H           -8.47452133151014       -5.60813181087692       12.44419018010693
H           -6.71412623263764       -5.70082674992511       12.58311853225308
H           -8.46129381745072       -4.45328946997052        9.63473345687483
H           -8.58681361045426       -6.02833995591801        8.83502717649650
H           -9.52570885798710       -5.70189679729281       10.29515814874887

          :  Hamiltonian                  GFN2-xTB          :
         :: total energy             -64.654691748198 Eh    ::
         :: gradient norm              0.000318172483 Eh/a0 ::
         :: HOMO-LUMO gap              6.088056937332 eV    ::
         :: SCC energy               -65.597135489001 Eh    ::
         :: -> dispersion             -0.050049461669 Eh    ::
         :: repulsion energy           0.942443740803 Eh    ::

    * Orbital Energies and Occupations

         #    Occupation            Energy/Eh            Energy/eV
      -------------------------------------------------------------
         1        2.0000           -0.8697113             -23.6660
       ...           ...                  ...                  ...
        49        2.0000           -0.5131084             -13.9624
        50        2.0000           -0.5078340             -13.8189
        51        2.0000           -0.5041360             -13.7182
        52        2.0000           -0.4971497             -13.5281
        53        2.0000           -0.4918241             -13.3832
        54        2.0000           -0.4880407             -13.2803
        55        2.0000           -0.4835136             -13.1571
        56        2.0000           -0.4739014             -12.8955
        57        2.0000           -0.4725030             -12.8575
        58        2.0000           -0.4693293             -12.7711
        59        2.0000           -0.4590999             -12.4927
        60        2.0000           -0.4541128             -12.3570
        61        2.0000           -0.4527464             -12.3199 (HOMO)
        62                         -0.2290144              -6.2318 (LUMO)
        63                         -0.1620774              -4.4104
        64                         -0.1505053              -4.0955
        65                         -0.1449638              -3.9447
        66                         -0.0705292              -1.9192
        67                         -0.0654560              -1.7811
        68                         -0.0364904              -0.9930
        69                         -0.0301486              -0.8204
        70                         -0.0116518              -0.3171
        71                         -0.0030583              -0.0832
        72                          0.0034020               0.0926
       ...                                ...                  ...
       122                          0.2676112               7.2821
      -------------------------------------------------------------
                  HL-Gap            0.2237320 Eh            6.0881 eV

     #   Z          covCN         q      C6AA      α(0)
     1   6 C        3.751    -0.102    22.503     6.765
     2   6 C        3.799    -0.052    21.508     6.603
     3   6 C        3.800    -0.057    21.599     6.617
     4   6 C        3.800    -0.057    21.595     6.616
     5   6 C        3.800    -0.056    21.587     6.615
     6   6 C        3.800    -0.057    21.591     6.616
     7   6 C        3.800    -0.057    21.593     6.616
     8   6 C        3.800    -0.057    21.602     6.617
     9   6 C        3.800    -0.058    21.613     6.619
    10   6 C        3.800    -0.058    21.627     6.621
    11   6 C        3.800    -0.059    21.645     6.624
    12   6 C        3.800    -0.061    21.683     6.630
    13   6 C        3.800    -0.063    21.711     6.634
    14   6 C        3.800    -0.070    21.843     6.654
    15   6 C        3.799    -0.073    21.902     6.663
    16   6 C        3.761    -0.044    21.402     6.595
    17   7 N        3.622     0.145    18.790     6.438
    18   6 C        3.722    -0.096    22.456     6.767
    19   6 C        3.730    -0.098    22.471     6.767
    20   6 C        3.721    -0.096    22.444     6.766
    21   1 H        0.925     0.034     2.534     2.489
    22   1 H        0.925     0.032     2.557     2.501
    23   1 H        0.925     0.034     2.530     2.487
    24   1 H        0.924     0.030     2.587     2.515
    25   1 H        0.924     0.027     2.624     2.533
    26   1 H        0.924     0.028     2.620     2.531
    27   1 H        0.924     0.029     2.603     2.523
    28   1 H        0.924     0.027     2.632     2.537
    29   1 H        0.924     0.032     2.558     2.501
    30   1 H        0.924     0.025     2.652     2.547
    31   1 H        0.924     0.033     2.550     2.497
    32   1 H        0.924     0.025     2.658     2.550
    33   1 H        0.924     0.033     2.543     2.494
    34   1 H        0.924     0.025     2.660     2.551
    35   1 H        0.924     0.033     2.538     2.491
    36   1 H        0.924     0.024     2.669     2.555
    37   1 H        0.924     0.035     2.517     2.481
    38   1 H        0.924     0.023     2.684     2.562
    39   1 H        0.924     0.037     2.486     2.466
    40   1 H        0.924     0.023     2.686     2.563
    41   1 H        0.924     0.039     2.460     2.453
    42   1 H        0.924     0.023     2.695     2.567
    43   1 H        0.924     0.042     2.426     2.436
    44   1 H        0.924     0.021     2.717     2.578
    45   1 H        0.924     0.047     2.360     2.402
    46   1 H        0.924     0.019     2.752     2.594
    47   1 H        0.925     0.054     2.272     2.357
    48   1 H        0.924     0.032     2.565     2.505
    49   1 H        0.925     0.062     2.179     2.309
    50   1 H        0.925     0.048     2.351     2.398
    51   1 H        0.925     0.078     1.996     2.209
    52   1 H        0.924     0.080     1.977     2.199
    53   1 H        0.924     0.094     1.844     2.123
    54   1 H        0.925     0.099     1.797     2.096
    55   1 H        0.925     0.098     1.800     2.098
    56   1 H        0.925     0.101     1.772     2.082
    57   1 H        0.925     0.099     1.790     2.092
    58   1 H        0.925     0.100     1.783     2.088
    59   1 H        0.925     0.099     1.796     2.096
    60   1 H        0.925     0.100     1.783     2.088
    61   1 H        0.925     0.106     1.734     2.059
    62   1 H        0.925     0.096     1.818     2.108

Wiberg/Mayer (AO) data.
largest (>0.10) Wiberg bond orders for each atom

     #   Z sym  total        # sym  WBO       # sym  WBO       # sym  WBO
 ---------------------------------------------------------------------------
     1   6 C    3.997 --     2 C    1.020    23 H    0.988    22 H    0.987
                            21 H    0.986
     2   6 C    3.998 --     1 C    1.020     3 C    1.008    25 H    0.978
                            24 H    0.976
     3   6 C    3.998 --     2 C    1.008     4 C    1.008    27 H    0.977
                            26 H    0.976
     4   6 C    3.998 --     5 C    1.008     3 C    1.008    29 H    0.975
                            28 H    0.975
     5   6 C    3.998 --     4 C    1.008     6 C    1.008    30 H    0.975
                            31 H    0.975
     6   6 C    3.997 --     5 C    1.008     7 C    1.008    32 H    0.976
                            33 H    0.975
     7   6 C    3.997 --     8 C    1.008     6 C    1.008    34 H    0.976
                            35 H    0.975
     8   6 C    3.997 --     9 C    1.008     7 C    1.008    36 H    0.975
                            37 H    0.974
     9   6 C    3.997 --     8 C    1.008    10 C    1.008    38 H    0.975
                            39 H    0.974
    10   6 C    3.997 --     9 C    1.008    11 C    1.007    40 H    0.976
                            41 H    0.974
    11   6 C    3.997 --    12 C    1.007    10 C    1.007    42 H    0.976
                            43 H    0.974
    12   6 C    3.996 --    11 C    1.007    13 C    1.007    44 H    0.975
                            45 H    0.973
    13   6 C    3.994 --    14 C    1.007    12 C    1.007    46 H    0.972
                            47 H    0.971
    14   6 C    3.992 --    13 C    1.007    15 C    1.005    48 H    0.975
                            49 H    0.970
    15   6 C    3.983 --    14 C    1.005    16 C    1.003    50 H    0.965
                            51 H    0.964
    16   6 C    3.922 --    15 C    1.003    52 H    0.970    53 H    0.959
                            17 N    0.919
    17   7 N    3.816 --    18 C    0.959    19 C    0.958    20 C    0.958
                            16 C    0.919
    18   6 C    3.928 --    54 H    0.975    55 H    0.975    56 H    0.970
                            17 N    0.959
    19   6 C    3.928 --    59 H    0.975    57 H    0.975    58 H    0.974
                            17 N    0.958
    20   6 C    3.926 --    62 H    0.975    60 H    0.974    61 H    0.971
                            17 N    0.958
    21   1 H    0.999 --     1 C    0.986
    22   1 H    0.999 --     1 C    0.987
    23   1 H    0.999 --     1 C    0.988
    24   1 H    0.999 --     2 C    0.976
    25   1 H    0.999 --     2 C    0.978
    26   1 H    0.999 --     3 C    0.976
    27   1 H    0.999 --     3 C    0.977
    28   1 H    0.999 --     4 C    0.975
    29   1 H    0.999 --     4 C    0.975
    30   1 H    0.999 --     5 C    0.975
    31   1 H    0.999 --     5 C    0.975
    32   1 H    0.999 --     6 C    0.976
    33   1 H    0.999 --     6 C    0.975
    34   1 H    0.999 --     7 C    0.976
    35   1 H    0.999 --     7 C    0.975
    36   1 H    0.999 --     8 C    0.975
    37   1 H    0.999 --     8 C    0.974
    38   1 H    0.999 --     9 C    0.975
    39   1 H    0.999 --     9 C    0.974
    40   1 H    0.999 --    10 C    0.976
    41   1 H    0.998 --    10 C    0.974
    42   1 H    0.999 --    11 C    0.976
    43   1 H    0.998 --    11 C    0.974
    44   1 H    1.000 --    12 C    0.975
    45   1 H    0.998 --    12 C    0.973
    46   1 H    1.000 --    13 C    0.972
    47   1 H    0.997 --    13 C    0.971
    48   1 H    0.999 --    14 C    0.975
    49   1 H    0.996 --    14 C    0.970
    50   1 H    0.998 --    15 C    0.965
    51   1 H    0.994 --    15 C    0.964
    52   1 H    0.994 --    16 C    0.970
    53   1 H    0.991 --    16 C    0.959
    54   1 H    0.990 --    18 C    0.975
    55   1 H    0.990 --    18 C    0.975
    56   1 H    0.990 --    18 C    0.970
    57   1 H    0.990 --    19 C    0.975
    58   1 H    0.990 --    19 C    0.974
    59   1 H    0.990 --    19 C    0.975
    60   1 H    0.990 --    20 C    0.974
    61   1 H    0.989 --    20 C    0.971
    62   1 H    0.991 --    20 C    0.975
 ---------------------------------------------------------------------------

molecular dipole:
                 x           y           z       tot (Debye)
 q only:      -13.616     -11.139      19.356
   full:      -13.672     -11.177      19.486      66.841

           -------------------------------------------------
          | TOTAL ENERGY              -64.654691748198 Eh   |
          | GRADIENT NORM               0.000318172483 Eh/α |
          | HOMO-LUMO GAP               6.088056937332 eV   |
           -------------------------------------------------

 * finished run on 2024/12/20 at 02:09:26.514
