   * xtb version 6.7.1 (edcfbbe) compiled by 'conda@3ef47c1a292c' on 2024-11-25

   ID    Z sym.   atoms
    1    6 C      1-16, 18-23
    2    7 N      17
    3    1 H      24-69

          program call               : xtb C0184.xyz --opt --namespace C0184 --charge +1
          :  Hamiltonian                  GFN2-xTB          :
 * total energy  :   -73.1316818 Eh     change       -0.1329568E-09 Eh
 * total energy  :   -73.1385972 Eh     change       -0.6915363E-02 Eh
 * total energy  :   -73.1403172 Eh     change       -0.1720038E-02 Eh
 * total energy  :   -73.1405196 Eh     change       -0.2023717E-03 Eh
 * total energy  :   -73.1408429 Eh     change       -0.3232953E-03 Eh
 * total energy  :   -73.1410058 Eh     change       -0.1629266E-03 Eh
 * total energy  :   -73.1411742 Eh     change       -0.1684095E-03 Eh
 * total energy  :   -73.1413007 Eh     change       -0.1264937E-03 Eh
 * total energy  :   -73.1414132 Eh     change       -0.1124349E-03 Eh
 * total energy  :   -73.1414748 Eh     change       -0.6166360E-04 Eh
 * total energy  :   -73.1470960 Eh     change       -0.1922862E-04 Eh
 * total energy  :   -73.1471141 Eh     change       -0.1809863E-04 Eh
 * total energy  :   -73.1471291 Eh     change       -0.1494446E-04 Eh
 * total energy  :   -73.1471408 Eh     change       -0.1173069E-04 Eh
 * total energy  :   -73.1471504 Eh     change       -0.9570200E-05 Eh
 * total energy  :   -73.1471581 Eh     change       -0.7731007E-05 Eh
 * total energy  :   -73.1471643 Eh     change       -0.6201401E-05 Eh
 * total energy  :   -73.1471696 Eh     change       -0.5290535E-05 Eh
 * total energy  :   -73.1471745 Eh     change       -0.4850285E-05 Eh
   *** GEOMETRY OPTIMIZATION CONVERGED AFTER 90 ITERATIONS ***

 final structure:
================
69
 xtb: 6.7.1 (edcfbbe)
C           -0.36312558868439       -0.67609357495998       -0.36809668699746
C           -0.50405313813062        0.61380977929090       -1.18746560804983
C            0.61361808157895        1.62955488882836       -0.92533866331101
C            0.58193013478226        2.78841986725349       -1.92382380506134
C           -0.69006691844372        3.62888489232838       -1.83618510624353
C           -0.65079155483517        4.86083618075279       -2.74214908398513
C           -0.50082960461674        4.55758475260636       -4.23525283631338
C           -1.54003386919273        3.59355236723224       -4.81140144729001
C           -2.99446498218034        4.03778399003335       -4.64647055086770
C           -3.34224107546100        5.36351469083818       -5.32498293075969
C           -3.10724880951420        5.39779574566866       -6.83631065109613
C           -3.85099251899118        4.32316423333265       -7.63213179995614
C           -5.37111276049969        4.32597017692653       -7.45910038762131
C           -6.06331932455555        5.63351340056061       -7.84848015514288
C           -5.85732482201231        6.06496332239066       -9.30107833619059
C           -6.41196292241001        5.06625288402680      -10.30998406867540
N            0.12855755389910       -1.88323264909840       -1.10718464001741
C            0.28742119392765       -2.98180743100404       -0.10826478726745
C            0.63187366253171       -4.33188646121708       -0.72719519885379
C           -0.42284976022729       -4.73459217218786       -1.75163171261083
C           -0.56528105668323       -3.62988355046689       -2.79215462454212
C           -0.88354817219466       -2.29909534803223       -2.11992509657021
C            1.42322620303642       -1.58303659011747       -1.74061797869863
H           -1.32830130076963       -0.94475350683231        0.06526053433816
H            0.33043706670393       -0.49427931376262        0.45623353028477
H           -0.55098376043997        0.40542244812855       -2.25637858139866
H           -1.45348274512285        1.07771050465068       -0.92232143062708
H            0.50843782403706        2.02270524106948        0.08725247113327
H            1.59013847580079        1.14578043650016       -0.99221958506484
H            1.44108005518627        3.43305030139580       -1.73131094220624
H            0.69035187277843        2.38978371018123       -2.93427448281865
H           -1.55848535597411        3.02419857502645       -2.09905042303963
H           -0.82043825042199        3.96427570361232       -0.80457260901490
H           -1.56681126639881        5.43128420612580       -2.58238049797655
H            0.18377899810634        5.49691837028396       -2.43861961609883
H           -0.55511404364538        5.50260560982222       -4.77675493543695
H            0.49320220682826        4.14424174803211       -4.42252707573183
H           -1.32622590051959        3.46075985434012       -5.87338489751632
H           -1.42584509002580        2.61221787611234       -4.34130093172715
H           -3.63761286834058        3.25220760606251       -5.04915091649767
H           -3.22765926826934        4.12755175511704       -3.58298784754465
H           -4.39257432074747        5.58037103543884       -5.12167269800834
H           -2.75846883353341        6.16607316872561       -4.86950907294229
H           -3.40499083537171        6.38219045074006       -7.20139852878844
H           -2.03856729658296        5.29531202740503       -7.03901976163737
H           -3.61118311973441        4.45762205617944       -8.68845210984007
H           -3.47647145454725        3.33693402173735       -7.34647390442883
H           -5.78348343912837        3.51203746023048       -8.05897664796782
H           -5.61656383766220        4.10813412076432       -6.41712531505668
H           -7.13525536296072        5.51282928654975       -7.67096976328581
H           -5.71608226270602        6.43515510949547       -7.19349478515302
H           -6.36135995133163        7.02402072816720       -9.44248561022016
H           -4.79543219897759        6.22634063923251       -9.49436933312106
H           -7.46006320328281        4.85962393804140      -10.10385138814598
H           -6.33462789603455        5.46728474682842      -11.31793031398608
H           -5.86282674019005        4.12848390103885      -10.27791125756936
H           -0.65852409357867       -3.07499988301404        0.43023317978020
H            1.06013551863122       -2.68631907122860        0.60403695639842
H            0.66991687765847       -5.06399067451551        0.07966462913319
H            1.61962726748317       -4.31423611378866       -1.18826721210404
H           -0.13944249572070       -5.66866493936862       -2.23336391141350
H           -1.37971528577930       -4.89585142173046       -1.25215456387937
H            0.34024538436488       -3.55875375624239       -3.39525087959464
H           -1.38524194550127       -3.85972048303326       -3.47292229926069
H           -0.96835910727835       -1.51616439597015       -2.87352940650132
H           -1.84312505340353       -2.38393363734206       -1.60484342873911
H            1.30966557494125       -0.78655234681612       -2.47124528257932
H            2.13667862152630       -1.26862707588501       -0.98133133830277
H            1.81691288861889       -2.46040341213816       -2.24450156005906

          :  Hamiltonian                  GFN2-xTB          :
         :: total energy             -73.147174453334 Eh    ::
         :: gradient norm              0.000207622374 Eh/a0 ::
         :: HOMO-LUMO gap              6.197519108751 eV    ::
         :: SCC energy               -74.208041262665 Eh    ::
         :: -> dispersion             -0.057776599598 Eh    ::
         :: repulsion energy           1.060866809330 Eh    ::

    * Orbital Energies and Occupations

         #    Occupation            Energy/Eh            Energy/eV
      -------------------------------------------------------------
         1        2.0000           -0.8569525             -23.3189
       ...           ...                  ...                  ...
        57        2.0000           -0.5147194             -14.0062
        58        2.0000           -0.5090334             -13.8515
        59        2.0000           -0.5055683             -13.7572
        60        2.0000           -0.4974104             -13.5352
        61        2.0000           -0.4945087             -13.4563
        62        2.0000           -0.4913923             -13.3715
        63        2.0000           -0.4877585             -13.2726
        64        2.0000           -0.4778155             -13.0020
        65        2.0000           -0.4767802             -12.9738
        66        2.0000           -0.4737497             -12.8914
        67        2.0000           -0.4641736             -12.6308
        68        2.0000           -0.4590486             -12.4913
        69        2.0000           -0.4576334             -12.4528 (HOMO)
        70                         -0.2298788              -6.2553 (LUMO)
        71                         -0.1645012              -4.4763
        72                         -0.1560875              -4.2474
        73                         -0.1372943              -3.7360
        74                         -0.0813726              -2.2143
        75                         -0.0697674              -1.8985
        76                         -0.0595048              -1.6192
        77                         -0.0532572              -1.4492
        78                         -0.0356438              -0.9699
        79                         -0.0287942              -0.7835
        80                         -0.0246891              -0.6718
       ...                                ...                  ...
       138                          0.2633052               7.1649
      -------------------------------------------------------------
                  HL-Gap            0.2277546 Eh            6.1975 eV

     #   Z          covCN         q      C6AA      α(0)
     1   6 C        3.763    -0.040    21.324     6.582
     2   6 C        3.800    -0.073    21.898     6.663
     3   6 C        3.801    -0.068    21.796     6.647
     4   6 C        3.802    -0.063    21.711     6.634
     5   6 C        3.801    -0.061    21.676     6.629
     6   6 C        3.801    -0.060    21.660     6.626
     7   6 C        3.800    -0.060    21.649     6.625
     8   6 C        3.800    -0.054    21.544     6.609
     9   6 C        3.800    -0.056    21.585     6.615
    10   6 C        3.800    -0.057    21.608     6.618
    11   6 C        3.800    -0.057    21.604     6.618
    12   6 C        3.800    -0.056    21.573     6.613
    13   6 C        3.800    -0.056    21.585     6.615
    14   6 C        3.801    -0.057    21.605     6.618
    15   6 C        3.799    -0.052    21.516     6.604
    16   6 C        3.751    -0.101    22.500     6.764
    17   7 N        3.621     0.120    19.192     6.507
    18   6 C        3.769    -0.033    21.196     6.561
    19   6 C        3.805    -0.072    21.874     6.658
    20   6 C        3.807    -0.072    21.869     6.657
    21   6 C        3.805    -0.072    21.880     6.659
    22   6 C        3.762    -0.032    21.184     6.561
    23   6 C        3.712    -0.089    22.335     6.753
    24   1 H        0.924     0.075     2.029     2.227
    25   1 H        0.924     0.084     1.941     2.179
    26   1 H        0.925     0.052     2.291     2.367
    27   1 H        0.925     0.072     2.067     2.248
    28   1 H        0.924     0.046     2.365     2.405
    29   1 H        0.924     0.032     2.552     2.498
    30   1 H        0.924     0.047     2.353     2.399
    31   1 H        0.924     0.036     2.507     2.476
    32   1 H        0.924     0.032     2.556     2.500
    33   1 H        0.924     0.032     2.555     2.500
    34   1 H        0.924     0.041     2.431     2.438
    35   1 H        0.924     0.033     2.539     2.492
    36   1 H        0.924     0.042     2.428     2.437
    37   1 H        0.924     0.025     2.660     2.551
    38   1 H        0.924     0.034     2.526     2.486
    39   1 H        0.924     0.012     2.866     2.647
    40   1 H        0.924     0.029     2.601     2.522
    41   1 H        0.924     0.025     2.654     2.548
    42   1 H        0.924     0.034     2.534     2.490
    43   1 H        0.924     0.030     2.592     2.518
    44   1 H        0.924     0.035     2.518     2.481
    45   1 H        0.924     0.026     2.638     2.540
    46   1 H        0.924     0.033     2.546     2.495
    47   1 H        0.924     0.022     2.710     2.574
    48   1 H        0.924     0.030     2.584     2.514
    49   1 H        0.924     0.025     2.652     2.547
    50   1 H        0.924     0.029     2.604     2.523
    51   1 H        0.924     0.029     2.595     2.519
    52   1 H        0.924     0.029     2.605     2.524
    53   1 H        0.924     0.031     2.576     2.510
    54   1 H        0.925     0.034     2.534     2.489
    55   1 H        0.925     0.033     2.548     2.496
    56   1 H        0.925     0.032     2.552     2.498
    57   1 H        0.924     0.082     1.957     2.188
    58   1 H        0.924     0.079     1.988     2.205
    59   1 H        0.925     0.078     2.003     2.213
    60   1 H        0.924     0.061     2.188     2.313
    61   1 H        0.925     0.070     2.083     2.257
    62   1 H        0.924     0.057     2.238     2.340
    63   1 H        0.924     0.060     2.193     2.316
    64   1 H        0.924     0.077     2.009     2.217
    65   1 H        0.925     0.082     1.955     2.187
    66   1 H        0.924     0.083     1.952     2.185
    67   1 H        0.925     0.101     1.779     2.086
    68   1 H        0.925     0.091     1.871     2.139
    69   1 H        0.925     0.100     1.789     2.092

Wiberg/Mayer (AO) data.
largest (>0.10) Wiberg bond orders for each atom

     #   Z sym  total        # sym  WBO       # sym  WBO       # sym  WBO
 ---------------------------------------------------------------------------
     1   6 C    3.930 --     2 C    1.001    24 H    0.970    25 H    0.966
                            17 N    0.926
     2   6 C    3.983 --     3 C    1.005     1 C    1.001    27 H    0.969
                            26 H    0.962
     3   6 C    3.993 --     2 C    1.005     4 C    1.005    28 H    0.977
                            29 H    0.975
     4   6 C    3.994 --     5 C    1.009     3 C    1.005    30 H    0.975
                            31 H    0.974
     5   6 C    3.997 --     4 C    1.009     6 C    1.006    33 H    0.977
                            32 H    0.973
     6   6 C    3.996 --     7 C    1.007     5 C    1.006    35 H    0.977
                            34 H    0.975
     7   6 C    3.997 --     8 C    1.008     6 C    1.007    37 H    0.976
                            36 H    0.974
     8   6 C    3.998 --     7 C    1.008     9 C    1.007    39 H    0.975
                            38 H    0.974
     9   6 C    3.998 --    10 C    1.008     8 C    1.007    41 H    0.975
                            40 H    0.975
    10   6 C    3.997 --    11 C    1.008     9 C    1.008    43 H    0.975
                            42 H    0.975
    11   6 C    3.997 --    10 C    1.008    12 C    1.008    45 H    0.975
                            44 H    0.975
    12   6 C    3.998 --    13 C    1.008    11 C    1.008    47 H    0.976
                            46 H    0.975
    13   6 C    3.998 --    12 C    1.008    14 C    1.008    48 H    0.975
                            49 H    0.975
    14   6 C    3.997 --    15 C    1.008    13 C    1.008    50 H    0.977
                            51 H    0.975
    15   6 C    3.998 --    16 C    1.020    14 C    1.008    52 H    0.978
                            53 H    0.976
    16   6 C    3.997 --    15 C    1.020    54 H    0.988    55 H    0.987
                            56 H    0.986
    17   7 N    3.805 --    23 C    0.962    22 C    0.932    18 C    0.931
                             1 C    0.926
    18   6 C    3.936 --    19 C    1.008    58 H    0.968    57 H    0.967
                            17 N    0.931
    19   6 C    3.986 --    20 C    1.009    18 C    1.008    60 H    0.970
                            59 H    0.965
    20   6 C    3.992 --    21 C    1.009    19 C    1.009    62 H    0.975
                            61 H    0.972
    21   6 C    3.987 --    20 C    1.009    22 C    1.008    63 H    0.970
                            64 H    0.966
    22   6 C    3.935 --    21 C    1.008    66 H    0.967    65 H    0.963
                            17 N    0.932
    23   6 C    3.930 --    68 H    0.975    67 H    0.971    69 H    0.967
                            17 N    0.962
    24   1 H    0.994 --     1 C    0.970
    25   1 H    0.993 --     1 C    0.966
    26   1 H    0.997 --     2 C    0.962
    27   1 H    0.995 --     2 C    0.969
    28   1 H    0.998 --     3 C    0.977
    29   1 H    0.999 --     3 C    0.975
    30   1 H    0.997 --     4 C    0.975
    31   1 H    0.999 --     4 C    0.974
    32   1 H    0.999 --     5 C    0.973
    33   1 H    0.999 --     5 C    0.977
    34   1 H    0.998 --     6 C    0.975
    35   1 H    0.999 --     6 C    0.977
    36   1 H    0.998 --     7 C    0.974
    37   1 H    0.999 --     7 C    0.976
    38   1 H    0.999 --     8 C    0.974
    39   1 H    1.000 --     8 C    0.975
    40   1 H    0.999 --     9 C    0.975
    41   1 H    0.999 --     9 C    0.975
    42   1 H    0.999 --    10 C    0.975
    43   1 H    0.999 --    10 C    0.975
    44   1 H    0.999 --    11 C    0.975
    45   1 H    0.999 --    11 C    0.975
    46   1 H    0.999 --    12 C    0.975
    47   1 H    1.000 --    12 C    0.976
    48   1 H    0.999 --    13 C    0.975
    49   1 H    0.999 --    13 C    0.975
    50   1 H    0.999 --    14 C    0.977
    51   1 H    0.999 --    14 C    0.975
    52   1 H    0.999 --    15 C    0.978
    53   1 H    0.999 --    15 C    0.976
    54   1 H    0.999 --    16 C    0.988
    55   1 H    0.999 --    16 C    0.987
    56   1 H    0.999 --    16 C    0.986
    57   1 H    0.993 --    18 C    0.967
    58   1 H    0.994 --    18 C    0.968
    59   1 H    0.994 --    19 C    0.965
    60   1 H    0.996 --    19 C    0.970
    61   1 H    0.994 --    20 C    0.972
    62   1 H    0.997 --    20 C    0.975
    63   1 H    0.996 --    21 C    0.970
    64   1 H    0.994 --    21 C    0.966
    65   1 H    0.993 --    22 C    0.963
    66   1 H    0.993 --    22 C    0.967
    67   1 H    0.990 --    23 C    0.971
    68   1 H    0.992 --    23 C    0.975
    69   1 H    0.990 --    23 C    0.967
 ---------------------------------------------------------------------------

molecular dipole:
                 x           y           z       tot (Debye)
 q only:        0.078      -3.362      -2.573
   full:        0.072      -3.348      -2.450      10.547

           -------------------------------------------------
          | TOTAL ENERGY              -73.147174453334 Eh   |
          | GRADIENT NORM               0.000207622374 Eh/α |
          | HOMO-LUMO GAP               6.197519108751 eV   |
           -------------------------------------------------

 * finished run on 2024/12/20 at 02:09:22.875
