   * xtb version 6.7.1 (edcfbbe) compiled by 'conda@3ef47c1a292c' on 2024-11-25

   ID    Z sym.   atoms
    1    6 C      1, 2, 4, 6-10, 12-14
    2    8 O      3, 5
    3    7 N      11
    4    1 H      15-30

          program call               : xtb C0185.xyz --opt --namespace C0185 --charge +1
          :  Hamiltonian                  GFN2-xTB          :
 * total energy  :   -42.3773965 Eh     change       -0.1321538E-09 Eh
 * total energy  :   -42.3822854 Eh     change       -0.4888892E-02 Eh
 * total energy  :   -42.3830483 Eh     change       -0.7628736E-03 Eh
 * total energy  :   -42.3832047 Eh     change       -0.1564719E-03 Eh
 * total energy  :   -42.3833166 Eh     change       -0.1119055E-03 Eh
 * total energy  :   -42.3833842 Eh     change       -0.6750856E-04 Eh
 * total energy  :   -42.3834482 Eh     change       -0.6404140E-04 Eh
 * total energy  :   -42.3835124 Eh     change       -0.6418786E-04 Eh
 * total energy  :   -42.3836032 Eh     change       -0.9084823E-04 Eh
 * total energy  :   -42.3836614 Eh     change       -0.5821539E-04 Eh
 * total energy  :   -42.3852941 Eh     change       -0.5179977E-04 Eh
 * total energy  :   -42.3853428 Eh     change       -0.4874329E-04 Eh
 * total energy  :   -42.3853659 Eh     change       -0.2306600E-04 Eh
 * total energy  :   -42.3853773 Eh     change       -0.1143523E-04 Eh
 * total energy  :   -42.3853804 Eh     change       -0.3068843E-05 Eh
 * total energy  :   -42.3853841 Eh     change       -0.3660384E-05 Eh
 * total energy  :   -42.3853910 Eh     change       -0.6943423E-05 Eh
 * total energy  :   -42.3853946 Eh     change       -0.3623914E-05 Eh
 * total energy  :   -42.3853966 Eh     change       -0.1987614E-05 Eh
   *** GEOMETRY OPTIMIZATION CONVERGED AFTER 41 ITERATIONS ***

 final structure:
================
30
 xtb: 6.7.1 (edcfbbe)
C            0.52672880830483       -0.10411330961701       -0.30529547365955
C            0.59734844343301       -0.83207299493306       -1.63831947207461
O            1.09615021245089       -2.17242112769861       -1.49799713575526
C            2.42957075842258       -2.30602895371959       -1.40207214439154
O            3.20086360470970       -1.39321095465061       -1.39443780273195
C            2.82270790326197       -3.77106799310336       -1.30934651973780
C            2.33161280829955       -4.40493331619451        0.00562362711898
C            0.84867025456618       -4.35557051590865        0.10781255029138
C            0.19998487483382       -3.57435752184460        1.06892646163828
C           -1.17230285227874       -3.51589977694484        1.10047504588438
N           -1.92108614978639       -4.20156202075249        0.22561050410165
C           -1.33185597389220       -4.97758525501078       -0.69248542655573
C            0.03640142400860       -5.07632102049366       -0.77281417033986
C           -3.36198376809906       -4.11220998787303        0.30472811177775
H           -0.11549719490393       -0.63374727835770        0.39549061506568
H            0.12666996664036        0.89235101765184       -0.46547777416379
H            1.52211241496335       -0.01000775175906        0.12067292458203
H           -0.39172531873501       -0.94882049800469       -2.08515912689479
H            1.25175691686403       -0.28756615703958       -2.32422850235861
H            2.40207735629619       -4.29501292637522       -2.16807465721385
H            3.90962639036824       -3.82881066935790       -1.35263272492922
H            2.66220870592202       -5.44623405498713        0.01900028656011
H            2.78969212468960       -3.88568999560494        0.84793381135286
H            0.77132874285303       -3.00385708838781        1.78456930658414
H           -1.69697325111797       -2.91291206595683        1.82760899914308
H           -1.97457420993139       -5.52036956846068       -1.36970808809205
H            0.47473597947808       -5.71248804418423       -1.52544872930234
H           -3.82036130608780       -4.55416291382648       -0.57693158041401
H           -3.72286214546521       -4.64216815083973        1.18838698634326
H           -3.67253552007597       -3.07027910575896        0.37906009817225

          :  Hamiltonian                  GFN2-xTB          :
         :: total energy             -42.385396607514 Eh    ::
         :: gradient norm              0.000806288780 Eh/a0 ::
         :: HOMO-LUMO gap              2.013582849888 eV    ::
         :: SCC energy               -42.980313139754 Eh    ::
         :: -> dispersion             -0.025358361636 Eh    ::
         :: repulsion energy           0.594916532240 Eh    ::

    * Orbital Energies and Occupations

         #    Occupation            Energy/Eh            Energy/eV
      -------------------------------------------------------------
         1        2.0000           -0.8789642             -23.9178
       ...           ...                  ...                  ...
        26        2.0000           -0.6344491             -17.2642
        27        2.0000           -0.6277852             -17.0829
        28        2.0000           -0.6223042             -16.9338
        29        2.0000           -0.6155647             -16.7504
        30        2.0000           -0.6131885             -16.6857
        31        2.0000           -0.6090357             -16.5727
        32        2.0000           -0.5946524             -16.1813
        33        2.0000           -0.5918540             -16.1052
        34        2.0000           -0.5853155             -15.9272
        35        2.0000           -0.5740841             -15.6216
        36        2.0000           -0.5570731             -15.1587
        37        2.0000           -0.5549326             -15.1005
        38        2.0000           -0.5275039             -14.3541 (HOMO)
        39                         -0.4535061             -12.3405 (LUMO)
        40                         -0.4239728             -11.5369
        41                         -0.3435314              -9.3480
        42                         -0.3053722              -8.3096
        43                         -0.1692997              -4.6069
        44                         -0.1139349              -3.1003
        45                         -0.0812275              -2.2103
        46                         -0.0507075              -1.3798
        47                         -0.0405660              -1.1039
        48                         -0.0345940              -0.9413
        49                         -0.0248029              -0.6749
       ...                                ...                  ...
        72                          0.5618260              15.2881
      -------------------------------------------------------------
                  HL-Gap            0.0739978 Eh            2.0136 eV

     #   Z          covCN         q      C6AA      α(0)
     1   6 C        3.750    -0.119    22.843     6.816
     2   6 C        3.697     0.074    19.501     6.316
     3   8 O        1.702    -0.293    18.876     5.866
     4   6 C        2.714     0.358    20.916     7.486
     5   8 O        0.856    -0.367    21.039     6.150
     6   6 C        3.804    -0.094    22.283     6.720
     7   6 C        3.808    -0.070    21.826     6.650
     8   6 C        2.974     0.074    26.332     8.417
     9   6 C        2.920    -0.019    28.484     8.752
    10   6 C        2.892     0.029    27.360     8.576
    11   7 N        2.748     0.111    19.341     6.532
    12   6 C        2.889     0.030    27.339     8.572
    13   6 C        2.921    -0.019    28.495     8.754
    14   6 C        3.709    -0.094    22.444     6.771
    15   1 H        0.925     0.035     2.512     2.478
    16   1 H        0.925     0.068     2.108     2.271
    17   1 H        0.925     0.071     2.075     2.253
    18   1 H        0.924     0.055     2.257     2.350
    19   1 H        0.924     0.074     2.046     2.237
    20   1 H        0.924     0.078     2.000     2.212
    21   1 H        0.925     0.098     1.803     2.100
    22   1 H        0.924     0.096     1.820     2.110
    23   1 H        0.924     0.081     1.972     2.196
    24   1 H        0.926     0.103     1.761     2.075
    25   1 H        0.926     0.106     1.730     2.057
    26   1 H        0.926     0.107     1.724     2.053
    27   1 H        0.926     0.104     1.751     2.069
    28   1 H        0.925     0.105     1.738     2.061
    29   1 H        0.924     0.111     1.690     2.033
    30   1 H        0.925     0.108     1.711     2.045

Wiberg/Mayer (AO) data.
largest (>0.10) Wiberg bond orders for each atom

     #   Z sym  total        # sym  WBO       # sym  WBO       # sym  WBO
 ---------------------------------------------------------------------------
     1   6 C    3.990 --     2 C    1.015    15 H    0.987    17 H    0.983
                            16 H    0.980
     2   6 C    3.918 --     1 C    1.015    18 H    0.973    19 H    0.968
                             3 O    0.926
     3   8 O    2.283 --     4 C    1.117     2 C    0.926     5 O    0.175
     4   6 C    3.922 --     5 O    1.796     3 O    1.117     6 C    0.959
     5   8 O    2.080 --     4 C    1.796     3 O    0.175
     6   6 C    3.986 --    21 H    0.967     7 C    0.960    20 H    0.960
                             4 C    0.959
     7   6 C    3.987 --     8 C    1.042    23 H    0.971     6 C    0.960
                            22 H    0.942
     8   6 C    3.968 --    13 C    1.367     9 C    1.362     7 C    1.042
     9   6 C    3.983 --    10 C    1.494     8 C    1.362    24 H    0.958
    10   6 C    3.958 --     9 C    1.494    11 N    1.308    25 H    0.956
    11   7 N    3.758 --    12 C    1.312    10 C    1.308    14 C    0.986
    12   6 C    3.958 --    13 C    1.489    11 N    1.312    26 H    0.954
    13   6 C    3.983 --    12 C    1.489     8 C    1.367    27 H    0.958
    14   6 C    3.931 --    11 N    0.986    28 H    0.973    30 H    0.964
                            29 H    0.956
    15   1 H    0.999 --     1 C    0.987
    16   1 H    0.995 --     1 C    0.980
    17   1 H    0.995 --     1 C    0.983
    18   1 H    0.997 --     2 C    0.973
    19   1 H    0.994 --     2 C    0.968
    20   1 H    0.994 --     6 C    0.960
    21   1 H    0.989 --     6 C    0.967
    22   1 H    0.990 --     7 C    0.942
    23   1 H    0.993 --     7 C    0.971
    24   1 H    0.989 --     9 C    0.958
    25   1 H    0.988 --    10 C    0.956
    26   1 H    0.988 --    12 C    0.954
    27   1 H    0.989 --    13 C    0.958
    28   1 H    0.989 --    14 C    0.973
    29   1 H    0.986 --    14 C    0.956
    30   1 H    0.988 --    14 C    0.964
 ---------------------------------------------------------------------------

molecular dipole:
                 x           y           z       tot (Debye)
 q only:       -2.309      -8.051       0.291
   full:       -2.464      -8.141       0.240      21.628

           -------------------------------------------------
          | TOTAL ENERGY              -42.385396607514 Eh   |
          | GRADIENT NORM               0.000806288780 Eh/α |
          | HOMO-LUMO GAP               2.013582849888 eV   |
           -------------------------------------------------

 * finished run on 2024/12/20 at 02:09:23.769
