   * xtb version 6.7.1 (edcfbbe) compiled by 'conda@3ef47c1a292c' on 2024-11-25

   ID    Z sym.   atoms
    1    8 O      1
    2    6 C      2-4, 6, 7, 9-12, 14, 15, 17, 18
    3    7 N      5, 8
    4   17 Cl     13, 16
    5    1 H      19-33

          program call               : xtb C0187.xyz --opt --namespace C0187 --charge +1
          :  Hamiltonian                  GFN2-xTB          :
 * total energy  :   -54.1448806 Eh     change       -0.3480828E-08 Eh
 * total energy  :   -54.1522952 Eh     change       -0.7414591E-02 Eh
 * total energy  :   -54.1535118 Eh     change       -0.1216597E-02 Eh
 * total energy  :   -54.1537709 Eh     change       -0.2590221E-03 Eh
 * total energy  :   -54.1540353 Eh     change       -0.2644657E-03 Eh
 * total energy  :   -54.1542003 Eh     change       -0.1649662E-03 Eh
 * total energy  :   -54.1543386 Eh     change       -0.1382908E-03 Eh
 * total energy  :   -54.1544945 Eh     change       -0.1559414E-03 Eh
 * total energy  :   -54.1546807 Eh     change       -0.1862110E-03 Eh
 * total energy  :   -54.1548771 Eh     change       -0.1963594E-03 Eh
 * total energy  :   -54.1560538 Eh     change       -0.7502282E-04 Eh
 * total energy  :   -54.1560979 Eh     change       -0.4402541E-04 Eh
 * total energy  :   -54.1561147 Eh     change       -0.1682036E-04 Eh
 * total energy  :   -54.1561330 Eh     change       -0.1827705E-04 Eh
 * total energy  :   -54.1561481 Eh     change       -0.1516082E-04 Eh
 * total energy  :   -54.1561604 Eh     change       -0.1227250E-04 Eh
 * total energy  :   -54.1561643 Eh     change       -0.3881360E-05 Eh
 * total energy  :   -54.1561680 Eh     change       -0.3701566E-05 Eh
 * total energy  :   -54.1561704 Eh     change       -0.2429428E-05 Eh
   *** GEOMETRY OPTIMIZATION CONVERGED AFTER 40 ITERATIONS ***

 final structure:
================
33
 xtb: 6.7.1 (edcfbbe)
O            3.04346166706929       -0.62937767560389       -0.92429464908747
C            3.10382791102019        0.55291035120716       -1.11494369596249
C            3.44428540716553        1.57526760940156       -0.06525804187804
C            3.63159628569681        0.97967304377167        1.33659029185680
N            4.68659219377893       -0.00875395384704        1.36438516925216
C            4.55279835411571       -1.33807516954455        1.49559954127478
C            3.27587275117403       -2.02831927749268        1.75051088588389
N            5.74657375346328       -1.92941748452470        1.37118195151463
C            6.69653125265524       -0.95463289391356        1.14273934543047
C            6.02034559108762        0.27664234557799        1.15281818053534
C            6.70143132911330        1.47541853536961        0.99174003879539
C            8.07063447154880        1.41000158703511        0.79685487085257
Cl           8.95878126494107        2.86076045007240        0.59372771224714
C            8.74763823592753        0.17005893933082        0.76365754817197
C            8.06807415332944       -1.02300668166241        0.94083698265277
Cl          10.44125354427618        0.14294383425900        0.50850249928513
C            6.02264458673523       -3.35136279422733        1.36239264881652
C            5.82243343891065       -3.93211695406565       -0.03322732130222
H            2.92147157810540        0.99060071425601       -2.10974985096129
H            4.34445486747291        2.09521977546026       -0.40112366932169
H            2.64222875710070        2.31569912358078       -0.03578221240333
H            3.88321834874507        1.77612282422947        2.04179604109447
H            2.70197741090271        0.50663004920481        1.65309049863503
H            2.65000576663144       -1.96856627071561        0.85793454318396
H            3.43216528723029       -3.07495187537204        1.98782075577581
H            2.74015865982078       -1.56047740325945        2.57481934091832
H            6.21151862114731        2.43358625218602        1.03040459147030
H            8.60576278971209       -1.95576481170686        0.91815433111074
H            7.05452884040692       -3.48851461146452        1.68827404389894
H            5.37202167624757       -3.84923390937650        2.08327775057912
H            6.49840213213857       -3.46301404955005       -0.74326176702896
H            6.02604723877004       -4.99834583103251       -0.01607617392814
H            4.80179183356181       -3.77912378758338       -0.37409218136299

          :  Hamiltonian                  GFN2-xTB          :
         :: total energy             -54.156170409396 Eh    ::
         :: gradient norm              0.000302471191 Eh/a0 ::
         :: HOMO-LUMO gap              2.813028237606 eV    ::
         :: SCC energy               -54.836379903304 Eh    ::
         :: -> dispersion             -0.036459576726 Eh    ::
         :: repulsion energy           0.680209493908 Eh    ::

    * Orbital Energies and Occupations

         #    Occupation            Energy/Eh            Energy/eV
      -------------------------------------------------------------
         1        2.0000           -1.1677462             -31.7760
       ...           ...                  ...                  ...
        36        2.0000           -0.6099763             -16.5983
        37        2.0000           -0.6053450             -16.4723
        38        2.0000           -0.6000411             -16.3279
        39        2.0000           -0.5955212             -16.2050
        40        2.0000           -0.5879855             -15.9999
        41        2.0000           -0.5798010             -15.7772
        42        2.0000           -0.5761599             -15.6781
        43        2.0000           -0.5731657             -15.5966
        44        2.0000           -0.5386630             -14.6578
        45        2.0000           -0.5367842             -14.6066
        46        2.0000           -0.5325300             -14.4909
        47        2.0000           -0.5316366             -14.4666
        48        2.0000           -0.5160015             -14.0411 (HOMO)
        49                         -0.4126246             -11.2281 (LUMO)
        50                         -0.3952258             -10.7546
        51                         -0.3729227             -10.1477
        52                         -0.3610970              -9.8259
        53                         -0.2601566              -7.0792
        54                         -0.2541371              -6.9154
        55                         -0.2459067              -6.6915
        56                         -0.1830977              -4.9823
        57                         -0.1336145              -3.6358
        58                         -0.1060141              -2.8848
        59                         -0.1021704              -2.7802
       ...                                ...                  ...
        97                          0.5202091              14.1556
      -------------------------------------------------------------
                  HL-Gap            0.1033769 Eh            2.8130 eV

     #   Z          covCN         q      C6AA      α(0)
     1   8 O        0.856    -0.326    20.257     6.034
     2   6 C        2.757     0.215    23.462     7.932
     3   6 C        3.802    -0.099    22.389     6.737
     4   6 C        3.740    -0.017    20.947     6.530
     5   7 N        2.831     0.020    20.891     6.788
     6   6 C        3.073     0.132    25.038     8.204
     7   6 C        3.755    -0.143    23.317     6.885
     8   7 N        2.831     0.021    20.877     6.786
     9   6 C        3.098     0.037    27.063     8.526
    10   6 C        3.094     0.034    27.137     8.538
    11   6 C        2.953    -0.053    29.326     8.882
    12   6 C        2.922     0.094    25.921     8.349
    13  17 Cl       1.004    -0.076   101.544    15.417
    14   6 C        2.921     0.094    25.911     8.347
    15   6 C        2.953    -0.049    29.217     8.866
    16  17 Cl       1.004    -0.075   101.491    15.413
    17   6 C        3.740    -0.016    20.947     6.530
    18   6 C        3.753    -0.125    22.964     6.834
    19   1 H        0.923     0.052     2.291     2.367
    20   1 H        0.924     0.095     1.835     2.119
    21   1 H        0.924     0.105     1.740     2.063
    22   1 H        0.924     0.088     1.897     2.154
    23   1 H        0.925     0.095     1.828     2.115
    24   1 H        0.924     0.134     1.503     1.917
    25   1 H        0.925     0.096     1.820     2.110
    26   1 H        0.925     0.096     1.822     2.111
    27   1 H        0.926     0.094     1.840     2.121
    28   1 H        0.926     0.100     1.785     2.089
    29   1 H        0.924     0.086     1.917     2.165
    30   1 H        0.924     0.080     1.978     2.199
    31   1 H        0.925     0.064     2.152     2.294
    32   1 H        0.925     0.080     1.981     2.201
    33   1 H        0.925     0.067     2.114     2.274

Wiberg/Mayer (AO) data.
largest (>0.10) Wiberg bond orders for each atom

     #   Z sym  total        # sym  WBO       # sym  WBO       # sym  WBO
 ---------------------------------------------------------------------------
     1   8 O    2.094 --     2 C    1.919
     2   6 C    3.910 --     1 O    1.919     3 C    1.015    19 H    0.932
     3   6 C    3.990 --     2 C    1.015     4 C    0.993    21 H    0.938
                            20 H    0.937
     4   6 C    3.949 --     3 C    0.993     5 N    0.977    23 H    0.963
                            22 H    0.961
     5   7 N    3.656 --     6 C    1.315    10 C    1.128     4 C    0.977
     6   6 C    3.940 --     8 N    1.334     5 N    1.315     7 C    1.054
     7   6 C    3.971 --     6 C    1.054    25 H    0.966    26 H    0.952
                            24 H    0.926
     8   7 N    3.665 --     6 C    1.334     9 C    1.129    17 C    0.965
     9   6 C    3.961 --    15 C    1.342    10 C    1.269     8 N    1.129
    10   6 C    3.960 --    11 C    1.342     9 C    1.269     5 N    1.128
    11   6 C    3.979 --    12 C    1.438    10 C    1.342    27 H    0.957
                            15 C    0.103
    12   6 C    3.937 --    11 C    1.438    14 C    1.288    13 Cl   1.043
    13  17 Cl   1.208 --    12 C    1.043
    14   6 C    3.937 --    15 C    1.439    12 C    1.288    16 Cl   1.044
    15   6 C    3.978 --    14 C    1.439     9 C    1.342    28 H    0.955
                            11 C    0.103
    16  17 Cl   1.211 --    14 C    1.044
    17   6 C    3.941 --    18 C    1.003     8 N    0.965    29 H    0.964
                            30 H    0.960
    18   6 C    3.981 --    17 C    1.003    31 H    0.984    33 H    0.983
                            32 H    0.977
    19   1 H    0.997 --     2 C    0.932
    20   1 H    0.991 --     3 C    0.937
    21   1 H    0.988 --     3 C    0.938
    22   1 H    0.992 --     4 C    0.961
    23   1 H    0.990 --     4 C    0.963
    24   1 H    0.977 --     7 C    0.926
    25   1 H    0.990 --     7 C    0.966
    26   1 H    0.988 --     7 C    0.952
    27   1 H    0.991 --    11 C    0.957
    28   1 H    0.989 --    15 C    0.955
    29   1 H    0.992 --    17 C    0.964
    30   1 H    0.993 --    17 C    0.960
    31   1 H    0.996 --    18 C    0.984
    32   1 H    0.993 --    18 C    0.977
    33   1 H    0.995 --    18 C    0.983
 ---------------------------------------------------------------------------

molecular dipole:
                 x           y           z       tot (Debye)
 q only:        8.878      -1.561       2.349
   full:        9.465      -1.013       2.269      24.873

           -------------------------------------------------
          | TOTAL ENERGY              -54.156170409396 Eh   |
          | GRADIENT NORM               0.000302471191 Eh/α |
          | HOMO-LUMO GAP               2.813028237606 eV   |
           -------------------------------------------------

 * finished run on 2024/12/20 at 02:09:27.830
