   * xtb version 6.7.1 (edcfbbe) compiled by 'conda@3ef47c1a292c' on 2024-11-25

   ID    Z sym.   atoms
    1    6 C      1, 3-8
    2    7 N      2
    3    1 H      9-24

          program call               : xtb C0197.xyz --opt --namespace C0197 --charge +1
          :  Hamiltonian                  GFN2-xTB          :
 * total energy  :   -25.6831065 Eh     change       -0.2820499E-10 Eh
 * total energy  :   -25.6882024 Eh     change       -0.5095938E-02 Eh
 * total energy  :   -25.6893316 Eh     change       -0.1129136E-02 Eh
 * total energy  :   -25.6893729 Eh     change       -0.4129635E-04 Eh
 * total energy  :   -25.6893821 Eh     change       -0.9199387E-05 Eh
 * total energy  :   -25.6893840 Eh     change       -0.1961775E-05 Eh
   *** GEOMETRY OPTIMIZATION CONVERGED AFTER 6 ITERATIONS ***

 final structure:
================
24
 xtb: 6.7.1 (edcfbbe)
C           -2.16716988940230        0.00826975521113        0.74539599039678
N           -0.88891979123619        0.00225176238378        0.00916973495431
C           -1.19111901064587       -0.01174377730442       -1.43300147154020
C           -0.11525147277215       -1.21077593639423        0.40194938569257
C            1.29393880569828       -1.24429509437733       -0.17906422072507
C            2.06666249657790        0.00672242659827        0.22544870228110
C            1.29187600400313        1.24845204361595       -0.20302353430090
C           -0.11717165949243        1.22375707209295        0.37874852737075
H           -2.74674363421553       -0.87966955807821        0.49835836509325
H           -1.98973795483674        0.01916253288472        1.81950787328218
H           -2.74857018941929        0.88990430909155        0.48070590429226
H           -0.27845309376651       -0.01737615730127       -2.02128576022296
H           -1.77060646314576       -0.89911195710398       -1.68138309200428
H           -1.77075514360143        0.87054374281745       -1.69853961166117
H           -0.04673817965719       -1.21670499314164        1.49224163497548
H           -0.67810645714905       -2.09184839494123        0.08779077394906
H            1.26963056195085       -1.33954695001050       -1.26482873966474
H            1.79154029950614       -2.13341415229451        0.20833770050282
H            3.05126334246599        0.00306684426625       -0.23851528638689
H            2.21056207359064        0.01724642221234        1.30719168059566
H            1.26726789009089        1.32271009386410       -1.29041641645014
H            1.78805774607890        2.14568473015592        0.16710499323563
H           -0.68149526731596        2.09780920153967        0.04805757343603
H           -0.04849101330632        1.25046603421327        1.46871929289848

          :  Hamiltonian                  GFN2-xTB          :
         :: total energy             -25.689384012483 Eh    ::
         :: gradient norm              0.000345805340 Eh/a0 ::
         :: HOMO-LUMO gap              9.476824648546 eV    ::
         :: SCC energy               -26.050757883088 Eh    ::
         :: -> dispersion             -0.016392947250 Eh    ::
         :: repulsion energy           0.361373870605 Eh    ::

    * Orbital Energies and Occupations

         #    Occupation            Energy/Eh            Energy/eV
      -------------------------------------------------------------
         1        2.0000           -0.8687774             -23.6406
       ...           ...                  ...                  ...
        12        2.0000           -0.6823225             -18.5669
        13        2.0000           -0.6743281             -18.3494
        14        2.0000           -0.6620250             -18.0146
        15        2.0000           -0.6579637             -17.9041
        16        2.0000           -0.6519054             -17.7392
        17        2.0000           -0.6458114             -17.5734
        18        2.0000           -0.6454233             -17.5629
        19        2.0000           -0.6393097             -17.3965
        20        2.0000           -0.6382668             -17.3681
        21        2.0000           -0.6099307             -16.5971
        22        2.0000           -0.5889525             -16.0262
        23        2.0000           -0.5878486             -15.9962
        24        2.0000           -0.5784642             -15.7408 (HOMO)
        25                         -0.2301973              -6.2640 (LUMO)
        26                         -0.1672385              -4.5508
        27                         -0.1529117              -4.1609
        28                         -0.1468799              -3.9968
        29                         -0.0762972              -2.0762
        30                         -0.0703096              -1.9132
        31                         -0.0623373              -1.6963
        32                         -0.0371904              -1.0120
        33                         -0.0161247              -0.4388
        34                         -0.0021023              -0.0572
        35                          0.0001960               0.0053
       ...                                ...                  ...
        48                          0.1678326               4.5670
      -------------------------------------------------------------
                  HL-Gap            0.3482669 Eh            9.4768 eV

     #   Z          covCN         q      C6AA      α(0)
     1   6 C        3.728    -0.096    22.438     6.763
     2   7 N        3.623     0.134    18.959     6.467
     3   6 C        3.719    -0.094    22.418     6.763
     4   6 C        3.766    -0.036    21.252     6.570
     5   6 C        3.804    -0.073    21.894     6.661
     6   6 C        3.807    -0.073    21.889     6.660
     7   6 C        3.804    -0.073    21.895     6.661
     8   6 C        3.766    -0.036    21.252     6.570
     9   1 H        0.925     0.099     1.794     2.095
    10   1 H        0.925     0.096     1.820     2.109
    11   1 H        0.925     0.099     1.794     2.095
    12   1 H        0.925     0.106     1.732     2.058
    13   1 H        0.925     0.096     1.822     2.111
    14   1 H        0.925     0.096     1.822     2.111
    15   1 H        0.924     0.087     1.910     2.161
    16   1 H        0.924     0.083     1.947     2.182
    17   1 H        0.925     0.062     2.175     2.306
    18   1 H        0.925     0.080     1.979     2.200
    19   1 H        0.925     0.072     2.059     2.244
    20   1 H        0.924     0.058     2.221     2.330
    21   1 H        0.925     0.062     2.174     2.306
    22   1 H        0.925     0.080     1.979     2.200
    23   1 H        0.924     0.083     1.947     2.182
    24   1 H        0.924     0.087     1.910     2.161

Wiberg/Mayer (AO) data.
largest (>0.10) Wiberg bond orders for each atom

     #   Z sym  total        # sym  WBO       # sym  WBO       # sym  WBO
 ---------------------------------------------------------------------------
     1   6 C    3.929 --    10 H    0.975    11 H    0.975     9 H    0.975
                             2 N    0.960
     2   7 N    3.811 --     1 C    0.960     3 C    0.959     8 C    0.927
                             4 C    0.927
     3   6 C    3.928 --    13 H    0.975    14 H    0.975    12 H    0.967
                             2 N    0.959
     4   6 C    3.931 --     5 C    1.008    16 H    0.968    15 H    0.967
                             2 N    0.927
     5   6 C    3.986 --     6 C    1.009     4 C    1.008    17 H    0.970
                            18 H    0.965
     6   6 C    3.991 --     7 C    1.009     5 C    1.009    20 H    0.975
                            19 H    0.972
     7   6 C    3.986 --     6 C    1.009     8 C    1.008    21 H    0.970
                            22 H    0.965
     8   6 C    3.931 --     7 C    1.008    23 H    0.968    24 H    0.967
                             2 N    0.927
     9   1 H    0.990 --     1 C    0.975
    10   1 H    0.991 --     1 C    0.975
    11   1 H    0.990 --     1 C    0.975
    12   1 H    0.989 --     3 C    0.967
    13   1 H    0.991 --     3 C    0.975
    14   1 H    0.991 --     3 C    0.975
    15   1 H    0.992 --     4 C    0.967
    16   1 H    0.993 --     4 C    0.968
    17   1 H    0.996 --     5 C    0.970
    18   1 H    0.993 --     5 C    0.965
    19   1 H    0.994 --     6 C    0.972
    20   1 H    0.997 --     6 C    0.975
    21   1 H    0.996 --     7 C    0.970
    22   1 H    0.993 --     7 C    0.965
    23   1 H    0.993 --     8 C    0.968
    24   1 H    0.992 --     8 C    0.967
 ---------------------------------------------------------------------------

molecular dipole:
                 x           y           z       tot (Debye)
 q only:       -1.064       0.004      -0.037
   full:       -1.226       0.004      -0.002       3.115

           -------------------------------------------------
          | TOTAL ENERGY              -25.689384012483 Eh   |
          | GRADIENT NORM               0.000345805340 Eh/α |
          | HOMO-LUMO GAP               9.476824648546 eV   |
           -------------------------------------------------

 * finished run on 2024/12/20 at 02:09:48.240
