   * xtb version 6.7.1 (edcfbbe) compiled by 'conda@3ef47c1a292c' on 2024-11-25

   ID    Z sym.   atoms
    1    6 C      1, 2, 4-17
    2   15 P      3
    3    1 H      18-53

          program call               : xtb C0198.xyz --opt --namespace C0198 --charge +1
          :  Hamiltonian                  GFN2-xTB          :
 * total energy  :   -54.7587014 Eh     change       -0.1978151E-09 Eh
 * total energy  :   -54.7642949 Eh     change       -0.5593543E-02 Eh
 * total energy  :   -54.7658015 Eh     change       -0.1506596E-02 Eh
 * total energy  :   -54.7659965 Eh     change       -0.1949543E-03 Eh
 * total energy  :   -54.7660902 Eh     change       -0.9367981E-04 Eh
 * total energy  :   -54.7661607 Eh     change       -0.7051317E-04 Eh
 * total energy  :   -54.7662251 Eh     change       -0.6440570E-04 Eh
 * total energy  :   -54.7662630 Eh     change       -0.3791991E-04 Eh
 * total energy  :   -54.7662809 Eh     change       -0.1788359E-04 Eh
 * total energy  :   -54.7662961 Eh     change       -0.1521059E-04 Eh
 * total energy  :   -54.7667372 Eh     change       -0.2719115E-04 Eh
 * total energy  :   -54.7667634 Eh     change       -0.2616846E-04 Eh
 * total energy  :   -54.7667866 Eh     change       -0.2326328E-04 Eh
 * total energy  :   -54.7668022 Eh     change       -0.1560367E-04 Eh
 * total energy  :   -54.7668137 Eh     change       -0.1151227E-04 Eh
 * total energy  :   -54.7668229 Eh     change       -0.9181909E-05 Eh
 * total energy  :   -54.7668282 Eh     change       -0.5275035E-05 Eh
 * total energy  :   -54.7668336 Eh     change       -0.5444205E-05 Eh
 * total energy  :   -54.7668381 Eh     change       -0.4408248E-05 Eh
   *** GEOMETRY OPTIMIZATION CONVERGED AFTER 46 ITERATIONS ***

 final structure:
================
53
 xtb: 6.7.1 (edcfbbe)
C            0.86423597264655        0.08497774027834        0.03234583880199
C            0.19696609916982       -0.87741145193347        1.01017754750526
P            0.31918234229399        1.82831403229307        0.17016172204575
C            0.77197328249611        2.73060057807659       -1.36116403512914
C            0.59066842258453        1.98907984722191       -2.68710902028612
C           -0.84629943642334        1.57893880149862       -3.00212460996491
C           -1.82890800004802        2.74133219104524       -3.16203658524043
C           -1.45514120684796        3.75753029344616       -4.24404764874832
C           -1.29180353928799        3.17580704762202       -5.64963304622505
C           -2.53143441523174        2.47092791946120       -6.20425346264020
C           -3.78972848226988        3.33863816373894       -6.28103487936222
C           -3.65028977545234        4.60547348118525       -7.12674685620714
C           -3.32870744017757        4.32039318754618       -8.58864566055670
C           -1.48246062508097        1.96857476497967        0.48634028402000
C           -1.89706100287868        1.86097709467801        1.95058171929718
C            1.24982990796602        2.69986908347480        1.49016737102418
C            1.51363705150386        1.90010396421407        2.76248243059614
H            0.65052560222037       -0.23394852710666       -0.99086031038342
H            1.95053547912559        0.08288382538151        0.16307986356602
H            0.39369295141475       -0.61035924012243        2.04437442912014
H           -0.87807239079840       -0.91365685629283        0.85248547241706
H            0.58882753664184       -1.87851547705887        0.84499066732174
H            0.19732253894342        3.66106816710709       -1.36196321152804
H            1.82831890378448        2.99710915844260       -1.25246324251546
H            0.95475733824855        2.64472234309574       -3.47891789110814
H            1.22734335831659        1.10165705361866       -2.69802011978784
H           -0.83481656152754        1.00357519358597       -3.92817801786367
H           -1.21164623535158        0.91206719036350       -2.21400277441508
H           -2.80771580523295        2.32083499017692       -3.39573930747511
H           -1.93262629125972        3.27578938728747       -2.21382399871217
H           -2.23364930822541        4.52135359703254       -4.26579443993473
H           -0.52579282589777        4.26319843381903       -3.96898246420071
H           -1.01893528931758        3.99285285690958       -6.31888039659808
H           -0.45934318998957        2.46789305231756       -5.66040547342037
H           -2.29121987977074        2.10659242174817       -7.20419972180306
H           -2.75744863458366        1.59302729050562       -5.59390559058288
H           -4.59147924937629        2.72755784498372       -6.70258873325669
H           -4.09957385381182        3.62331130418454       -5.27270091025921
H           -4.59638998067662        5.14945664897275       -7.07479540083544
H           -2.88117119652361        5.25525747203027       -6.70453412511499
H           -4.06097210504264        3.63669634182054       -9.01263619857305
H           -3.35023381314320        5.24291525491922       -9.16383227672375
H           -2.34097281274139        3.87901933203710       -8.69784345960709
H           -1.78453393024122        2.94388088150959        0.09337028511308
H           -1.98788597454204        1.20228656473985       -0.10590477291438
H           -1.46183824449756        2.65913818937255        2.54615123075825
H           -2.97878998994440        1.95349708909966        2.01591825707047
H           -1.61996157724217        0.90331456048017        2.38185239882269
H            2.20619065507076        2.99652851717123        1.04925352105494
H            0.69511363803994        3.61497782486814        1.71851818232561
H            2.12073027473965        1.02261448282111        2.55495142484470
H            2.06500144016774        2.52363762868472        3.46259325946067
H            0.59449026805870        1.58854846261079        3.24925273681182

          :  Hamiltonian                  GFN2-xTB          :
         :: total energy             -54.766838054386 Eh    ::
         :: gradient norm              0.000620220626 Eh/a0 ::
         :: HOMO-LUMO gap              5.034681376734 eV    ::
         :: SCC energy               -55.576945634002 Eh    ::
         :: -> dispersion             -0.045448392699 Eh    ::
         :: repulsion energy           0.810107579615 Eh    ::

    * Orbital Energies and Occupations

         #    Occupation            Energy/Eh            Energy/eV
      -------------------------------------------------------------
         1        2.0000           -0.8488044             -23.0971
       ...           ...                  ...                  ...
        40        2.0000           -0.5664630             -15.4142
        41        2.0000           -0.5606219             -15.2553
        42        2.0000           -0.5537828             -15.0692
        43        2.0000           -0.5502756             -14.9738
        44        2.0000           -0.5399697             -14.6933
        45        2.0000           -0.5342330             -14.5372
        46        2.0000           -0.5271253             -14.3438
        47        2.0000           -0.5153558             -14.0235
        48        2.0000           -0.5093447             -13.8600
        49        2.0000           -0.5057025             -13.7609
        50        2.0000           -0.4881535             -13.2833
        51        2.0000           -0.4846195             -13.1872
        52        2.0000           -0.4813694             -13.0987 (HOMO)
        53                         -0.2963482              -8.0640 (LUMO)
        54                         -0.2887664              -7.8577
        55                         -0.2763141              -7.5189
        56                         -0.1991929              -5.4203
        57                         -0.0910591              -2.4778
        58                         -0.0838196              -2.2808
        59                         -0.0497428              -1.3536
        60                         -0.0465326              -1.2662
        61                         -0.0401447              -1.0924
        62                         -0.0252393              -0.6868
        63                         -0.0238872              -0.6500
       ...                                ...                  ...
       109                          0.7604816              20.6938
      -------------------------------------------------------------
                  HL-Gap            0.1850211 Eh            5.0347 eV

     #   Z          covCN         q      C6AA      α(0)
     1   6 C        3.749    -0.067    21.851     6.667
     2   6 C        3.802    -0.117    22.728     6.787
     3  15 P        3.907     0.191   152.021    22.148
     4   6 C        3.750    -0.080    22.087     6.703
     5   6 C        3.836    -0.065    21.720     6.630
     6   6 C        3.800    -0.064    21.734     6.638
     7   6 C        3.800    -0.061    21.678     6.629
     8   6 C        3.800    -0.060    21.660     6.626
     9   6 C        3.800    -0.060    21.652     6.625
    10   6 C        3.800    -0.059    21.637     6.623
    11   6 C        3.800    -0.058    21.625     6.621
    12   6 C        3.799    -0.053    21.528     6.606
    13   6 C        3.751    -0.104    22.543     6.771
    14   6 C        3.749    -0.066    21.831     6.664
    15   6 C        3.799    -0.117    22.744     6.790
    16   6 C        3.749    -0.072    21.940     6.681
    17   6 C        3.794    -0.116    22.735     6.790
    18   1 H        0.927     0.095     1.832     2.116
    19   1 H        0.927     0.091     1.870     2.138
    20   1 H        0.925     0.065     2.144     2.290
    21   1 H        0.925     0.063     2.162     2.300
    22   1 H        0.925     0.075     2.031     2.229
    23   1 H        0.927     0.093     1.851     2.127
    24   1 H        0.927     0.084     1.937     2.176
    25   1 H        0.924     0.074     2.040     2.234
    26   1 H        0.924     0.047     2.359     2.402
    27   1 H        0.924     0.061     2.185     2.312
    28   1 H        0.924     0.026     2.648     2.545
    29   1 H        0.924     0.049     2.332     2.388
    30   1 H        0.924     0.017     2.779     2.607
    31   1 H        0.924     0.045     2.385     2.415
    32   1 H        0.924     0.023     2.688     2.564
    33   1 H        0.924     0.043     2.414     2.430
    34   1 H        0.924     0.025     2.659     2.550
    35   1 H        0.924     0.040     2.447     2.446
    36   1 H        0.924     0.024     2.672     2.556
    37   1 H        0.924     0.034     2.525     2.485
    38   1 H        0.924     0.024     2.666     2.554
    39   1 H        0.924     0.031     2.568     2.506
    40   1 H        0.924     0.029     2.605     2.524
    41   1 H        0.925     0.037     2.487     2.466
    42   1 H        0.925     0.036     2.497     2.471
    43   1 H        0.925     0.034     2.531     2.488
    44   1 H        0.927     0.090     1.883     2.146
    45   1 H        0.926     0.093     1.850     2.127
    46   1 H        0.925     0.063     2.164     2.300
    47   1 H        0.925     0.075     2.027     2.227
    48   1 H        0.925     0.064     2.150     2.293
    49   1 H        0.927     0.086     1.913     2.163
    50   1 H        0.926     0.089     1.887     2.148
    51   1 H        0.925     0.063     2.167     2.302
    52   1 H        0.925     0.074     2.037     2.232
    53   1 H        0.925     0.064     2.149     2.293

Wiberg/Mayer (AO) data.
largest (>0.10) Wiberg bond orders for each atom

     #   Z sym  total        # sym  WBO       # sym  WBO       # sym  WBO
 ---------------------------------------------------------------------------
     1   6 C    3.988 --     3 P    1.003     2 C    1.001    19 H    0.934
                            18 H    0.933
     2   6 C    3.985 --     1 C    1.001    21 H    0.979    20 H    0.978
                            22 H    0.977
     3  15 P    4.532 --     4 C    1.006    16 C    1.005     1 C    1.003
                            14 C    0.998
     4   6 C    3.986 --     3 P    1.006     5 C    0.989    24 H    0.935
                            23 H    0.932
     5   6 C    3.985 --     6 C    1.008     4 C    0.989    26 H    0.970
                            25 H    0.963
     6   6 C    3.994 --     5 C    1.008     7 C    1.007    27 H    0.970
                            28 H    0.960
     7   6 C    3.995 --     6 C    1.007     8 C    1.007    29 H    0.973
                            30 H    0.972
     8   6 C    3.996 --     9 C    1.007     7 C    1.007    32 H    0.975
                            31 H    0.973
     9   6 C    3.996 --    10 C    1.008     8 C    1.007    34 H    0.975
                            33 H    0.974
    10   6 C    3.997 --     9 C    1.008    11 C    1.007    36 H    0.975
                            35 H    0.975
    11   6 C    3.997 --    12 C    1.008    10 C    1.007    37 H    0.977
                            38 H    0.976
    12   6 C    3.998 --    13 C    1.020    11 C    1.008    39 H    0.978
                            40 H    0.976
    13   6 C    3.997 --    12 C    1.020    41 H    0.987    42 H    0.987
                            43 H    0.986
    14   6 C    3.988 --    15 C    1.001     3 P    0.998    45 H    0.934
                            44 H    0.933
    15   6 C    3.985 --    14 C    1.001    46 H    0.979    48 H    0.978
                            47 H    0.977
    16   6 C    3.989 --     3 P    1.005    17 C    1.003    49 H    0.937
                            50 H    0.935
    17   6 C    3.983 --    16 C    1.003    51 H    0.980    53 H    0.978
                            52 H    0.977
    18   1 H    0.991 --     1 C    0.933
    19   1 H    0.992 --     1 C    0.934
    20   1 H    0.996 --     2 C    0.978
    21   1 H    0.996 --     2 C    0.979
    22   1 H    0.994 --     2 C    0.977
    23   1 H    0.991 --     4 C    0.932
    24   1 H    0.993 --     4 C    0.935
    25   1 H    0.994 --     5 C    0.963
    26   1 H    0.998 --     5 C    0.970
    27   1 H    0.996 --     6 C    0.970
    28   1 H    0.999 --     6 C    0.960
    29   1 H    0.998 --     7 C    0.973
    30   1 H    1.000 --     7 C    0.972
    31   1 H    0.998 --     8 C    0.973
    32   1 H    0.999 --     8 C    0.975
    33   1 H    0.998 --     9 C    0.974
    34   1 H    0.999 --     9 C    0.975
    35   1 H    0.998 --    10 C    0.975
    36   1 H    0.999 --    10 C    0.975
    37   1 H    0.999 --    11 C    0.977
    38   1 H    0.999 --    11 C    0.976
    39   1 H    0.999 --    12 C    0.978
    40   1 H    0.999 --    12 C    0.976
    41   1 H    0.999 --    13 C    0.987
    42   1 H    0.999 --    13 C    0.987
    43   1 H    0.999 --    13 C    0.986
    44   1 H    0.992 --    14 C    0.933
    45   1 H    0.991 --    14 C    0.934
    46   1 H    0.996 --    15 C    0.979
    47   1 H    0.994 --    15 C    0.977
    48   1 H    0.996 --    15 C    0.978
    49   1 H    0.993 --    16 C    0.937
    50   1 H    0.992 --    16 C    0.935
    51   1 H    0.996 --    17 C    0.980
    52   1 H    0.994 --    17 C    0.977
    53   1 H    0.996 --    17 C    0.978
 ---------------------------------------------------------------------------

molecular dipole:
                 x           y           z       tot (Debye)
 q only:        0.236       3.310       0.038
   full:        0.330       3.402       0.023       8.687

           -------------------------------------------------
          | TOTAL ENERGY              -54.766838054386 Eh   |
          | GRADIENT NORM               0.000620220626 Eh/α |
          | HOMO-LUMO GAP               5.034681376734 eV   |
           -------------------------------------------------

 * finished run on 2024/12/20 at 02:09:50.597
