   * xtb version 6.7.1 (edcfbbe) compiled by 'conda@3ef47c1a292c' on 2024-11-25

   ID    Z sym.   atoms
    1    6 C      1-18, 20-25
    2    7 N      19
    3    1 H      26-69

          program call               : xtb C0199.xyz --opt --namespace C0199 --charge +1
          :  Hamiltonian                  GFN2-xTB          :
 * total energy  :   -76.3942118 Eh     change       -0.1320245E-08 Eh
 * total energy  :   -76.3979503 Eh     change       -0.3738485E-02 Eh
 * total energy  :   -76.3985294 Eh     change       -0.5790932E-03 Eh
 * total energy  :   -76.3986280 Eh     change       -0.9856842E-04 Eh
 * total energy  :   -76.3987615 Eh     change       -0.1334923E-03 Eh
 * total energy  :   -76.3988772 Eh     change       -0.1157858E-03 Eh
 * total energy  :   -76.3990424 Eh     change       -0.1651023E-03 Eh
 * total energy  :   -76.3992488 Eh     change       -0.2064040E-03 Eh
 * total energy  :   -76.3994106 Eh     change       -0.1618345E-03 Eh
 * total energy  :   -76.3995105 Eh     change       -0.9995126E-04 Eh
 * total energy  :   -76.3996983 Eh     change       -0.3658808E-04 Eh
 * total energy  :   -76.3997218 Eh     change       -0.2344204E-04 Eh
 * total energy  :   -76.3997546 Eh     change       -0.3279893E-04 Eh
 * total energy  :   -76.3997716 Eh     change       -0.1707588E-04 Eh
 * total energy  :   -76.3997846 Eh     change       -0.1293789E-04 Eh
 * total energy  :   -76.3997949 Eh     change       -0.1032328E-04 Eh
 * total energy  :   -76.3998017 Eh     change       -0.6782911E-05 Eh
 * total energy  :   -76.3998122 Eh     change       -0.1049185E-04 Eh
 * total energy  :   -76.3998158 Eh     change       -0.3592846E-05 Eh
   *** GEOMETRY OPTIMIZATION CONVERGED AFTER 22 ITERATIONS ***

 final structure:
================
69
 xtb: 6.7.1 (edcfbbe)
C            1.22809297723309       -0.46006097751487        0.45976337761942
C            1.19791037964429        0.99426257192944        0.91409363700349
C            1.47363780181902        1.98634638443966       -0.21657817383945
C            0.45374166496820        1.96791486070795       -1.35716341855557
C           -0.98668997617404        2.27434859370988       -0.94363620144097
C           -1.19551317914936        3.63765185416686       -0.28138979665491
C           -0.78610418457909        4.84079466803604       -1.13304228005383
C           -1.49848487549498        4.95134392688251       -2.48242004508640
C           -3.02295030397223        5.05072557950746       -2.40300182119646
C           -3.55359722254719        6.25407011595630       -1.62112899597550
C           -3.10716223388679        7.61823774393330       -2.15143435108109
C           -3.45847085606721        7.88816087483314       -3.61587297081068
C           -4.95099737917398        7.81959298835172       -3.94460824480515
C           -5.82390189759370        8.82603975630374       -3.19252650414553
C           -5.45327581781017       10.29513319252747       -3.41305349761212
C           -5.42641591084268       10.73971921435024       -4.87805757936097
C           -6.74344759795499       10.55424860167214       -5.63089013543253
C           -7.87806822061412       11.46201403263290       -5.13430324761298
N           -7.58045261023636       12.85136804524473       -5.42559175796201
C           -6.97438137699925       13.62255961734543       -4.51385162857855
C           -6.59824783601158       14.91387809120666       -4.80258982760648
C           -6.83980808723788       15.45333152349042       -6.06863476257329
C           -7.47806519394917       14.62002135999789       -6.99638754754468
C           -7.82860829678501       13.33914362676898       -6.65074952192675
C           -6.45914008813042       16.84023174043094       -6.41832460914430
H            0.41297116382084       -0.67372467141081       -0.22700354965357
H            1.13083654562631       -1.12409028731364        1.31570162871069
H            2.16793055630787       -0.68328500378724       -0.04083372245016
H            0.23180315645149        1.21282791877314        1.37257659777654
H            1.96086883009119        1.13785349179943        1.68350605793869
H            1.52339827056466        2.99218457767111        0.20601853966679
H            2.45671238757750        1.76438390312091       -0.64026832539035
H            0.77323548395380        2.68983046882821       -2.11207303777981
H            0.46963295786993        0.98476763481179       -1.83187675189908
H           -1.61808134387128        2.20569922068285       -1.83250610899316
H           -1.33104325805404        1.50452479274094       -0.25017728347069
H           -2.25045711637748        3.72867470873099       -0.01253905211654
H           -0.62704253534904        3.67261538151906        0.65019431618941
H           -0.96972416188246        5.74797722436033       -0.55257831920561
H            0.28855700167951        4.79644854015681       -1.32073232066197
H           -1.10550664292464        5.82622524130232       -3.00560892512427
H           -1.24759806519365        4.08000734215747       -3.09040261287005
H           -3.41718730318244        5.07868106778208       -3.42158974875265
H           -3.41600783087252        4.14535896850323       -1.93700856577063
H           -4.64521894650109        6.20553304397637       -1.61809027040497
H           -3.23113061126507        6.17486966525342       -0.58139389734773
H           -3.55055612847426        8.39284828785564       -1.52084150629405
H           -2.02449594363121        7.70496533902955       -2.04420666730009
H           -3.06791758100048        8.87214519326443       -3.88726233577764
H           -2.94290163259575        7.15998771508722       -4.24379547299443
H           -5.07398973778232        7.95926300378528       -5.02146597787782
H           -5.31916469863053        6.81943240540266       -3.71301268042509
H           -6.86626709574929        8.66200023469707       -3.47811727676517
H           -5.75679674804797        8.62352809172440       -2.12293462247623
H           -6.15321814227160       10.91089662092383       -2.84076928857551
H           -4.46265324435562       10.47590541807235       -2.99446494886666
H           -5.11546658597558       11.78851964962105       -4.92671596274860
H           -4.66296748877763       10.16347771941755       -5.40019943770244
H           -6.57906419291314       10.74409104407746       -6.69410916579588
H           -7.07702555573721        9.52281789013270       -5.52831539132564
H           -8.80990338277545       11.19022905731236       -5.63387816341980
H           -8.00941498468385       11.34098392622961       -4.05887959921735
H           -6.80010129966290       13.19196755944688       -3.53936039115770
H           -6.11391033788796       15.50464704490204       -4.04134148268518
H           -7.69714353836424       14.98075810984476       -7.98902384960407
H           -8.31806316626072       12.67899993533985       -7.35130286507059
H           -7.35498237137928       17.45870256006450       -6.48902331974524
H           -5.80120728967494       17.27522795803133       -5.67194153951415
H           -5.97498707029387       16.87261401916989       -7.39260279866213

          :  Hamiltonian                  GFN2-xTB          :
         :: total energy             -76.399815774408 Eh    ::
         :: gradient norm              0.000246138870 Eh/a0 ::
         :: HOMO-LUMO gap              0.239328672747 eV    ::
         :: SCC energy               -77.587032028996 Eh    ::
         :: -> dispersion             -0.059608242004 Eh    ::
         :: repulsion energy           1.187216254589 Eh    ::

    * Orbital Energies and Occupations

         #    Occupation            Energy/Eh            Energy/eV
      -------------------------------------------------------------
         1        2.0000           -0.8641147             -23.5138
       ...           ...                  ...                  ...
        60        2.0000           -0.5012503             -13.6397
        61        2.0000           -0.4967963             -13.5185
        62        2.0000           -0.4938575             -13.4385
        63        2.0000           -0.4871725             -13.2566
        64        2.0000           -0.4824283             -13.1275
        65        2.0000           -0.4798060             -13.0562
        66        2.0000           -0.4756404             -12.9428
        67        2.0000           -0.4670731             -12.7097
        68        2.0000           -0.4660694             -12.6824
        69        2.0000           -0.4637583             -12.6195
        70        2.0000           -0.4563529             -12.4180
        71        1.9950           -0.4500527             -12.2466
        72        1.9830           -0.4488940             -12.2150 (HOMO)
        73        0.0220           -0.4400988             -11.9757 (LUMO)
        74                         -0.4121940             -11.2164
        75                         -0.2939364              -7.9984
        76                         -0.1559923              -4.2448
        77                         -0.0733742              -1.9966
        78                         -0.0564638              -1.5365
        79                         -0.0414509              -1.1279
        80                         -0.0297570              -0.8097
        81                         -0.0204221              -0.5557
        82                         -0.0146145              -0.3977
        83                         -0.0084686              -0.2304
       ...                                ...                  ...
       144                          0.4506147              12.2619
      -------------------------------------------------------------
                  HL-Gap            0.0087952 Eh            0.2393 eV

     #   Z          covCN         q      C6AA      α(0)
     1   6 C        3.751    -0.102    22.506     6.765
     2   6 C        3.799    -0.052    21.507     6.603
     3   6 C        3.800    -0.057    21.597     6.617
     4   6 C        3.800    -0.057    21.592     6.616
     5   6 C        3.800    -0.056    21.586     6.615
     6   6 C        3.800    -0.056    21.588     6.615
     7   6 C        3.800    -0.056    21.587     6.615
     8   6 C        3.800    -0.056    21.591     6.616
     9   6 C        3.800    -0.057    21.600     6.617
    10   6 C        3.800    -0.057    21.603     6.618
    11   6 C        3.800    -0.057    21.604     6.618
    12   6 C        3.800    -0.058    21.622     6.621
    13   6 C        3.800    -0.060    21.661     6.626
    14   6 C        3.800    -0.061    21.676     6.629
    15   6 C        3.800    -0.061    21.667     6.627
    16   6 C        3.800    -0.065    21.745     6.639
    17   6 C        3.801    -0.069    21.813     6.649
    18   6 C        3.758    -0.033    21.210     6.566
    19   7 N        2.750     0.096    19.578     6.572
    20   6 C        2.889     0.031    27.307     8.567
    21   6 C        2.920    -0.029    28.713     8.787
    22   6 C        2.969     0.068    26.467     8.439
    23   6 C        2.921    -0.028    28.703     8.786
    24   6 C        2.890     0.028    27.368     8.577
    25   6 C        3.758    -0.133    23.101     6.852
    26   1 H        0.925     0.035     2.518     2.481
    27   1 H        0.925     0.032     2.551     2.498
    28   1 H        0.925     0.035     2.523     2.484
    29   1 H        0.924     0.032     2.563     2.503
    30   1 H        0.924     0.028     2.610     2.526
    31   1 H        0.924     0.029     2.595     2.519
    32   1 H        0.924     0.030     2.591     2.517
    33   1 H        0.924     0.029     2.604     2.524
    34   1 H        0.924     0.033     2.542     2.493
    35   1 H        0.924     0.028     2.612     2.528
    36   1 H        0.924     0.033     2.548     2.496
    37   1 H        0.924     0.027     2.624     2.533
    38   1 H        0.924     0.033     2.549     2.497
    39   1 H        0.924     0.027     2.635     2.539
    40   1 H        0.924     0.032     2.558     2.501
    41   1 H        0.924     0.026     2.647     2.544
    42   1 H        0.924     0.033     2.545     2.495
    43   1 H        0.924     0.025     2.652     2.547
    44   1 H        0.924     0.034     2.528     2.486
    45   1 H        0.924     0.025     2.658     2.549
    46   1 H        0.924     0.035     2.518     2.481
    47   1 H        0.924     0.024     2.677     2.559
    48   1 H        0.924     0.036     2.507     2.476
    49   1 H        0.924     0.023     2.692     2.566
    50   1 H        0.924     0.039     2.466     2.456
    51   1 H        0.924     0.024     2.678     2.559
    52   1 H        0.924     0.043     2.408     2.427
    53   1 H        0.924     0.024     2.675     2.558
    54   1 H        0.924     0.046     2.367     2.406
    55   1 H        0.924     0.017     2.782     2.608
    56   1 H        0.924     0.049     2.327     2.386
    57   1 H        0.924     0.021     2.713     2.576
    58   1 H        0.925     0.064     2.151     2.294
    59   1 H        0.924     0.048     2.344     2.394
    60   1 H        0.925     0.082     1.959     2.189
    61   1 H        0.924     0.084     1.941     2.179
    62   1 H        0.925     0.092     1.861     2.133
    63   1 H        0.926     0.104     1.748     2.068
    64   1 H        0.926     0.097     1.810     2.104
    65   1 H        0.926     0.098     1.802     2.099
    66   1 H        0.926     0.101     1.778     2.085
    67   1 H        0.924     0.102     1.764     2.077
    68   1 H        0.925     0.083     1.948     2.182
    69   1 H        0.925     0.094     1.842     2.123

Wiberg/Mayer (AO) data.
largest (>0.10) Wiberg bond orders for each atom

     #   Z sym  total        # sym  WBO       # sym  WBO       # sym  WBO
 ---------------------------------------------------------------------------
     1   6 C    3.995 --     2 C    1.020    27 H    0.987    28 H    0.987
                            26 H    0.985
     2   6 C    3.994 --     1 C    1.020     3 C    1.007    30 H    0.977
                            29 H    0.975
     3   6 C    3.993 --     2 C    1.007     4 C    1.006    32 H    0.976
                            31 H    0.974
     4   6 C    3.992 --     5 C    1.007     3 C    1.006    33 H    0.974
                            34 H    0.974
     5   6 C    3.994 --     4 C    1.007     6 C    1.007    36 H    0.974
                            35 H    0.974
     6   6 C    3.994 --     7 C    1.007     5 C    1.007    37 H    0.975
                            38 H    0.974
     7   6 C    3.996 --     6 C    1.007     8 C    1.007    39 H    0.975
                            40 H    0.975
     8   6 C    3.996 --     9 C    1.008     7 C    1.007    41 H    0.975
                            42 H    0.974
     9   6 C    3.997 --     8 C    1.008    10 C    1.008    43 H    0.975
                            44 H    0.974
    10   6 C    3.997 --     9 C    1.008    11 C    1.007    45 H    0.975
                            46 H    0.974
    11   6 C    3.997 --    12 C    1.008    10 C    1.007    47 H    0.975
                            48 H    0.975
    12   6 C    3.997 --    13 C    1.008    11 C    1.008    49 H    0.975
                            50 H    0.974
    13   6 C    3.996 --    12 C    1.008    14 C    1.008    51 H    0.975
                            52 H    0.973
    14   6 C    3.995 --    13 C    1.008    15 C    1.007    53 H    0.975
                            54 H    0.973
    15   6 C    3.995 --    16 C    1.007    14 C    1.007    55 H    0.973
                            56 H    0.973
    16   6 C    3.993 --    17 C    1.009    15 C    1.007    57 H    0.972
                            58 H    0.967
    17   6 C    3.980 --    16 C    1.009    18 C    0.975    59 H    0.974
                            60 H    0.961
    18   6 C    3.935 --    17 C    0.975    19 N    0.966    61 H    0.963
                            62 H    0.961
    19   7 N    3.742 --    20 C    1.310    24 C    1.299    18 C    0.966
    20   6 C    3.952 --    21 C    1.482    19 N    1.310    63 H    0.953
    21   6 C    3.984 --    20 C    1.482    22 C    1.370    64 H    0.959
    22   6 C    3.957 --    21 C    1.370    23 C    1.353    25 C    1.062
    23   6 C    3.983 --    24 C    1.504    22 C    1.353    65 H    0.960
    24   6 C    3.954 --    23 C    1.504    19 N    1.299    66 H    0.956
    25   6 C    3.984 --    22 C    1.062    68 H    0.977    69 H    0.955
                            67 H    0.935
    26   1 H    0.998 --     1 C    0.985
    27   1 H    0.999 --     1 C    0.987
    28   1 H    0.998 --     1 C    0.987
    29   1 H    0.998 --     2 C    0.975
    30   1 H    0.997 --     2 C    0.977
    31   1 H    0.998 --     3 C    0.974
    32   1 H    0.998 --     3 C    0.976
    33   1 H    0.998 --     4 C    0.974
    34   1 H    0.997 --     4 C    0.974
    35   1 H    0.998 --     5 C    0.974
    36   1 H    0.998 --     5 C    0.974
    37   1 H    0.999 --     6 C    0.975
    38   1 H    0.998 --     6 C    0.974
    39   1 H    0.998 --     7 C    0.975
    40   1 H    0.999 --     7 C    0.975
    41   1 H    0.999 --     8 C    0.975
    42   1 H    0.998 --     8 C    0.974
    43   1 H    0.999 --     9 C    0.975
    44   1 H    0.999 --     9 C    0.974
    45   1 H    0.999 --    10 C    0.975
    46   1 H    0.999 --    10 C    0.974
    47   1 H    0.999 --    11 C    0.975
    48   1 H    0.999 --    11 C    0.975
    49   1 H    0.999 --    12 C    0.975
    50   1 H    0.998 --    12 C    0.974
    51   1 H    0.999 --    13 C    0.975
    52   1 H    0.998 --    13 C    0.973
    53   1 H    0.999 --    14 C    0.975
    54   1 H    0.998 --    14 C    0.973
    55   1 H    1.000 --    15 C    0.973
    56   1 H    0.998 --    15 C    0.973
    57   1 H    0.999 --    16 C    0.972
    58   1 H    0.995 --    16 C    0.967
    59   1 H    0.998 --    17 C    0.974
    60   1 H    0.991 --    17 C    0.961
    61   1 H    0.992 --    18 C    0.963
    62   1 H    0.991 --    18 C    0.961
    63   1 H    0.989 --    20 C    0.953
    64   1 H    0.990 --    21 C    0.959
    65   1 H    0.990 --    23 C    0.960
    66   1 H    0.989 --    24 C    0.956
    67   1 H    0.987 --    25 C    0.935
    68   1 H    0.993 --    25 C    0.977
    69   1 H    0.990 --    25 C    0.955
 ---------------------------------------------------------------------------

molecular dipole:
                 x           y           z       tot (Debye)
 q only:      -12.988      24.753     -10.284
   full:      -13.101      24.788     -10.309      75.930

           -------------------------------------------------
          | TOTAL ENERGY              -76.399815774408 Eh   |
          | GRADIENT NORM               0.000246138870 Eh/α |
          | HOMO-LUMO GAP               0.239328672747 eV   |
           -------------------------------------------------

 * finished run on 2024/12/20 at 02:09:53.333
