   * xtb version 6.7.1 (edcfbbe) compiled by 'conda@3ef47c1a292c' on 2024-11-25

   ID    Z sym.   atoms
    1    6 C      1, 2, 4-20
    2    7 N      3
    3    1 H      21-46

          program call               : xtb C0194.xyz --opt --namespace C0194 --charge +1
          :  Hamiltonian                  GFN2-xTB          :
 * total energy  :   -56.4397882 Eh     change       -0.3133707E-09 Eh
 * total energy  :   -56.4500737 Eh     change       -0.1028550E-01 Eh
 * total energy  :   -56.4535243 Eh     change       -0.3450567E-02 Eh
 * total energy  :   -56.4540925 Eh     change       -0.5682269E-03 Eh
 * total energy  :   -56.4542950 Eh     change       -0.2024466E-03 Eh
 * total energy  :   -56.4543674 Eh     change       -0.7241838E-04 Eh
 * total energy  :   -56.4544374 Eh     change       -0.7002081E-04 Eh
 * total energy  :   -56.4544715 Eh     change       -0.3409099E-04 Eh
 * total energy  :   -56.4545107 Eh     change       -0.3916887E-04 Eh
 * total energy  :   -56.4545233 Eh     change       -0.1267136E-04 Eh
 * total energy  :   -56.4545431 Eh     change       -0.1971697E-04 Eh
 * total energy  :   -56.4545557 Eh     change       -0.1259601E-04 Eh
 * total energy  :   -56.4545690 Eh     change       -0.1338765E-04 Eh
 * total energy  :   -56.4545819 Eh     change       -0.1284911E-04 Eh
 * total energy  :   -56.4545884 Eh     change       -0.6514072E-05 Eh
 * total energy  :   -56.4545912 Eh     change       -0.2768599E-05 Eh
   *** GEOMETRY OPTIMIZATION CONVERGED AFTER 16 ITERATIONS ***

 final structure:
================
46
 xtb: 6.7.1 (edcfbbe)
C            1.16793585757096        0.10108279131214        0.17496409446495
C            0.62022010123455       -0.56680140329632       -1.08013923431887
N            1.01692790437924       -1.98726802590949       -1.30975886200317
C            0.47031313443633       -2.85673762185423       -0.16918528048292
C           -1.04664263727278       -2.87354615134295       -0.12784901377372
C           -1.72231203414210       -1.99511236284114        0.71494018822466
C           -3.10360624883899       -2.01034488298118        0.80156959211061
C           -3.83701796068330       -2.91245203105942        0.05125935910259
C           -3.17718610643050       -3.80741297416617       -0.77360557888552
C           -1.79642938008541       -3.79227445589666       -0.86010701448239
C            1.03174856148598       -4.27757398173469       -0.15118576675055
C            0.39673479683731       -2.45353594289038       -2.59711639333394
C            0.83537252866468       -1.78599363438581       -3.87368630341187
C            1.78600781149962       -2.39863095019205       -4.68673268655010
C            2.15559038438959       -1.82738233851930       -5.89128614984360
C            1.57509975538564       -0.63878206737322       -6.30221724786252
C            0.60833955734350       -0.03684586547535       -5.51468619198085
C            0.23191438217878       -0.61146389966417       -4.31276083082025
C            2.50661005514772       -2.12921638182782       -1.34211649021746
C            3.29716606740091       -1.06280102229524       -2.09168891381896
H            0.75034743481890       -0.30836137335655        1.08944100985314
H            0.88381123754932        1.14996690564215        0.13567977168274
H            2.24949830233419        0.05661037732178        0.24379775711785
H           -0.47120937034360       -0.53920644211051       -1.04563010118203
H            0.95182679897132       -0.00546926537865       -1.95370261993105
H            0.82021703493080       -2.36590467641381        0.74263321046627
H           -1.17229192433991       -1.30037139025626        1.33199741682391
H           -3.60337672746794       -1.32084659237822        1.46365860184132
H           -4.91310182473054       -2.92790595591063        0.11876692210623
H           -3.73684907355979       -4.52797645743866       -1.34904844363785
H           -1.31404379466305       -4.51707682934160       -1.49667197925091
H            2.08549586825579       -4.29991400414048        0.11084382786487
H            0.49517577358784       -4.82983056439316        0.61738109297919
H            0.89432553408070       -4.81022984020342       -1.08694723698735
H            0.61026456402502       -3.51906420829012       -2.68345179647639
H           -0.68206817403090       -2.32296292665221       -2.48898944358460
H            2.23786761990025       -3.33145812091795       -4.38091319377951
H            2.89125822361118       -2.31486440548333       -6.51135178379326
H            1.86283620804516       -0.19268033064011       -7.24085284478290
H            0.13477888318748        0.87563697551028       -5.84112087430282
H           -0.55286228402092       -0.15212448278004       -3.72929592514273
H            2.85357500473933       -2.14536823628643       -0.30716100166874
H            2.72646735238619       -3.09735461509833       -1.79212039704912
H            3.24771102033137       -0.08718301594556       -1.62028348958272
H            4.33933408483480       -1.37459694779780       -2.08252272315569
H            2.99226569706614       -0.96680037486423       -3.12726703179179

          :  Hamiltonian                  GFN2-xTB          :
         :: total energy             -56.454591180551 Eh    ::
         :: gradient norm              0.000416022511 Eh/a0 ::
         :: HOMO-LUMO gap              4.499216630024 eV    ::
         :: SCC energy               -57.423874581358 Eh    ::
         :: -> dispersion             -0.049209058444 Eh    ::
         :: repulsion energy           0.969283400807 Eh    ::

    * Orbital Energies and Occupations

         #    Occupation            Energy/Eh            Energy/eV
      -------------------------------------------------------------
         1        2.0000           -0.8361570             -22.7530
       ...           ...                  ...                  ...
        41        2.0000           -0.5926113             -16.1258
        42        2.0000           -0.5866787             -15.9643
        43        2.0000           -0.5825497             -15.8520
        44        2.0000           -0.5809473             -15.8084
        45        2.0000           -0.5785714             -15.7437
        46        2.0000           -0.5424780             -14.7616
        47        2.0000           -0.5411599             -14.7257
        48        2.0000           -0.5373660             -14.6225
        49        2.0000           -0.5365129             -14.5993
        50        2.0000           -0.5243288             -14.2677
        51        2.0000           -0.5227492             -14.2247
        52        2.0000           -0.5220417             -14.2055
        53        2.0000           -0.5190517             -14.1241 (HOMO)
        54                         -0.3537085              -9.6249 (LUMO)
        55                         -0.3482219              -9.4756
        56                         -0.3409152              -9.2768
        57                         -0.3407537              -9.2724
        58                         -0.2382208              -6.4823
        59                         -0.2186515              -5.9498
        60                         -0.1976212              -5.3775
        61                         -0.1546364              -4.2079
        62                         -0.1475300              -4.0145
        63                         -0.1347828              -3.6676
        64                         -0.0570230              -1.5517
       ...                                ...                  ...
       106                          0.5446620              14.8210
      -------------------------------------------------------------
                  HL-Gap            0.1653432 Eh            4.4992 eV

     #   Z          covCN         q      C6AA      α(0)
     1   6 C        3.751    -0.124    22.932     6.829
     2   6 C        3.752    -0.028    21.125     6.554
     3   7 N        3.613     0.090    19.673     6.588
     4   6 C        3.799     0.009    20.432     6.436
     5   6 C        2.967    -0.010    28.275     8.722
     6   6 C        2.925    -0.039    28.970     8.827
     7   6 C        2.918    -0.023    28.586     8.768
     8   6 C        2.920    -0.019    28.490     8.753
     9   6 C        2.919    -0.024    28.598     8.770
    10   6 C        2.923    -0.038    28.956     8.824
    11   6 C        3.753    -0.124    22.929     6.828
    12   6 C        3.758    -0.034    21.238     6.570
    13   6 C        2.966    -0.004    28.129     8.700
    14   6 C        2.924    -0.036    28.895     8.815
    15   6 C        2.918    -0.023    28.590     8.768
    16   6 C        2.920    -0.020    28.503     8.755
    17   6 C        2.919    -0.023    28.578     8.766
    18   6 C        2.923    -0.040    28.992     8.830
    19   6 C        3.748    -0.024    21.067     6.547
    20   6 C        3.751    -0.129    23.034     6.845
    21   1 H        0.925     0.059     2.209     2.324
    22   1 H        0.925     0.077     2.015     2.220
    23   1 H        0.925     0.065     2.147     2.291
    24   1 H        0.924     0.078     2.004     2.214
    25   1 H        0.925     0.090     1.883     2.146
    26   1 H        0.924     0.076     2.025     2.225
    27   1 H        0.926     0.038     2.482     2.464
    28   1 H        0.926     0.056     2.247     2.344
    29   1 H        0.926     0.059     2.207     2.323
    30   1 H        0.926     0.056     2.250     2.346
    31   1 H        0.926     0.042     2.421     2.433
    32   1 H        0.925     0.059     2.210     2.325
    33   1 H        0.925     0.081     1.968     2.194
    34   1 H        0.925     0.057     2.231     2.336
    35   1 H        0.925     0.078     1.996     2.209
    36   1 H        0.924     0.080     1.975     2.198
    37   1 H        0.926     0.039     2.460     2.453
    38   1 H        0.926     0.057     2.235     2.338
    39   1 H        0.926     0.060     2.203     2.321
    40   1 H        0.926     0.056     2.247     2.344
    41   1 H        0.926     0.037     2.486     2.465
    42   1 H        0.924     0.077     2.007     2.215
    43   1 H        0.925     0.082     1.960     2.190
    44   1 H        0.925     0.064     2.154     2.295
    45   1 H        0.925     0.075     2.027     2.226
    46   1 H        0.925     0.066     2.126     2.280

Wiberg/Mayer (AO) data.
largest (>0.10) Wiberg bond orders for each atom

     #   Z sym  total        # sym  WBO       # sym  WBO       # sym  WBO
 ---------------------------------------------------------------------------
     1   6 C    3.985 --     2 C    1.021    23 H    0.977    22 H    0.975
                            21 H    0.975
     2   6 C    3.938 --     1 C    1.021    24 H    0.964    25 H    0.960
                             3 N    0.937
     3   7 N    3.791 --     2 C    0.937    19 C    0.934    12 C    0.923
                             4 C    0.886
     4   6 C    3.933 --    11 C    1.011     5 C    0.993    26 H    0.954
                             3 N    0.886
     5   6 C    3.980 --     6 C    1.411    10 C    1.404     4 C    0.993
                             8 C    0.110
     6   6 C    3.991 --     7 C    1.442     5 C    1.411    27 H    0.963
                             9 C    0.109
     7   6 C    3.990 --     6 C    1.442     8 C    1.440    28 H    0.969
                            10 C    0.110
     8   6 C    3.988 --     7 C    1.440     9 C    1.435    29 H    0.969
                             5 C    0.110
     9   6 C    3.990 --    10 C    1.447     8 C    1.435    30 H    0.969
                             6 C    0.109
    10   6 C    3.991 --     9 C    1.447     5 C    1.404    31 H    0.966
                             7 C    0.110
    11   6 C    3.986 --     4 C    1.011    32 H    0.981    34 H    0.975
                            33 H    0.973
    12   6 C    3.936 --    13 C    1.004    35 H    0.959    36 H    0.957
                             3 N    0.923
    13   6 C    3.981 --    18 C    1.409    14 C    1.402    12 C    1.004
                            16 C    0.110
    14   6 C    3.991 --    15 C    1.446    13 C    1.402    37 H    0.968
                            17 C    0.110
    15   6 C    3.990 --    14 C    1.446    16 C    1.436    38 H    0.969
                            18 C    0.109
    16   6 C    3.988 --    17 C    1.439    15 C    1.436    39 H    0.969
                            13 C    0.110
    17   6 C    3.990 --    18 C    1.443    16 C    1.439    40 H    0.969
                            14 C    0.110
    18   6 C    3.991 --    17 C    1.443    13 C    1.409    41 H    0.967
                            15 C    0.109
    19   6 C    3.940 --    20 C    1.020    43 H    0.967    42 H    0.967
                             3 N    0.934
    20   6 C    3.982 --    19 C    1.020    44 H    0.978    45 H    0.974
                            46 H    0.973
    21   1 H    0.996 --     1 C    0.975
    22   1 H    0.994 --     1 C    0.975
    23   1 H    0.996 --     1 C    0.977
    24   1 H    0.994 --     2 C    0.964
    25   1 H    0.992 --     2 C    0.960
    26   1 H    0.993 --     4 C    0.954
    27   1 H    0.999 --     6 C    0.963
    28   1 H    0.996 --     7 C    0.969
    29   1 H    0.996 --     8 C    0.969
    30   1 H    0.997 --     9 C    0.969
    31   1 H    0.998 --    10 C    0.966
    32   1 H    0.996 --    11 C    0.981
    33   1 H    0.993 --    11 C    0.973
    34   1 H    0.997 --    11 C    0.975
    35   1 H    0.993 --    12 C    0.959
    36   1 H    0.993 --    12 C    0.957
    37   1 H    0.998 --    14 C    0.968
    38   1 H    0.996 --    15 C    0.969
    39   1 H    0.996 --    16 C    0.969
    40   1 H    0.997 --    17 C    0.969
    41   1 H    0.999 --    18 C    0.967
    42   1 H    0.994 --    19 C    0.967
    43   1 H    0.993 --    19 C    0.967
    44   1 H    0.996 --    20 C    0.978
    45   1 H    0.994 --    20 C    0.974
    46   1 H    0.996 --    20 C    0.973
 ---------------------------------------------------------------------------

molecular dipole:
                 x           y           z       tot (Debye)
 q only:        1.527      -3.536      -2.934
   full:        1.482      -3.627      -2.873      12.348

           -------------------------------------------------
          | TOTAL ENERGY              -56.454591180551 Eh   |
          | GRADIENT NORM               0.000416022511 Eh/α |
          | HOMO-LUMO GAP               4.499216630024 eV   |
           -------------------------------------------------

 * finished run on 2024/12/20 at 02:09:42.741
