   * xtb version 6.7.1 (edcfbbe) compiled by 'conda@3ef47c1a292c' on 2024-11-25

   ID    Z sym.   atoms
    1    8 O      1, 3, 16, 17
    2    6 C      2, 4-6, 8, 9, 11-15
    3    7 N      7, 10
    4    1 H      18-34

          program call               : xtb C0196.xyz --opt --namespace C0196 --charge +1
          :  Hamiltonian                  GFN2-xTB          :
 * total energy  :   -53.9877878 Eh     change       -0.1935256E-08 Eh
 * total energy  :   -53.9951913 Eh     change       -0.7403490E-02 Eh
 * total energy  :   -53.9972477 Eh     change       -0.2056340E-02 Eh
 * total energy  :   -53.9977641 Eh     change       -0.5164080E-03 Eh
 * total energy  :   -53.9980272 Eh     change       -0.2631313E-03 Eh
 * total energy  :   -53.9981381 Eh     change       -0.1108461E-03 Eh
 * total energy  :   -53.9982360 Eh     change       -0.9797805E-04 Eh
 * total energy  :   -53.9983309 Eh     change       -0.9490315E-04 Eh
 * total energy  :   -53.9984242 Eh     change       -0.9329931E-04 Eh
 * total energy  :   -53.9985233 Eh     change       -0.9910239E-04 Eh
 * total energy  :   -54.0142526 Eh     change       -0.4811330E-04 Eh
 * total energy  :   -54.0142800 Eh     change       -0.2739610E-04 Eh
 * total energy  :   -54.0143092 Eh     change       -0.2918650E-04 Eh
 * total energy  :   -54.0143225 Eh     change       -0.1325517E-04 Eh
 * total energy  :   -54.0143362 Eh     change       -0.1372958E-04 Eh
 * total energy  :   -54.0143487 Eh     change       -0.1246236E-04 Eh
 * total energy  :   -54.0143545 Eh     change       -0.5830300E-05 Eh
 * total energy  :   -54.0143627 Eh     change       -0.8228452E-05 Eh
 * total energy  :   -54.0143665 Eh     change       -0.3735469E-05 Eh
   *** GEOMETRY OPTIMIZATION CONVERGED AFTER 117 ITERATIONS ***

 final structure:
================
34
 xtb: 6.7.1 (edcfbbe)
O            1.97604749196237        0.72834690799034       -0.37287174173319
C            0.86936600046153        0.01027129754815       -0.38532331452097
O            0.74866361461666       -1.02774692677096       -0.98846506314643
C           -0.23107766654027        0.63945548635815        0.44701354277277
C           -1.47565754622626        0.97426892249811       -0.38480739789840
C           -2.06347042852850       -0.22629486405429       -1.13683452156757
N           -2.51605415131141       -1.25740557600379       -0.23320070189493
C           -3.74763885523467       -1.33358554554340        0.34452617990652
C           -3.74561341195488       -2.42753911618091        1.15476069423768
N           -2.50933158894125       -2.99306293504069        1.06566259073529
C           -1.78152657269833       -2.27022817996875        0.21845459102366
C           -2.07395366199675       -4.19466511063415        1.73797496181765
C           -2.38424025584204       -5.45546117181634        0.92164512465767
C           -1.67032051931429       -5.51161509402611       -0.43497323552557
C           -0.16529715789639       -5.38043221042306       -0.30310597852946
O            0.38825095350887       -4.41317980295427        0.16017384675610
O            0.47039088393123       -6.44483658620431       -0.75523408523538
H            2.68631991842892        0.32101660099758       -0.89674130502788
H           -0.48628779175667       -0.06041731926555        1.24620721944786
H            0.15886667368464        1.55092655729143        0.89779304441372
H           -2.23122109465817        1.39927526343292        0.27851399829033
H           -1.21887139266784        1.73099742082928       -1.12644977134200
H           -2.91234476194686        0.10304550165992       -1.73877330709292
H           -1.30286065822975       -0.65956800473910       -1.78851546407631
H           -4.52578518075048       -0.62660434234411        0.14165985293853
H           -4.52010190010234       -2.82613954388335        1.77755503234159
H           -0.75826220100148       -2.47352614704215       -0.05750236887714
H           -0.99757821271923       -4.11778201363912        1.90062428689078
H           -2.58237599345376       -4.25375699738428        2.70214301896718
H           -2.08337833406394       -6.31478830629193        1.52146819705409
H           -3.45978485492871       -5.52807501039221        0.74983772701712
H           -1.89136052147692       -6.46094112082858       -0.92052901821230
H           -2.01952389145221       -4.70224672328452       -1.08045198784609
H            1.43590306911163       -6.35676530988706       -0.68422464674542

          :  Hamiltonian                  GFN2-xTB          :
         :: total energy             -54.014366462992 Eh    ::
         :: gradient norm              0.000681089288 Eh/a0 ::
         :: HOMO-LUMO gap              3.890335947478 eV    ::
         :: SCC energy               -54.650652779208 Eh    ::
         :: -> dispersion             -0.029725353872 Eh    ::
         :: repulsion energy           0.636286316216 Eh    ::

    * Orbital Energies and Occupations

         #    Occupation            Energy/Eh            Energy/eV
      -------------------------------------------------------------
         1        2.0000           -0.8800055             -23.9462
       ...           ...                  ...                  ...
        35        2.0000           -0.6138716             -16.7043
        36        2.0000           -0.6065946             -16.5063
        37        2.0000           -0.5975253             -16.2595
        38        2.0000           -0.5953240             -16.1996
        39        2.0000           -0.5915907             -16.0980
        40        2.0000           -0.5914122             -16.0931
        41        2.0000           -0.5876260             -15.9901
        42        2.0000           -0.5828995             -15.8615
        43        2.0000           -0.5787045             -15.7474
        44        2.0000           -0.5736606             -15.6101
        45        2.0000           -0.5719697             -15.5641
        46        2.0000           -0.5338237             -14.5261
        47        2.0000           -0.5328118             -14.4985 (HOMO)
        48                         -0.3898446             -10.6082 (LUMO)
        49                         -0.3582255              -9.7478
        50                         -0.3487709              -9.4905
        51                         -0.3479878              -9.4692
        52                         -0.1698832              -4.6228
        53                         -0.1189253              -3.2361
        54                         -0.0658638              -1.7922
        55                         -0.0649350              -1.7670
        56                         -0.0597053              -1.6247
        57                         -0.0565854              -1.5398
        58                         -0.0370960              -1.0094
       ...                                ...                  ...
        85                          0.5246863              14.2774
      -------------------------------------------------------------
                  HL-Gap            0.1429672 Eh            3.8903 eV

     #   Z          covCN         q      C6AA      α(0)
     1   8 O        1.660    -0.346    19.827     6.011
     2   6 C        2.688     0.364    20.829     7.469
     3   8 O        0.856    -0.427    22.220     6.320
     4   6 C        3.802    -0.101    22.429     6.743
     5   6 C        3.802    -0.066    21.761     6.642
     6   6 C        3.742    -0.034    21.264     6.579
     7   7 N        2.873     0.070    20.020     6.645
     8   6 C        3.067    -0.011    28.232     8.713
     9   6 C        3.067    -0.011    28.231     8.712
    10   7 N        2.873     0.070    20.026     6.646
    11   6 C        3.088     0.040    27.006     8.518
    12   6 C        3.742    -0.034    21.256     6.578
    13   6 C        3.802    -0.066    21.761     6.642
    14   6 C        3.802    -0.101    22.428     6.743
    15   6 C        2.688     0.364    20.829     7.469
    16   8 O        0.856    -0.427    22.228     6.321
    17   8 O        1.660    -0.346    19.824     6.011
    18   1 H        0.804     0.347     0.596     1.213
    19   1 H        0.924     0.068     2.111     2.272
    20   1 H        0.925     0.092     1.860     2.133
    21   1 H        0.924     0.068     2.109     2.271
    22   1 H        0.924     0.080     1.981     2.201
    23   1 H        0.924     0.088     1.895     2.153
    24   1 H        0.924     0.109     1.708     2.043
    25   1 H        0.926     0.101     1.775     2.083
    26   1 H        0.926     0.101     1.775     2.084
    27   1 H        0.926     0.159     1.331     1.804
    28   1 H        0.924     0.108     1.716     2.049
    29   1 H        0.924     0.088     1.895     2.153
    30   1 H        0.924     0.080     1.981     2.201
    31   1 H        0.924     0.068     2.106     2.270
    32   1 H        0.925     0.092     1.859     2.132
    33   1 H        0.924     0.068     2.108     2.271
    34   1 H        0.804     0.347     0.596     1.213

Wiberg/Mayer (AO) data.
largest (>0.10) Wiberg bond orders for each atom

     #   Z sym  total        # sym  WBO       # sym  WBO       # sym  WBO
 ---------------------------------------------------------------------------
     1   8 O    2.251 --     2 C    1.186    18 H    0.853     3 O    0.182
     2   6 C    3.915 --     3 O    1.729     1 O    1.186     4 C    0.969
     3   8 O    2.024 --     2 C    1.729     1 O    0.182
     4   6 C    3.991 --     5 C    0.995    20 H    0.969     2 C    0.969
                            19 H    0.955
     5   6 C    3.988 --     4 C    0.995     6 C    0.989    21 H    0.972
                            22 H    0.969
     6   6 C    3.940 --     5 C    0.989     7 N    0.973    23 H    0.964
                            24 H    0.955
     7   7 N    3.717 --    11 C    1.365     8 C    1.224     6 C    0.973
     8   6 C    3.951 --     9 C    1.595     7 N    1.224    25 H    0.962
     9   6 C    3.951 --     8 C    1.595    10 N    1.224    26 H    0.962
    10   7 N    3.717 --    11 C    1.365     9 C    1.224    12 C    0.973
    11   6 C    3.932 --     7 N    1.365    10 N    1.365    27 H    0.929
    12   6 C    3.940 --    13 C    0.989    10 N    0.973    29 H    0.964
                            28 H    0.956
    13   6 C    3.987 --    14 C    0.994    12 C    0.989    31 H    0.972
                            30 H    0.969
    14   6 C    3.991 --    13 C    0.994    32 H    0.969    15 C    0.969
                            33 H    0.956
    15   6 C    3.915 --    16 O    1.729    17 O    1.186    14 C    0.969
    16   8 O    2.024 --    15 C    1.729    17 O    0.182
    17   8 O    2.251 --    15 C    1.186    34 H    0.853    16 O    0.182
    18   1 H    0.880 --     1 O    0.853
    19   1 H    0.995 --     4 C    0.955
    20   1 H    0.992 --     4 C    0.969
    21   1 H    0.995 --     5 C    0.972
    22   1 H    0.993 --     5 C    0.969
    23   1 H    0.992 --     6 C    0.964
    24   1 H    0.988 --     6 C    0.955
    25   1 H    0.990 --     8 C    0.962
    26   1 H    0.990 --     9 C    0.962
    27   1 H    0.975 --    11 C    0.929
    28   1 H    0.988 --    12 C    0.956
    29   1 H    0.992 --    12 C    0.964
    30   1 H    0.993 --    13 C    0.969
    31   1 H    0.995 --    13 C    0.972
    32   1 H    0.991 --    14 C    0.969
    33   1 H    0.995 --    14 C    0.956
    34   1 H    0.880 --    17 O    0.853
 ---------------------------------------------------------------------------

molecular dipole:
                 x           y           z       tot (Debye)
 q only:       -4.054      -4.160       0.621
   full:       -3.829      -4.204       0.562      14.524

           -------------------------------------------------
          | TOTAL ENERGY              -54.014366462992 Eh   |
          | GRADIENT NORM               0.000681089288 Eh/α |
          | HOMO-LUMO GAP               3.890335947478 eV   |
           -------------------------------------------------

 * finished run on 2024/12/20 at 02:09:48.078
