   * xtb version 6.7.1 (edcfbbe) compiled by 'conda@3ef47c1a292c' on 2024-11-25

   ID    Z sym.   atoms
    1    6 C      1-4, 6-8, 10
    2    7 N      5
    3    8 O      9
    4    1 H      11-30

          program call               : xtb C0191.xyz --opt --namespace C0191 --charge +1
          :  Hamiltonian                  GFN2-xTB          :
 * total energy  :   -33.9110645 Eh     change       -0.9785595E-10 Eh
 * total energy  :   -33.9188574 Eh     change       -0.7792949E-02 Eh
 * total energy  :   -33.9207724 Eh     change       -0.1915000E-02 Eh
 * total energy  :   -33.9209661 Eh     change       -0.1937174E-03 Eh
 * total energy  :   -33.9210945 Eh     change       -0.1283332E-03 Eh
 * total energy  :   -33.9211351 Eh     change       -0.4060398E-04 Eh
 * total energy  :   -33.9211840 Eh     change       -0.4894790E-04 Eh
 * total energy  :   -33.9212043 Eh     change       -0.2029431E-04 Eh
 * total energy  :   -33.9212113 Eh     change       -0.6993314E-05 Eh
 * total energy  :   -33.9212171 Eh     change       -0.5747575E-05 Eh
 * total energy  :   -33.9212220 Eh     change       -0.4948153E-05 Eh
   *** GEOMETRY OPTIMIZATION CONVERGED AFTER 11 ITERATIONS ***

 final structure:
================
30
 xtb: 6.7.1 (edcfbbe)
C            1.14042271857489        0.40080131689616        0.05516269029771
C            0.78760343306652        0.85411482760251       -1.35683044761538
C            1.08911890728323       -0.15574684453297       -2.48295779335570
C            0.43046044986848       -1.55466902441824       -2.34590197238926
N           -1.05524743861488       -1.73495009135532       -2.40685503262963
C           -1.65777214278590       -1.01801080237287       -3.54476814566318
C           -1.30676087208946       -3.18074567480851       -2.58629095463648
C           -1.72084103577544       -1.31581786624302       -1.16091134776160
O            0.65547438735095        0.38379362827088       -3.72097015457300
C            2.60114234551231       -0.42824271610223       -2.54910834882037
H            0.59462269400328       -0.48795774233630        0.35941210145344
H            0.89633718430782        1.19496734591807        0.75539149704737
H            2.20367161958912        0.20007715240871        0.14336068439949
H           -0.25885868560149        1.16106897831250       -1.41120656619497
H            1.37135321498805        1.75093609735721       -1.57830822414980
H            0.83902395889969       -2.13804386387058       -3.17410796720305
H            0.77522253811166       -1.99626925280223       -1.41057328613909
H           -1.14203019692854       -1.27984516037199       -4.46587903411628
H           -2.70989757678700       -1.28134637859757       -3.63224598714008
H           -1.56341967624370        0.05591710438717       -3.41071259246912
H           -0.83977701060145       -3.75164169095118       -1.78528526389216
H           -2.37788270800970       -3.37648827108574       -2.57277438473144
H           -0.90732237843936       -3.52207705250815       -3.53940214991727
H           -1.32714745519770       -1.87580020517960       -0.31466535650827
H           -1.57342445267465       -0.25522285861780       -0.98311120580797
H           -2.79059003659691       -1.50625638124142       -1.23323061656828
H            1.24910600332735        1.09611955560041       -3.98235601747235
H            3.14656047960517        0.51227821050599       -2.55310001620683
H            2.94230026761931       -1.01513424678085       -1.70240698380915
H            2.84356146423842       -0.96456809308293       -3.46376712342694

          :  Hamiltonian                  GFN2-xTB          :
         :: total energy             -33.921222006342 Eh    ::
         :: gradient norm              0.000597757522 Eh/a0 ::
         :: HOMO-LUMO gap              8.484760791352 eV    ::
         :: SCC energy               -34.356633169013 Eh    ::
         :: -> dispersion             -0.021901189999 Eh    ::
         :: repulsion energy           0.435411162671 Eh    ::

    * Orbital Energies and Occupations

         #    Occupation            Energy/Eh            Energy/eV
      -------------------------------------------------------------
         1        2.0000           -0.8619363             -23.4545
       ...           ...                  ...                  ...
        19        2.0000           -0.6455145             -17.5653
        20        2.0000           -0.6423028             -17.4779
        21        2.0000           -0.6335218             -17.2390
        22        2.0000           -0.6299841             -17.1427
        23        2.0000           -0.6275330             -17.0760
        24        2.0000           -0.6225936             -16.9416
        25        2.0000           -0.6063946             -16.5008
        26        2.0000           -0.5945027             -16.1772
        27        2.0000           -0.5927027             -16.1283
        28        2.0000           -0.5823110             -15.8455
        29        2.0000           -0.5776235             -15.7179
        30        2.0000           -0.5609473             -15.2642
        31        2.0000           -0.5430880             -14.7782 (HOMO)
        32                         -0.2312788              -6.2934 (LUMO)
        33                         -0.1615253              -4.3953
        34                         -0.1502002              -4.0872
        35                         -0.1374809              -3.7410
        36                         -0.1080775              -2.9409
        37                         -0.0823107              -2.2398
        38                         -0.0670894              -1.8256
        39                         -0.0589761              -1.6048
        40                         -0.0255416              -0.6950
        41                         -0.0063234              -0.1721
        42                          0.0031721               0.0863
       ...                                ...                  ...
        60                          0.1833283               4.9886
      -------------------------------------------------------------
                  HL-Gap            0.3118092 Eh            8.4848 eV

     #   Z          covCN         q      C6AA      α(0)
     1   6 C        3.751    -0.120    22.852     6.817
     2   6 C        3.801    -0.079    22.006     6.679
     3   6 C        3.769     0.144    18.296     6.096
     4   6 C        3.765    -0.051    21.526     6.613
     5   7 N        3.622     0.152    18.674     6.418
     6   6 C        3.721    -0.100    22.534     6.779
     7   6 C        3.737    -0.100    22.495     6.768
     8   6 C        3.723    -0.099    22.496     6.773
     9   8 O        1.656    -0.457    21.984     6.329
    10   6 C        3.760    -0.138    23.196     6.866
    11   1 H        0.925     0.033     2.548     2.496
    12   1 H        0.925     0.061     2.184     2.311
    13   1 H        0.925     0.055     2.253     2.347
    14   1 H        0.924     0.040     2.446     2.446
    15   1 H        0.924     0.059     2.206     2.323
    16   1 H        0.924     0.097     1.813     2.106
    17   1 H        0.924     0.087     1.910     2.161
    18   1 H        0.925     0.110     1.698     2.038
    19   1 H        0.925     0.091     1.865     2.136
    20   1 H        0.925     0.119     1.621     1.991
    21   1 H        0.925     0.097     1.814     2.106
    22   1 H        0.925     0.101     1.778     2.085
    23   1 H        0.925     0.100     1.783     2.088
    24   1 H        0.925     0.093     1.848     2.126
    25   1 H        0.925     0.109     1.708     2.044
    26   1 H        0.925     0.097     1.813     2.106
    27   1 H        0.805     0.310     0.691     1.305
    28   1 H        0.925     0.067     2.121     2.278
    29   1 H        0.925     0.059     2.212     2.326
    30   1 H        0.925     0.061     2.186     2.312

Wiberg/Mayer (AO) data.
largest (>0.10) Wiberg bond orders for each atom

     #   Z sym  total        # sym  WBO       # sym  WBO       # sym  WBO
 ---------------------------------------------------------------------------
     1   6 C    3.992 --     2 C    1.019    13 H    0.984    11 H    0.984
                            12 H    0.983
     2   6 C    3.992 --     1 C    1.019     3 C    0.975    15 H    0.970
                            14 H    0.966
     3   6 C    3.949 --    10 C    0.985     9 O    0.982     2 C    0.975
                             4 C    0.973
     4   6 C    3.929 --     3 C    0.973    17 H    0.965    16 H    0.963
                             5 N    0.928
     5   7 N    3.819 --     8 C    0.959     7 C    0.957     6 C    0.953
                             4 C    0.928
     6   6 C    3.917 --    19 H    0.975    18 H    0.973    20 H    0.967
                             5 N    0.953
     7   6 C    3.928 --    21 H    0.976    23 H    0.975    22 H    0.974
                             5 N    0.957
     8   6 C    3.927 --    24 H    0.975    26 H    0.974    25 H    0.964
                             5 N    0.959
     9   8 O    1.957 --     3 C    0.982    27 H    0.884
    10   6 C    3.987 --     3 C    0.985    30 H    0.982    29 H    0.981
                            28 H    0.979
    11   1 H    0.999 --     1 C    0.984
    12   1 H    0.996 --     1 C    0.983
    13   1 H    0.997 --     1 C    0.984
    14   1 H    0.998 --     2 C    0.966
    15   1 H    0.996 --     2 C    0.970
    16   1 H    0.991 --     4 C    0.963
    17   1 H    0.992 --     4 C    0.965
    18   1 H    0.988 --     6 C    0.973
    19   1 H    0.991 --     6 C    0.975
    20   1 H    0.986 --     6 C    0.967
    21   1 H    0.991 --     7 C    0.976
    22   1 H    0.989 --     7 C    0.974
    23   1 H    0.990 --     7 C    0.975
    24   1 H    0.991 --     8 C    0.975
    25   1 H    0.988 --     8 C    0.964
    26   1 H    0.990 --     8 C    0.974
    27   1 H    0.904 --     9 O    0.884
    28   1 H    0.995 --    10 C    0.979
    29   1 H    0.997 --    10 C    0.981
    30   1 H    0.996 --    10 C    0.982
 ---------------------------------------------------------------------------

molecular dipole:
                 x           y           z       tot (Debye)
 q only:       -1.115      -2.741      -4.210
   full:       -0.965      -2.684      -4.163      12.826

           -------------------------------------------------
          | TOTAL ENERGY              -33.921222006342 Eh   |
          | GRADIENT NORM               0.000597757522 Eh/α |
          | HOMO-LUMO GAP               8.484760791352 eV   |
           -------------------------------------------------

 * finished run on 2024/12/20 at 02:09:38.548
