   * xtb version 6.7.1 (edcfbbe) compiled by 'conda@3ef47c1a292c' on 2024-11-25

   ID    Z sym.   atoms
    1    6 C      1-3, 5, 7-19
    2    7 N      4, 6
    3   35 Br     20
    4    1 H      21-36

          program call               : xtb C0193.xyz --opt --namespace C0193 --charge +1
          :  Hamiltonian                  GFN2-xTB          :
 * total energy  :   -54.0892632 Eh     change       -0.1966932E-08 Eh
 * total energy  :   -54.0944476 Eh     change       -0.5184380E-02 Eh
 * total energy  :   -54.0950393 Eh     change       -0.5916952E-03 Eh
 * total energy  :   -54.0951409 Eh     change       -0.1016181E-03 Eh
 * total energy  :   -54.0952229 Eh     change       -0.8196999E-04 Eh
 * total energy  :   -54.0952810 Eh     change       -0.5813888E-04 Eh
 * total energy  :   -54.0953256 Eh     change       -0.4460210E-04 Eh
 * total energy  :   -54.0953863 Eh     change       -0.6067916E-04 Eh
 * total energy  :   -54.0954627 Eh     change       -0.7638794E-04 Eh
 * total energy  :   -54.0955409 Eh     change       -0.7820223E-04 Eh
 * total energy  :   -54.0957864 Eh     change       -0.2754744E-04 Eh
 * total energy  :   -54.0957966 Eh     change       -0.1018357E-04 Eh
 * total energy  :   -54.0958064 Eh     change       -0.9773403E-05 Eh
 * total energy  :   -54.0958175 Eh     change       -0.1111181E-04 Eh
 * total energy  :   -54.0958280 Eh     change       -0.1047784E-04 Eh
 * total energy  :   -54.0958425 Eh     change       -0.1450337E-04 Eh
 * total energy  :   -54.0958560 Eh     change       -0.1349255E-04 Eh
 * total energy  :   -54.0958626 Eh     change       -0.6624081E-05 Eh
 * total energy  :   -54.0958664 Eh     change       -0.3861625E-05 Eh
   *** GEOMETRY OPTIMIZATION CONVERGED AFTER 23 ITERATIONS ***

 final structure:
================
36
 xtb: 6.7.1 (edcfbbe)
C            0.97116460487740       -0.68336562853843       -0.02068179574958
C            0.34494869177841       -0.36051663757846       -1.13591551038009
C           -1.14316061276348       -0.17498805659042       -1.23618660124852
N           -1.47004743809350        1.10304620548449       -1.83862738863431
C           -0.91731204697047        2.26624123800100       -1.51092600356400
N           -1.39684734884816        3.25856501534931       -2.25247415676799
C           -2.32839401599104        2.72295275943778       -3.11715784043467
C           -2.37474239230693        1.33905626350251       -2.85210976203500
C           -3.22298914554918        0.49678945378212       -3.56266209420562
C           -4.00784557322135        1.07549959119158       -4.53721331220972
C           -3.95421287207123        2.44640945436257       -4.80806398810286
C           -3.11893602761010        3.29200742311927       -4.10960783467339
C           -1.07612507552583        4.66455595758370       -2.08970759849486
C           -1.91374247192028        5.26166458283846       -0.98144942061405
C           -1.38877108700565        5.39743252200163        0.29785513496802
C           -2.15913884227548        5.91274289894436        1.32343756336032
C           -3.46977737447249        6.28821103655273        1.06860479220654
C           -4.00813872715619        6.15880297588093       -0.20341791986183
C           -3.22802873637217        5.64492989625371       -1.22177991768035
Br          -4.54024337259771        6.98441669405846        2.47589195986264
H            0.44670754474301       -0.82830985892580        0.90885002474628
H            2.03486512368747       -0.83881428421816        0.00272538500108
H            0.88424595880088       -0.23357879903692       -2.06463245523259
H           -1.57208922925655       -0.95674560921520       -1.86759166390091
H           -1.60251317361811       -0.23827500786446       -0.24495503184982
H           -0.17118156517831        2.38067541482342       -0.74704199842865
H           -3.27108920487752       -0.56154203947907       -3.36573304099316
H           -4.67945847925818        0.45630944683466       -5.10982669663146
H           -4.58337338614982        2.84974706313929       -5.58529228677381
H           -3.08129737708336        4.34544087455848       -4.33320216641083
H           -0.01398298626691        4.75331935364326       -1.85218575248107
H           -1.27102768947480        5.16836720863176       -3.03770650959879
H           -0.36514561793166        5.11607951142675        0.49751853594322
H           -1.74715272498965        6.02581723229411        2.31330713387813
H           -5.02565852114259        6.46109520159021       -0.39356959243573
H           -3.65005880791312        5.55121064615892       -2.21047219057221

          :  Hamiltonian                  GFN2-xTB          :
         :: total energy             -54.095866440397 Eh    ::
         :: gradient norm              0.000935985593 Eh/a0 ::
         :: HOMO-LUMO gap              1.987893023942 eV    ::
         :: SCC energy               -54.997168847517 Eh    ::
         :: -> dispersion             -0.038407179442 Eh    ::
         :: repulsion energy           0.901302407121 Eh    ::

    * Orbital Energies and Occupations

         #    Occupation            Energy/Eh            Energy/eV
      -------------------------------------------------------------
         1        2.0000           -0.9204242             -25.0460
       ...           ...                  ...                  ...
        38        2.0000           -0.5967002             -16.2370
        39        2.0000           -0.5843420             -15.9008
        40        2.0000           -0.5775656             -15.7164
        41        2.0000           -0.5668137             -15.4238
        42        2.0000           -0.5586406             -15.2014
        43        2.0000           -0.5573962             -15.1675
        44        2.0000           -0.5510706             -14.9954
        45        2.0000           -0.5487915             -14.9334
        46        2.0000           -0.5471242             -14.8880
        47        2.0000           -0.5428926             -14.7729
        48        2.0000           -0.5341119             -14.5339
        49        2.0000           -0.4960946             -13.4994
        50        2.0000           -0.4913017             -13.3690 (HOMO)
        51                         -0.4182480             -11.3811 (LUMO)
        52                         -0.3685760             -10.0295
        53                         -0.3621598              -9.8549
        54                         -0.3558901              -9.6843
        55                         -0.3520800              -9.5806
        56                         -0.3444010              -9.3716
        57                         -0.2904184              -7.9027
        58                         -0.2423377              -6.5943
        59                         -0.2338556              -6.3635
        60                         -0.1712096              -4.6589
        61                         -0.1290912              -3.5128
       ...                                ...                  ...
       101                          0.5365234              14.5995
      -------------------------------------------------------------
                  HL-Gap            0.0730537 Eh            1.9879 eV

     #   Z          covCN         q      C6AA      α(0)
     1   6 C        2.837    -0.081    30.006     8.977
     2   6 C        2.886    -0.044    29.081     8.841
     3   6 C        3.746    -0.021    21.010     6.538
     4   7 N        2.828     0.033    20.664     6.751
     5   6 C        3.075     0.067    26.422     8.428
     6   7 N        2.828     0.033    20.665     6.752
     7   6 C        3.120     0.041    26.909     8.496
     8   6 C        3.119     0.040    26.938     8.501
     9   6 C        2.908    -0.031    28.783     8.797
    10   6 C        2.925    -0.017    28.428     8.744
    11   6 C        2.925    -0.017    28.443     8.746
    12   6 C        2.909    -0.031    28.780     8.797
    13   6 C        3.747    -0.023    21.049     6.544
    14   6 C        2.971    -0.004    28.113     8.697
    15   6 C        2.925    -0.036    28.884     8.814
    16   6 C        2.989    -0.031    28.752     8.796
    17   6 C        2.915     0.092    25.964     8.356
    18   6 C        2.990    -0.031    28.754     8.796
    19   6 C        2.925    -0.034    28.853     8.809
    20  35 Br       1.065    -0.123   188.413    22.132
    21   1 H        0.926     0.066     2.127     2.281
    22   1 H        0.926     0.078     2.004     2.214
    23   1 H        0.925     0.056     2.242     2.341
    24   1 H        0.924     0.093     1.847     2.125
    25   1 H        0.924     0.088     1.902     2.157
    26   1 H        0.926     0.105     1.739     2.062
    27   1 H        0.926     0.071     2.072     2.251
    28   1 H        0.926     0.082     1.956     2.187
    29   1 H        0.926     0.082     1.962     2.190
    30   1 H        0.926     0.070     2.086     2.259
    31   1 H        0.924     0.083     1.952     2.185
    32   1 H        0.924     0.091     1.872     2.140
    33   1 H        0.926     0.050     2.323     2.383
    34   1 H        0.926     0.076     2.026     2.226
    35   1 H        0.926     0.075     2.033     2.229
    36   1 H        0.926     0.051     2.308     2.376

Wiberg/Mayer (AO) data.
largest (>0.10) Wiberg bond orders for each atom

     #   Z sym  total        # sym  WBO       # sym  WBO       # sym  WBO
 ---------------------------------------------------------------------------
     1   6 C    3.983 --     2 C    1.986    21 H    0.972    22 H    0.971
     2   6 C    3.981 --     1 C    1.986     3 C    1.005    23 H    0.963
     3   6 C    3.940 --     2 C    1.005     4 N    0.960    25 H    0.952
                            24 H    0.952
     4   7 N    3.683 --     5 C    1.370     8 C    1.131     3 C    0.960
                             6 N    0.103
     5   6 C    3.954 --     6 N    1.370     4 N    1.370    26 H    0.953
     6   7 N    3.682 --     5 C    1.370     7 C    1.130    13 C    0.958
                             4 N    0.103
     7   6 C    3.951 --    12 C    1.336     8 C    1.270     6 N    1.130
     8   6 C    3.953 --     9 C    1.336     7 C    1.270     4 N    1.131
     9   6 C    3.985 --    10 C    1.499     8 C    1.336    27 H    0.961
                            12 C    0.119
    10   6 C    3.985 --     9 C    1.499    11 C    1.373    28 H    0.966
    11   6 C    3.985 --    12 C    1.498    10 C    1.373    29 H    0.966
    12   6 C    3.986 --    11 C    1.498     7 C    1.336    30 H    0.961
                             9 C    0.119
    13   6 C    3.939 --    14 C    0.982    31 H    0.963    32 H    0.960
                             6 N    0.958
    14   6 C    3.980 --    15 C    1.409    19 C    1.407    13 C    0.982
    15   6 C    3.990 --    16 C    1.447    14 C    1.409    33 H    0.966
                            18 C    0.107
    16   6 C    3.987 --    15 C    1.447    17 C    1.400    34 H    0.965
                            19 C    0.107
    17   6 C    3.948 --    16 C    1.400    18 C    1.399    20 Br   1.018
    18   6 C    3.988 --    19 C    1.449    17 C    1.399    35 H    0.965
                            15 C    0.107
    19   6 C    3.991 --    18 C    1.449    14 C    1.407    36 H    0.965
                            16 C    0.107
    20  35 Br   1.169 --    17 C    1.018
    21   1 H    0.996 --     1 C    0.972
    22   1 H    0.993 --     1 C    0.971
    23   1 H    0.997 --     2 C    0.963
    24   1 H    0.991 --     3 C    0.952
    25   1 H    0.991 --     3 C    0.952
    26   1 H    0.988 --     5 C    0.953
    27   1 H    0.994 --     9 C    0.961
    28   1 H    0.993 --    10 C    0.966
    29   1 H    0.993 --    11 C    0.966
    30   1 H    0.994 --    12 C    0.961
    31   1 H    0.992 --    13 C    0.963
    32   1 H    0.991 --    13 C    0.960
    33   1 H    0.998 --    15 C    0.966
    34   1 H    0.994 --    16 C    0.965
    35   1 H    0.994 --    18 C    0.965
    36   1 H    0.997 --    19 C    0.965
 ---------------------------------------------------------------------------

molecular dipole:
                 x           y           z       tot (Debye)
 q only:       -2.962       3.922      -4.308
   full:       -2.717       3.890      -4.403      16.452

           -------------------------------------------------
          | TOTAL ENERGY              -54.095866440397 Eh   |
          | GRADIENT NORM               0.000935985593 Eh/α |
          | HOMO-LUMO GAP               1.987893023942 eV   |
           -------------------------------------------------

 * finished run on 2024/12/20 at 02:09:41.268
