   * xtb version 6.7.1 (edcfbbe) compiled by 'conda@3ef47c1a292c' on 2024-11-25

   ID    Z sym.   atoms
    1    6 C      1, 3, 5-8, 12-19
    2    7 N      2, 4, 9-11
    3    1 H      20-35

          program call               : xtb C0195.xyz --opt --namespace C0195 --charge +1
          :  Hamiltonian                  GFN2-xTB          :
 * total energy  :   -52.3501087 Eh     change       -0.7798704E-09 Eh
 * total energy  :   -52.3576074 Eh     change       -0.7498639E-02 Eh
 * total energy  :   -52.3589138 Eh     change       -0.1306458E-02 Eh
 * total energy  :   -52.3591068 Eh     change       -0.1929247E-03 Eh
 * total energy  :   -52.3593038 Eh     change       -0.1970722E-03 Eh
 * total energy  :   -52.3593997 Eh     change       -0.9584863E-04 Eh
 * total energy  :   -52.3595951 Eh     change       -0.1953886E-03 Eh
 * total energy  :   -52.3598664 Eh     change       -0.2713451E-03 Eh
 * total energy  :   -52.3601836 Eh     change       -0.3171450E-03 Eh
 * total energy  :   -52.3604951 Eh     change       -0.3115524E-03 Eh
 * total energy  :   -52.3653023 Eh     change       -0.9714542E-05 Eh
 * total energy  :   -52.3653146 Eh     change       -0.1230218E-04 Eh
 * total energy  :   -52.3653386 Eh     change       -0.2408280E-04 Eh
 * total energy  :   -52.3653707 Eh     change       -0.3210661E-04 Eh
 * total energy  :   -52.3653897 Eh     change       -0.1899388E-04 Eh
 * total energy  :   -52.3654080 Eh     change       -0.1830718E-04 Eh
 * total energy  :   -52.3654231 Eh     change       -0.1506124E-04 Eh
 * total energy  :   -52.3654296 Eh     change       -0.6491697E-05 Eh
 * total energy  :   -52.3654339 Eh     change       -0.4327964E-05 Eh
   *** GEOMETRY OPTIMIZATION CONVERGED AFTER 115 ITERATIONS ***

 final structure:
================
35
 xtb: 6.7.1 (edcfbbe)
C           -0.23873002970847        0.87741792666375        1.19957860492458
N            0.19270722501816       -0.27277208862823        1.94567432047591
C            0.63524658513354       -1.41848890202151        1.44075805480207
N            0.91731876096302       -2.25740106291655        2.43543537902548
C            0.63934555331586       -1.63041053570796        3.60956605652742
C            0.18871071197646       -0.38244374584978        3.30354109159760
C            1.31263759488828       -3.63458260994640        2.25633495342414
C            0.25256734563821       -4.34751840270252        1.47021195337457
N           -0.65449790296454       -3.65759356266768        0.74475482179776
N           -1.43803199655049       -4.48615441127074        0.16039319496405
N           -1.07523688978156       -5.71226668323400        0.46978781051877
C           -0.01237310922011       -5.69102772183226        1.30166084553821
C           -1.77102588635688       -6.86390348889007       -0.04870138009337
C           -2.16969646586468       -7.80159746332196        1.06358800056947
C           -1.68006537459204       -9.09918964406678        1.10770506170605
C           -2.05464109304247       -9.95086723124471        2.13320601933001
C           -2.91215295539935       -9.50739275120342        3.12507682841386
C           -3.39787547451448       -8.21035457010943        3.08968147146681
C           -3.02983876515156       -7.36046429794066        2.06241475364242
H            0.24191119862639        1.77617730148026        1.58544660108693
H           -1.31991865027652        0.99685665033464        1.28538012560469
H            0.01824295977630        0.75344135155475        0.15019784990269
H            0.73020343474877       -1.64670283333506        0.39762958949338
H            0.77708205651689       -2.09737951946678        4.56297540940021
H           -0.12763613873469        0.41318717481694        3.94621341743900
H            2.26759968002393       -3.67196634185303        1.71878734656336
H            1.44773611291269       -4.10059078998250        3.23455169074332
H            0.44749109426801       -6.57448858798949        1.68863354665761
H           -2.64819591384055       -6.47816313988316       -0.57531339658129
H           -1.12496954483598       -7.37791767384754       -0.76726799492825
H           -1.01324924371235       -9.44979337331851        0.33311966373947
H           -1.67646226060841      -10.96132390061350        2.15501049685093
H           -3.20546084497468      -10.17244851202104        3.92241320844618
H           -4.07043107488911       -7.86281408024082        3.85890741367340
H           -3.41658069884508       -6.35144247873567        2.02788718992287

          :  Hamiltonian                  GFN2-xTB          :
         :: total energy             -52.365433931935 Eh    ::
         :: gradient norm              0.000954326635 Eh/a0 ::
         :: HOMO-LUMO gap              2.667472434970 eV    ::
         :: SCC energy               -53.183124738541 Eh    ::
         :: -> dispersion             -0.033108299058 Eh    ::
         :: repulsion energy           0.817690806606 Eh    ::

    * Orbital Energies and Occupations

         #    Occupation            Energy/Eh            Energy/eV
      -------------------------------------------------------------
         1        2.0000           -0.8826631             -24.0185
       ...           ...                  ...                  ...
        36        2.0000           -0.5751982             -15.6519
        37        2.0000           -0.5731311             -15.5957
        38        2.0000           -0.5704966             -15.5240
        39        2.0000           -0.5639662             -15.3463
        40        2.0000           -0.5608326             -15.2610
        41        2.0000           -0.5458846             -14.8543
        42        2.0000           -0.5311038             -14.4521
        43        2.0000           -0.5295510             -14.4098
        44        2.0000           -0.5130548             -13.9609
        45        2.0000           -0.5087233             -13.8431
        46        2.0000           -0.5028260             -13.6826
        47        2.0000           -0.4923959             -13.3988
        48        2.0000           -0.4902320             -13.3399 (HOMO)
        49                         -0.3922042             -10.6724 (LUMO)
        50                         -0.3593907              -9.7795
        51                         -0.3473040              -9.4506
        52                         -0.3150595              -8.5732
        53                         -0.3105205              -8.4497
        54                         -0.3072123              -8.3597
        55                         -0.1857577              -5.0547
        56                         -0.1736873              -4.7263
        57                         -0.1218095              -3.3146
        58                         -0.0971193              -2.6427
        59                         -0.0451790              -1.2294
       ...                                ...                  ...
        92                          0.5761972              15.6791
      -------------------------------------------------------------
                  HL-Gap            0.0980278 Eh            2.6675 eV

     #   Z          covCN         q      C6AA      α(0)
     1   6 C        3.693    -0.088    22.364     6.766
     2   7 N        2.870     0.083    19.796     6.608
     3   6 C        3.098     0.052    26.720     8.471
     4   7 N        2.878     0.076    19.911     6.627
     5   6 C        3.069    -0.007    28.120     8.695
     6   6 C        3.075    -0.011    28.206     8.708
     7   6 C        3.746    -0.023    21.059     6.546
     8   6 C        3.124     0.042    26.866     8.488
     9   7 N        2.070    -0.209    26.252     7.601
    10   7 N        2.182    -0.108    23.833     7.245
    11   7 N        3.028     0.109    19.364     6.536
    12   6 C        2.980    -0.025    28.615     8.775
    13   6 C        3.747    -0.025    21.090     6.550
    14   6 C        2.972     0.001    28.006     8.681
    15   6 C        2.923    -0.036    28.890     8.814
    16   6 C        2.919    -0.024    28.612     8.772
    17   6 C        2.920    -0.024    28.612     8.772
    18   6 C        2.919    -0.025    28.639     8.776
    19   6 C        2.923    -0.036    28.906     8.817
    20   1 H        0.925     0.105     1.740     2.063
    21   1 H        0.924     0.108     1.710     2.045
    22   1 H        0.925     0.101     1.773     2.082
    23   1 H        0.926     0.131     1.527     1.932
    24   1 H        0.926     0.104     1.745     2.066
    25   1 H        0.926     0.108     1.712     2.046
    26   1 H        0.924     0.089     1.884     2.147
    27   1 H        0.924     0.089     1.886     2.148
    28   1 H        0.927     0.058     2.223     2.332
    29   1 H        0.924     0.092     1.856     2.131
    30   1 H        0.924     0.073     2.056     2.242
    31   1 H        0.926     0.039     2.463     2.454
    32   1 H        0.926     0.049     2.327     2.386
    33   1 H        0.926     0.050     2.325     2.384
    34   1 H        0.926     0.046     2.375     2.410
    35   1 H        0.926     0.035     2.515     2.480

Wiberg/Mayer (AO) data.
largest (>0.10) Wiberg bond orders for each atom

     #   Z sym  total        # sym  WBO       # sym  WBO       # sym  WBO
 ---------------------------------------------------------------------------
     1   6 C    3.934 --     2 N    0.991    22 H    0.975    20 H    0.966
                            21 H    0.960
     2   7 N    3.723 --     3 C    1.368     6 C    1.223     1 C    0.991
     3   6 C    3.943 --     2 N    1.368     4 N    1.354    23 H    0.948
     4   7 N    3.716 --     3 C    1.354     5 C    1.228     7 C    0.975
     5   6 C    3.949 --     6 C    1.593     4 N    1.228    24 H    0.962
     6   6 C    3.947 --     5 C    1.593     2 N    1.223    25 H    0.961
     7   6 C    3.946 --     8 C    0.989     4 N    0.975    27 H    0.962
                            26 H    0.947
     8   6 C    3.970 --    12 C    1.476     9 N    1.349     7 C    0.989
     9   7 N    3.048 --    10 N    1.460     8 C    1.349    11 N    0.118
    10   7 N    3.010 --     9 N    1.460    11 N    1.277    12 C    0.132
    11   7 N    3.728 --    12 C    1.288    10 N    1.277    13 C    0.970
                             9 N    0.118
    12   6 C    3.960 --     8 C    1.476    11 N    1.288    28 H    0.968
                            10 N    0.132
    13   6 C    3.951 --    14 C    0.990    11 N    0.970    29 H    0.957
                            30 H    0.956
    14   6 C    3.983 --    15 C    1.420    19 C    1.411    13 C    0.990
                            17 C    0.109
    15   6 C    3.990 --    16 C    1.439    14 C    1.420    31 H    0.968
                            18 C    0.111
    16   6 C    3.991 --    17 C    1.443    15 C    1.439    32 H    0.970
                            19 C    0.113
    17   6 C    3.990 --    16 C    1.443    18 C    1.435    33 H    0.970
                            14 C    0.109
    18   6 C    3.992 --    19 C    1.449    17 C    1.435    34 H    0.970
                            15 C    0.111
    19   6 C    3.992 --    18 C    1.449    14 C    1.411    35 H    0.970
                            16 C    0.113
    20   1 H    0.988 --     1 C    0.966
    21   1 H    0.988 --     1 C    0.960
    22   1 H    0.989 --     1 C    0.975
    23   1 H    0.983 --     3 C    0.948
    24   1 H    0.989 --     5 C    0.962
    25   1 H    0.988 --     6 C    0.961
    26   1 H    0.992 --     7 C    0.947
    27   1 H    0.992 --     7 C    0.962
    28   1 H    0.997 --    12 C    0.968
    29   1 H    0.991 --    13 C    0.957
    30   1 H    0.994 --    13 C    0.956
    31   1 H    0.998 --    15 C    0.968
    32   1 H    0.997 --    16 C    0.970
    33   1 H    0.997 --    17 C    0.970
    34   1 H    0.998 --    18 C    0.970
    35   1 H    0.999 --    19 C    0.970
 ---------------------------------------------------------------------------

molecular dipole:
                 x           y           z       tot (Debye)
 q only:        0.382      -4.618       3.897
   full:        0.754      -5.070       4.083      16.656

           -------------------------------------------------
          | TOTAL ENERGY              -52.365433931935 Eh   |
          | GRADIENT NORM               0.000954326635 Eh/α |
          | HOMO-LUMO GAP               2.667472434970 eV   |
           -------------------------------------------------

 * finished run on 2024/12/20 at 02:09:45.186
