   * xtb version 6.7.1 (edcfbbe) compiled by 'conda@3ef47c1a292c' on 2024-11-25

   ID    Z sym.   atoms
    1    6 C      1-10, 12, 14, 15, 17, 18
    2    8 O      11
    3    7 N      13, 16
    4    1 H      19-37

          program call               : xtb C0192.xyz --opt --namespace C0192 --charge +1
          :  Hamiltonian                  GFN2-xTB          :
 * total energy  :   -51.3332216 Eh     change       -0.4517844E-09 Eh
 * total energy  :   -51.3410101 Eh     change       -0.7788516E-02 Eh
 * total energy  :   -51.3429452 Eh     change       -0.1935138E-02 Eh
 * total energy  :   -51.3433099 Eh     change       -0.3646972E-03 Eh
 * total energy  :   -51.3435739 Eh     change       -0.2639201E-03 Eh
 * total energy  :   -51.3437065 Eh     change       -0.1326959E-03 Eh
 * total energy  :   -51.3438783 Eh     change       -0.1717489E-03 Eh
 * total energy  :   -51.3441205 Eh     change       -0.2422183E-03 Eh
 * total energy  :   -51.3443352 Eh     change       -0.2147243E-03 Eh
 * total energy  :   -51.3444898 Eh     change       -0.1545295E-03 Eh
 * total energy  :   -51.3454389 Eh     change       -0.1398788E-04 Eh
 * total energy  :   -51.3454522 Eh     change       -0.1332137E-04 Eh
 * total energy  :   -51.3454714 Eh     change       -0.1920591E-04 Eh
 * total energy  :   -51.3454934 Eh     change       -0.2200101E-04 Eh
 * total energy  :   -51.3455092 Eh     change       -0.1573369E-04 Eh
 * total energy  :   -51.3455358 Eh     change       -0.2667136E-04 Eh
 * total energy  :   -51.3455489 Eh     change       -0.1302615E-04 Eh
 * total energy  :   -51.3455573 Eh     change       -0.8434829E-05 Eh
 * total energy  :   -51.3455614 Eh     change       -0.4134077E-05 Eh
   *** GEOMETRY OPTIMIZATION CONVERGED AFTER 42 ITERATIONS ***

 final structure:
================
37
 xtb: 6.7.1 (edcfbbe)
C            2.14135009828836        1.51305387412634       -0.76943386202340
C            1.08903251465373        0.52509660615571       -0.38518949983452
C           -0.25407987011767        0.87642912850821       -0.40782167171088
C           -1.24746699333423       -0.01890821155214       -0.04121233280907
C           -2.68469828196831        0.41364545262651       -0.05034149709840
C           -0.87586597181566       -1.30622517404837        0.35738140597118
C            0.47296610090892       -1.67307373339163        0.42406088751474
C            1.43353453222793       -0.75231712367041        0.03957394952151
C            0.87565217511870       -3.02579121832688        0.92974000642794
C           -1.90820278699086       -2.30801221466325        0.71354027029189
O           -2.20119757597770       -2.69163525942016        1.80462586830531
C           -2.64098078632726       -2.90903644170181       -0.54028163265795
N           -1.70884478798029       -3.24308175838729       -1.57475916221469
C           -1.12717832357094       -2.36521512473765       -2.43929637616351
C           -0.21841275588758       -3.06377006873094       -3.17525963663293
N           -0.25286638278194       -4.35477972723383       -2.74611875762417
C           -1.15849743729185       -4.44027665918505       -1.77504606606152
C            0.53886998597821       -5.43089337492829       -3.27692787242872
H            1.77623932194752        2.19713563188849       -1.53133298031780
H            2.42181183844189        2.10480455418878        0.10194467052038
H            3.03474269665979        1.01316317814868       -1.13456604238056
H           -0.53553418027590        1.87554295945858       -0.70579463223117
H           -3.27874642373391       -0.15947494443741        0.65771305102439
H           -2.75461621032301        1.46405511632096        0.22132860241157
H           -3.12222212664810        0.31054107840026       -1.04526627295579
H            2.47565128109422       -1.03101719323520        0.08793572715003
H            0.79684650243507       -3.04160282417296        2.01689809443447
H            0.23307227478595       -3.81899105645539        0.54756382032255
H            1.90662947479898       -3.24586913102818        0.66438000291827
H           -3.19173088170880       -3.79633049472427       -0.22252948151256
H           -3.34381942171041       -2.15680373315824       -0.90355663593122
H           -1.38671940568894       -1.32771992209748       -2.47537963864468
H            0.43383993454449       -2.73264204284345       -3.95705200514036
H           -1.41749567291471       -5.33610614746552       -1.24393862128791
H            0.44673042172136       -6.30954019545996       -2.64242282611943
H            0.20382239014016       -5.68418276674375       -4.28428346355064
H            1.58605473330174       -5.13202103802332       -3.32699538947989

          :  Hamiltonian                  GFN2-xTB          :
         :: total energy             -51.345561425090 Eh    ::
         :: gradient norm              0.000954190003 Eh/a0 ::
         :: HOMO-LUMO gap              2.495438180039 eV    ::
         :: SCC energy               -52.161785006990 Eh    ::
         :: -> dispersion             -0.038066433001 Eh    ::
         :: repulsion energy           0.816223581900 Eh    ::

    * Orbital Energies and Occupations

         #    Occupation            Energy/Eh            Energy/eV
      -------------------------------------------------------------
         1        2.0000           -0.8992822             -24.4707
       ...           ...                  ...                  ...
        35        2.0000           -0.5925019             -16.1228
        36        2.0000           -0.5913341             -16.0910
        37        2.0000           -0.5853657             -15.9286
        38        2.0000           -0.5847763             -15.9126
        39        2.0000           -0.5821049             -15.8399
        40        2.0000           -0.5691721             -15.4880
        41        2.0000           -0.5537040             -15.0671
        42        2.0000           -0.5528999             -15.0452
        43        2.0000           -0.5487162             -14.9313
        44        2.0000           -0.5332645             -14.5109
        45        2.0000           -0.5207979             -14.1716
        46        2.0000           -0.5045648             -13.7299
        47        2.0000           -0.5020213             -13.6607 (HOMO)
        48                         -0.4103156             -11.1653 (LUMO)
        49                         -0.3898545             -10.6085
        50                         -0.3731871             -10.1549
        51                         -0.3334005              -9.0723
        52                         -0.3321305              -9.0377
        53                         -0.2112393              -5.7481
        54                         -0.1807633              -4.9188
        55                         -0.1259201              -3.4265
        56                         -0.0837793              -2.2798
        57                         -0.0593651              -1.6154
        58                         -0.0463233              -1.2605
       ...                                ...                  ...
        91                          0.5507171              14.9858
      -------------------------------------------------------------
                  HL-Gap            0.0917057 Eh            2.4954 eV

     #   Z          covCN         q      C6AA      α(0)
     1   6 C        3.759    -0.119    22.833     6.812
     2   6 C        2.962     0.028    27.385     8.584
     3   6 C        2.931    -0.053    29.325     8.881
     4   6 C        2.964     0.016    27.660     8.627
     5   6 C        3.757    -0.117    22.796     6.807
     6   6 C        2.981    -0.050    29.245     8.871
     7   6 C        2.966     0.014    27.708     8.634
     8   6 C        2.930    -0.054    29.340     8.883
     9   6 C        3.757    -0.112    22.701     6.793
    10   6 C        2.814     0.243    22.929     7.845
    11   8 O        0.857    -0.289    19.581     5.933
    12   6 C        3.740    -0.059    21.715     6.649
    13   7 N        2.867     0.073    19.968     6.637
    14   6 C        3.070    -0.007    28.111     8.694
    15   6 C        3.073    -0.010    28.178     8.703
    16   7 N        2.865     0.079    19.864     6.620
    17   6 C        3.098     0.043    26.927     8.504
    18   6 C        3.692    -0.087    22.349     6.764
    19   1 H        0.925     0.057     2.232     2.336
    20   1 H        0.925     0.071     2.072     2.251
    21   1 H        0.925     0.055     2.263     2.352
    22   1 H        0.926     0.055     2.263     2.353
    23   1 H        0.925     0.048     2.345     2.395
    24   1 H        0.925     0.070     2.085     2.258
    25   1 H        0.924     0.045     2.388     2.417
    26   1 H        0.926     0.050     2.318     2.381
    27   1 H        0.925     0.077     2.014     2.219
    28   1 H        0.925     0.020     2.732     2.585
    29   1 H        0.925     0.053     2.283     2.363
    30   1 H        0.924     0.102     1.767     2.079
    31   1 H        0.924     0.111     1.690     2.033
    32   1 H        0.927     0.109     1.701     2.040
    33   1 H        0.926     0.110     1.699     2.038
    34   1 H        0.926     0.113     1.667     2.019
    35   1 H        0.925     0.101     1.777     2.085
    36   1 H        0.924     0.108     1.717     2.049
    37   1 H        0.925     0.108     1.715     2.048

Wiberg/Mayer (AO) data.
largest (>0.10) Wiberg bond orders for each atom

     #   Z sym  total        # sym  WBO       # sym  WBO       # sym  WBO
 ---------------------------------------------------------------------------
     1   6 C    3.992 --     2 C    1.034    21 H    0.980    19 H    0.978
                            20 H    0.957
     2   6 C    3.987 --     3 C    1.406     8 C    1.399     1 C    1.034
     3   6 C    3.989 --     4 C    1.421     2 C    1.406    22 H    0.964
                             7 C    0.100
     4   6 C    3.987 --     3 C    1.421     6 C    1.360     5 C    1.025
     5   6 C    3.993 --     4 C    1.025    23 H    0.979    24 H    0.975
                            25 H    0.966
     6   6 C    3.975 --     4 C    1.360     7 C    1.352    10 C    0.993
     7   6 C    3.987 --     8 C    1.426     6 C    1.352     9 C    1.026
                             3 C    0.100
     8   6 C    3.989 --     7 C    1.426     2 C    1.399    26 H    0.964
     9   6 C    3.993 --     7 C    1.026    29 H    0.983    28 H    0.976
                            27 H    0.961
    10   6 C    3.912 --    11 O    1.925     6 C    0.993    12 C    0.889
    11   8 O    2.156 --    10 C    1.925
    12   6 C    3.933 --    13 N    0.991    30 H    0.962    31 H    0.942
                            10 C    0.889
    13   7 N    3.718 --    17 C    1.347    14 C    1.221    12 C    0.991
    14   6 C    3.948 --    15 C    1.587    13 N    1.221    32 H    0.959
    15   6 C    3.948 --    14 C    1.587    16 N    1.228    33 H    0.961
    16   7 N    3.722 --    17 C    1.357    15 C    1.228    18 C    0.991
    17   6 C    3.944 --    16 N    1.357    13 N    1.347    34 H    0.954
    18   6 C    3.933 --    16 N    0.991    35 H    0.975    37 H    0.965
                            36 H    0.960
    19   1 H    0.996 --     1 C    0.978
    20   1 H    0.994 --     1 C    0.957
    21   1 H    0.997 --     1 C    0.980
    22   1 H    0.995 --     3 C    0.964
    23   1 H    0.997 --     5 C    0.979
    24   1 H    0.995 --     5 C    0.975
    25   1 H    0.998 --     5 C    0.966
    26   1 H    0.997 --     8 C    0.964
    27   1 H    0.994 --     9 C    0.961
    28   1 H    0.999 --     9 C    0.976
    29   1 H    0.997 --     9 C    0.983
    30   1 H    0.989 --    12 C    0.962
    31   1 H    0.987 --    12 C    0.942
    32   1 H    0.988 --    14 C    0.959
    33   1 H    0.988 --    15 C    0.961
    34   1 H    0.987 --    17 C    0.954
    35   1 H    0.989 --    18 C    0.975
    36   1 H    0.988 --    18 C    0.960
    37   1 H    0.988 --    18 C    0.965
 ---------------------------------------------------------------------------

molecular dipole:
                 x           y           z       tot (Debye)
 q only:       -0.864      -5.999      -4.600
   full:       -0.962      -6.065      -4.662      19.597

           -------------------------------------------------
          | TOTAL ENERGY              -51.345561425090 Eh   |
          | GRADIENT NORM               0.000954190003 Eh/α |
          | HOMO-LUMO GAP               2.495438180039 eV   |
           -------------------------------------------------

 * finished run on 2024/12/20 at 02:09:40.004
