   * xtb version 6.7.1 (edcfbbe) compiled by 'conda@3ef47c1a292c' on 2024-11-25

   ID    Z sym.   atoms
    1    6 C      1-9, 11, 12, 14-28
    2    7 N      10, 13
    3    1 H      29-73

          program call               : xtb C0190.xyz --opt --namespace C0190 --charge +1
          :  Hamiltonian                  GFN2-xTB          :
 * total energy  :   -84.1657970 Eh     change       -0.1557822E-08 Eh
 * total energy  :   -84.1736780 Eh     change       -0.7880954E-02 Eh
 * total energy  :   -84.1753625 Eh     change       -0.1684516E-02 Eh
 * total energy  :   -84.1756930 Eh     change       -0.3305259E-03 Eh
 * total energy  :   -84.1761009 Eh     change       -0.4079087E-03 Eh
 * total energy  :   -84.1764406 Eh     change       -0.3396374E-03 Eh
 * total energy  :   -84.1767169 Eh     change       -0.2763346E-03 Eh
 * total energy  :   -84.1769037 Eh     change       -0.1867612E-03 Eh
 * total energy  :   -84.1770696 Eh     change       -0.1659553E-03 Eh
 * total energy  :   -84.1772237 Eh     change       -0.1540491E-03 Eh
 * total energy  :   -84.1788130 Eh     change       -0.1055561E-04 Eh
 * total energy  :   -84.1788242 Eh     change       -0.1112628E-04 Eh
 * total energy  :   -84.1788373 Eh     change       -0.1319765E-04 Eh
 * total energy  :   -84.1788516 Eh     change       -0.1423610E-04 Eh
 * total energy  :   -84.1788645 Eh     change       -0.1293230E-04 Eh
 * total energy  :   -84.1788755 Eh     change       -0.1093266E-04 Eh
 * total energy  :   -84.1788846 Eh     change       -0.9198606E-05 Eh
 * total energy  :   -84.1788913 Eh     change       -0.6630167E-05 Eh
 * total energy  :   -84.1788954 Eh     change       -0.4131915E-05 Eh
   *** GEOMETRY OPTIMIZATION CONVERGED AFTER 58 ITERATIONS ***

 final structure:
================
73
 xtb: 6.7.1 (edcfbbe)
C            1.49525674303601       -0.36513096466952        0.46329470174381
C            1.15519798845728        1.09073953794192        0.75668724893869
C            1.34286274038854        2.01016508926891       -0.45128436483998
C            0.46121613136243        1.67891439729613       -1.65748734373823
C           -1.04362908912171        1.69255766055225       -1.38232032637483
C           -1.59231727210270        3.00855124255384       -0.82549743167092
C           -1.36477670409550        4.23097944680060       -1.71761056360125
C           -2.11992055433549        4.18892334516589       -3.04782085088043
C           -3.62534390483873        4.43837640941146       -2.90160814626581
N           -3.90524148301812        5.80449793581236       -2.51373643830830
C           -3.85855189217630        6.88318100282997       -3.30700479552487
C           -3.62286068286572        6.85989121145603       -4.76593338120338
N           -4.10403366544381        7.98917389701918       -2.59468473353850
C           -4.32357192932845        7.62103286435088       -1.28177167340483
C           -4.19348962969404        6.22313731773318       -1.22823111753498
C           -4.36790809428770        5.53270181084444       -0.03513753860305
C           -4.67076428242629        6.27902195967690        1.08459611013538
C           -4.80486216504293        7.66823092933938        1.02862397457009
C           -4.63605681486617        8.36421493102029       -0.15031858177843
C           -4.07137213848072        9.36230278387196       -3.04688541814422
C           -2.78900027077315       10.06943100473771       -2.59124835790907
C           -1.51964301575467        9.53575263105082       -3.25611873939422
C           -1.37834095786578        9.89700006448537       -4.73700779527347
C           -1.17158671027947       11.38840974781274       -5.01399375630305
C            0.07420923455054       12.00288008051432       -4.37294777269147
C            1.39465488130498       11.32206662086756       -4.73973200122375
C            1.70343307683819       11.27720634800056       -6.23709107944650
C            1.84671877079806       12.65910460885284       -6.86242889570838
H            0.80536354370548       -0.79453581983128       -0.25875287166619
H            1.43781340609911       -0.95450345188384        1.37509413610851
H            2.50455833426254       -0.44720066058926        0.06696474393557
H            0.12915300367452        1.15820527603647        1.12312234383462
H            1.80760424707539        1.44929136460247        1.55617877348375
H            1.16216241020256        3.04133691008231       -0.13855816847888
H            2.38512683758790        1.95004759855807       -0.77286064588152
H            0.69385139046216        2.38471974700282       -2.45853164510451
H            0.72454239610564        0.68707594017704       -2.02716423306841
H           -1.56436138162011        1.43850687131432       -2.30893414965273
H           -1.27940445384568        0.90525937455519       -0.66515955824668
H           -2.66114612161122        2.87444518845337       -0.64115145244872
H           -1.12563687230363        3.20583132891531        0.14010386657525
H           -1.64883164928959        5.13128082344804       -1.16500222673513
H           -0.29929116584057        4.31159976902500       -1.93120983854953
H           -1.70016161227309        4.93646029028046       -3.72411708700024
H           -1.98257684623165        3.21341479924435       -3.51236265347895
H           -4.13764949197481        4.22309469319724       -3.84240483181493
H           -4.04285086770191        3.78488327445290       -2.13636132286495
H           -2.64077425247524        7.26540224066157       -5.00868964518335
H           -3.67737106658849        5.84785067891141       -5.15400876294245
H           -4.36883857907385        7.46601050284077       -5.27829571360496
H           -4.27183259166783        4.46181536400482        0.02534684949529
H           -4.81214124873976        5.77746000758698        2.02840266252828
H           -5.04846672187145        8.20750042839764        1.92981757910794
H           -4.74896013060818        9.43500821620858       -0.18722255249133
H           -4.15029695600933        9.38468947116021       -4.13307020519651
H           -4.94163897371600        9.87174362545101       -2.62555336960707
H           -2.89588595278037       11.13103878011921       -2.80949899657372
H           -2.69363265622125        9.96180611026206       -1.50930853415655
H           -0.66143636032397        9.93791543896613       -2.71877551057858
H           -1.48020203944059        8.44816039495317       -3.13914902260532
H           -0.52878351589888        9.34516803729772       -5.14201404023502
H           -2.26499984189481        9.57579848883091       -5.29030482862039
H           -1.11511613418529       11.52023989509070       -6.09540611727896
H           -2.04519259445378       11.94935338109254       -4.67390472057574
H            0.12085239011675       13.05061976719477       -4.67200918628219
H           -0.02892112026024       11.99090375784168       -3.28542093500266
H            2.19976730291299       11.86277003272023       -4.23743940394472
H            1.40137315674133       10.30197437291066       -4.34824558407896
H            2.64085794268436       10.73259881771794       -6.37084858782765
H            0.92749209228481       10.71828611016179       -6.76399641304952
H            2.58911677902561       13.24404990072260       -6.32497411363994
H            2.16643801806534       12.57109868885127       -7.89762272965033
H            0.90408963803593       13.19968025839086       -6.84619222893838

          :  Hamiltonian                  GFN2-xTB          :
         :: total energy             -84.178895412788 Eh    ::
         :: gradient norm              0.000539021344 Eh/a0 ::
         :: HOMO-LUMO gap              2.306247484815 eV    ::
         :: SCC energy               -85.489040191336 Eh    ::
         :: -> dispersion             -0.069176941544 Eh    ::
         :: repulsion energy           1.310144778547 Eh    ::

    * Orbital Energies and Occupations

         #    Occupation            Energy/Eh            Energy/eV
      -------------------------------------------------------------
         1        2.0000           -0.8658925             -23.5621
       ...           ...                  ...                  ...
        67        2.0000           -0.5285163             -14.3817
        68        2.0000           -0.5211679             -14.1817
        69        2.0000           -0.5175059             -14.0821
        70        2.0000           -0.5140007             -13.9867
        71        2.0000           -0.5111462             -13.9090
        72        2.0000           -0.5109084             -13.9025
        73        2.0000           -0.5076351             -13.8135
        74        2.0000           -0.4925325             -13.4025
        75        2.0000           -0.4897304             -13.3262
        76        2.0000           -0.4889027             -13.3037
        77        2.0000           -0.4860714             -13.2267
        78        2.0000           -0.4857150             -13.2170
        79        2.0000           -0.4828191             -13.1382 (HOMO)
        80                         -0.3980661             -10.8319 (LUMO)
        81                         -0.3518523              -9.5744
        82                         -0.3437375              -9.3536
        83                         -0.2264998              -6.1634
        84                         -0.1704089              -4.6371
        85                         -0.1218132              -3.3147
        86                         -0.0638866              -1.7384
        87                         -0.0523872              -1.4255
        88                         -0.0469762              -1.2783
        89                         -0.0433151              -1.1787
        90                         -0.0309599              -0.8425
       ...                                ...                  ...
       157                          0.5524342              15.0325
      -------------------------------------------------------------
                  HL-Gap            0.0847530 Eh            2.3062 eV

     #   Z          covCN         q      C6AA      α(0)
     1   6 C        3.751    -0.104    22.550     6.772
     2   6 C        3.799    -0.053    21.528     6.606
     3   6 C        3.800    -0.059    21.634     6.622
     4   6 C        3.800    -0.060    21.653     6.625
     5   6 C        3.800    -0.060    21.659     6.626
     6   6 C        3.800    -0.060    21.651     6.625
     7   6 C        3.800    -0.062    21.696     6.632
     8   6 C        3.801    -0.069    21.814     6.650
     9   6 C        3.740    -0.016    20.932     6.528
    10   7 N        2.829     0.007    21.133     6.828
    11   6 C        3.076     0.123    25.230     8.235
    12   6 C        3.755    -0.133    23.112     6.855
    13   7 N        2.829     0.008    21.110     6.824
    14   6 C        3.102     0.038    27.030     8.520
    15   6 C        3.097     0.040    26.998     8.515
    16   6 C        2.910    -0.034    28.846     8.807
    17   6 C        2.925    -0.021    28.532     8.760
    18   6 C        2.926    -0.021    28.531     8.760
    19   6 C        2.909    -0.035    28.880     8.812
    20   6 C        3.740    -0.016    20.943     6.530
    21   6 C        3.801    -0.069    21.820     6.651
    22   6 C        3.800    -0.062    21.686     6.630
    23   6 C        3.800    -0.061    21.673     6.628
    24   6 C        3.800    -0.060    21.663     6.627
    25   6 C        3.800    -0.060    21.662     6.627
    26   6 C        3.801    -0.059    21.635     6.622
    27   6 C        3.799    -0.053    21.524     6.606
    28   6 C        3.752    -0.104    22.556     6.773
    29   1 H        0.925     0.034     2.523     2.484
    30   1 H        0.925     0.037     2.496     2.470
    31   1 H        0.925     0.038     2.480     2.463
    32   1 H        0.924     0.028     2.615     2.529
    33   1 H        0.924     0.031     2.568     2.506
    34   1 H        0.924     0.024     2.668     2.554
    35   1 H        0.924     0.035     2.513     2.479
    36   1 H        0.924     0.025     2.657     2.549
    37   1 H        0.924     0.042     2.425     2.435
    38   1 H        0.924     0.025     2.657     2.549
    39   1 H        0.924     0.044     2.396     2.420
    40   1 H        0.924     0.020     2.733     2.585
    41   1 H        0.924     0.046     2.375     2.410
    42   1 H        0.924     0.023     2.691     2.565
    43   1 H        0.925     0.055     2.255     2.348
    44   1 H        0.924     0.042     2.426     2.436
    45   1 H        0.925     0.070     2.085     2.258
    46   1 H        0.924     0.067     2.116     2.275
    47   1 H        0.925     0.085     1.927     2.171
    48   1 H        0.925     0.104     1.746     2.067
    49   1 H        0.925     0.090     1.880     2.144
    50   1 H        0.925     0.091     1.873     2.140
    51   1 H        0.926     0.068     2.112     2.273
    52   1 H        0.926     0.075     2.034     2.230
    53   1 H        0.926     0.074     2.037     2.232
    54   1 H        0.926     0.067     2.121     2.277
    55   1 H        0.925     0.077     2.006     2.215
    56   1 H        0.924     0.075     2.029     2.228
    57   1 H        0.925     0.070     2.080     2.255
    58   1 H        0.924     0.049     2.334     2.389
    59   1 H        0.925     0.058     2.221     2.330
    60   1 H        0.924     0.016     2.788     2.611
    61   1 H        0.924     0.043     2.415     2.430
    62   1 H        0.924     0.019     2.744     2.591
    63   1 H        0.924     0.044     2.401     2.423
    64   1 H        0.924     0.027     2.630     2.536
    65   1 H        0.924     0.043     2.411     2.428
    66   1 H        0.924     0.027     2.634     2.538
    67   1 H        0.924     0.036     2.497     2.471
    68   1 H        0.924     0.024     2.681     2.560
    69   1 H        0.924     0.031     2.570     2.507
    70   1 H        0.924     0.027     2.633     2.538
    71   1 H        0.925     0.038     2.471     2.458
    72   1 H        0.925     0.037     2.493     2.469
    73   1 H        0.925     0.035     2.520     2.482

Wiberg/Mayer (AO) data.
largest (>0.10) Wiberg bond orders for each atom

     #   Z sym  total        # sym  WBO       # sym  WBO       # sym  WBO
 ---------------------------------------------------------------------------
     1   6 C    3.996 --     2 C    1.020    31 H    0.987    30 H    0.987
                            29 H    0.986
     2   6 C    3.998 --     1 C    1.020     3 C    1.008    33 H    0.978
                            32 H    0.976
     3   6 C    3.997 --     2 C    1.008     4 C    1.008    35 H    0.977
                            34 H    0.976
     4   6 C    3.997 --     5 C    1.008     3 C    1.008    36 H    0.975
                            37 H    0.974
     5   6 C    3.996 --     4 C    1.008     6 C    1.007    38 H    0.974
                            39 H    0.973
     6   6 C    3.996 --     7 C    1.007     5 C    1.007    41 H    0.973
                            40 H    0.972
     7   6 C    3.994 --     6 C    1.007     8 C    1.007    42 H    0.976
                            43 H    0.970
     8   6 C    3.986 --     7 C    1.007     9 C    0.987    44 H    0.975
                            45 H    0.965
     9   6 C    3.943 --     8 C    0.987    10 N    0.970    46 H    0.961
                            47 H    0.961
    10   7 N    3.658 --    11 C    1.329    15 C    1.121     9 C    0.970
    11   6 C    3.957 --    13 N    1.332    10 N    1.329    12 C    1.046
    12   6 C    3.979 --    11 C    1.046    49 H    0.968    50 H    0.955
                            48 H    0.942
    13   7 N    3.660 --    11 C    1.332    14 C    1.121    20 C    0.971
    14   6 C    3.955 --    19 C    1.342    15 C    1.279    13 N    1.121
    15   6 C    3.955 --    16 C    1.341    14 C    1.279    10 N    1.121
    16   6 C    3.985 --    17 C    1.492    15 C    1.341    51 H    0.959
                            19 C    0.118
    17   6 C    3.985 --    16 C    1.492    18 C    1.382    52 H    0.967
    18   6 C    3.985 --    19 C    1.491    17 C    1.382    53 H    0.967
    19   6 C    3.985 --    18 C    1.491    14 C    1.342    54 H    0.963
                            16 C    0.118
    20   6 C    3.944 --    21 C    0.986    13 N    0.971    56 H    0.963
                            55 H    0.961
    21   6 C    3.985 --    22 C    1.008    20 C    0.986    58 H    0.974
                            57 H    0.965
    22   6 C    3.994 --    21 C    1.008    23 C    1.007    60 H    0.976
                            59 H    0.969
    23   6 C    3.996 --    22 C    1.007    24 C    1.007    61 H    0.974
                            62 H    0.972
    24   6 C    3.996 --    25 C    1.008    23 C    1.007    64 H    0.974
                            63 H    0.974
    25   6 C    3.996 --    24 C    1.008    26 C    1.008    66 H    0.975
                            65 H    0.974
    26   6 C    3.997 --    27 C    1.008    25 C    1.008    67 H    0.976
                            68 H    0.976
    27   6 C    3.998 --    28 C    1.020    26 C    1.008    69 H    0.978
                            70 H    0.976
    28   6 C    3.996 --    27 C    1.020    71 H    0.987    72 H    0.987
                            73 H    0.986
    29   1 H    0.999 --     1 C    0.986
    30   1 H    0.999 --     1 C    0.987
    31   1 H    0.999 --     1 C    0.987
    32   1 H    0.999 --     2 C    0.976
    33   1 H    0.999 --     2 C    0.978
    34   1 H    0.999 --     3 C    0.976
    35   1 H    0.999 --     3 C    0.977
    36   1 H    0.999 --     4 C    0.975
    37   1 H    0.998 --     4 C    0.974
    38   1 H    0.999 --     5 C    0.974
    39   1 H    0.998 --     5 C    0.973
    40   1 H    1.000 --     6 C    0.972
    41   1 H    0.998 --     6 C    0.973
    42   1 H    0.999 --     7 C    0.976
    43   1 H    0.997 --     7 C    0.970
    44   1 H    0.998 --     8 C    0.975
    45   1 H    0.994 --     8 C    0.965
    46   1 H    0.994 --     9 C    0.961
    47   1 H    0.992 --     9 C    0.961
    48   1 H    0.985 --    12 C    0.942
    49   1 H    0.991 --    12 C    0.968
    50   1 H    0.990 --    12 C    0.955
    51   1 H    0.995 --    16 C    0.959
    52   1 H    0.994 --    17 C    0.967
    53   1 H    0.994 --    18 C    0.967
    54   1 H    0.995 --    19 C    0.963
    55   1 H    0.993 --    20 C    0.961
    56   1 H    0.994 --    20 C    0.963
    57   1 H    0.994 --    21 C    0.965
    58   1 H    0.998 --    21 C    0.974
    59   1 H    0.996 --    22 C    0.969
    60   1 H    1.000 --    22 C    0.976
    61   1 H    0.998 --    23 C    0.974
    62   1 H    1.000 --    23 C    0.972
    63   1 H    0.998 --    24 C    0.974
    64   1 H    0.999 --    24 C    0.974
    65   1 H    0.998 --    25 C    0.974
    66   1 H    0.999 --    25 C    0.975
    67   1 H    0.999 --    26 C    0.976
    68   1 H    0.999 --    26 C    0.976
    69   1 H    0.999 --    27 C    0.978
    70   1 H    0.999 --    27 C    0.976
    71   1 H    0.998 --    28 C    0.987
    72   1 H    0.999 --    28 C    0.987
    73   1 H    0.999 --    28 C    0.986
 ---------------------------------------------------------------------------

molecular dipole:
                 x           y           z       tot (Debye)
 q only:       -6.564      13.085      -4.747
   full:       -6.717      13.093      -4.859      39.390

           -------------------------------------------------
          | TOTAL ENERGY              -84.178895412788 Eh   |
          | GRADIENT NORM               0.000539021344 Eh/α |
          | HOMO-LUMO GAP               2.306247484815 eV   |
           -------------------------------------------------

 * finished run on 2024/12/20 at 02:09:37.890
