   * xtb version 6.7.1 (edcfbbe) compiled by 'conda@3ef47c1a292c' on 2024-11-25

   ID    Z sym.   atoms
    1    9 F      1, 17, 18
    2    6 C      2-4, 6-13, 15, 16
    3    7 N      5, 14
    4    1 H      19-30

          program call               : xtb C0207.xyz --opt --namespace C0207 --charge +1
          :  Hamiltonian                  GFN2-xTB          :
 * total energy  :   -53.5842326 Eh     change       -0.1863327E-09 Eh
 * total energy  :   -53.5889447 Eh     change       -0.4712184E-02 Eh
 * total energy  :   -53.5899599 Eh     change       -0.1015129E-02 Eh
 * total energy  :   -53.5902208 Eh     change       -0.2609222E-03 Eh
 * total energy  :   -53.5905961 Eh     change       -0.3753267E-03 Eh
 * total energy  :   -53.5909490 Eh     change       -0.3529031E-03 Eh
 * total energy  :   -53.5914538 Eh     change       -0.5048263E-03 Eh
 * total energy  :   -53.5919754 Eh     change       -0.5215638E-03 Eh
 * total energy  :   -53.5924634 Eh     change       -0.4879939E-03 Eh
 * total energy  :   -53.5928535 Eh     change       -0.3901225E-03 Eh
 * total energy  :   -53.5948607 Eh     change       -0.5415420E-04 Eh
 * total energy  :   -53.5949099 Eh     change       -0.4917196E-04 Eh
 * total energy  :   -53.5949534 Eh     change       -0.4343764E-04 Eh
 * total energy  :   -53.5949813 Eh     change       -0.2792018E-04 Eh
 * total energy  :   -53.5950019 Eh     change       -0.2064470E-04 Eh
 * total energy  :   -53.5950282 Eh     change       -0.2624601E-04 Eh
 * total energy  :   -53.5950337 Eh     change       -0.5563590E-05 Eh
 * total energy  :   -53.5950391 Eh     change       -0.5369698E-05 Eh
 * total energy  :   -53.5950430 Eh     change       -0.3861504E-05 Eh
   *** GEOMETRY OPTIMIZATION CONVERGED AFTER 29 ITERATIONS ***

 final structure:
================
30
 xtb: 6.7.1 (edcfbbe)
F            0.60508648307475       -1.76859543796554        0.33094905479589
C            1.37876658473662       -0.70570559523537        0.06637913407317
C            2.75097834084274       -0.83023372278143        0.72034461412500
C            3.36718344140252       -2.21701661841522        0.49160680989685
N            3.45632900872326       -2.54265111908850       -0.92437674571880
C            4.38740506803695       -1.94367796396452       -1.68553474070463
C            4.46215103588341       -2.16867547298146       -3.03559683945524
C            3.54822889682146       -3.03344276225675       -3.65917183779013
C            2.59545552890165       -3.64702162933052       -2.83233288198723
C            2.57576081099787       -3.38564157490151       -1.48540069278806
C            3.58890450296023       -3.28216020132381       -5.09483146706944
C            2.41427415502154       -3.50163831132258       -5.82145066889661
C            2.51450673266295       -3.72715280013650       -7.18656316634513
N            3.66438952043606       -3.75657098980761       -7.83251269535872
C            4.77788785296500       -3.55498078879093       -7.15421417444812
C            4.80259311065054       -3.30765090412283       -5.78963849427861
F            1.48602989355661       -0.65568090929101       -1.27931537060116
F            0.73388325752936        0.38183795565681        0.45228106841048
H            3.37771680139711       -0.03223630239122        0.31740732856320
H            2.62697306177140       -0.66515697057817        1.79223217856337
H            4.36796529314755       -2.23504479372655        0.92988686180083
H            2.75560824899746       -2.97418400452600        0.98767477162358
H            5.07628338866760       -1.27683195235600       -1.18813012151915
H            5.21263824295568       -1.65552244715198       -3.61500055275117
H            1.87843927464438       -4.33952196357256       -3.24341175279692
H            1.84436190490978       -3.84588959030323       -0.83733628300710
H            1.44735251910333       -3.45445277762567       -5.34672275554459
H            1.63231046438872       -3.89357161849374       -7.78864277650964
H            5.69265314180704       -3.59186355480234       -7.72904863412561
H            5.74287343300659       -3.18170517840947       -5.27677917015768

          :  Hamiltonian                  GFN2-xTB          :
         :: total energy             -53.595042957354 Eh    ::
         :: gradient norm              0.000793768475 Eh/a0 ::
         :: HOMO-LUMO gap              0.530764192806 eV    ::
         :: SCC energy               -54.277538209502 Eh    ::
         :: -> dispersion             -0.028669604675 Eh    ::
         :: repulsion energy           0.682495252148 Eh    ::

    * Orbital Energies and Occupations

         #    Occupation            Energy/Eh            Energy/eV
      -------------------------------------------------------------
         1        2.0000           -1.0110962             -27.5133
       ...           ...                  ...                  ...
        35        2.0000           -0.6426237             -17.4867
        36        2.0000           -0.6362844             -17.3142
        37        2.0000           -0.6296822             -17.1345
        38        2.0000           -0.6258433             -17.0301
        39        2.0000           -0.6229475             -16.9513
        40        2.0000           -0.6177672             -16.8103
        41        2.0000           -0.6155734             -16.7506
        42        2.0000           -0.6089243             -16.5697
        43        2.0000           -0.6039511             -16.4343
        44        2.0000           -0.5634535             -15.3323
        45        2.0000           -0.5589957             -15.2110
        46        2.0000           -0.5435788             -14.7915
        47        1.9999           -0.4840919             -13.1728 (HOMO)
        48        0.0001           -0.4645867             -12.6420 (LUMO)
        49                         -0.4266289             -11.6092
        50                         -0.3755570             -10.2194
        51                         -0.3623345              -9.8596
        52                         -0.3021339              -8.2215
        53                         -0.2305097              -6.2725
        54                         -0.1917330              -5.2173
        55                         -0.1283469              -3.4925
        56                         -0.1063447              -2.8938
        57                         -0.0928853              -2.5275
        58                         -0.0857507              -2.3334
       ...                                ...                  ...
        84                          0.5026002              13.6764
      -------------------------------------------------------------
                  HL-Gap            0.0195052 Eh            0.5308 eV

     #   Z          covCN         q      C6AA      α(0)
     1   9 F        0.791    -0.200    11.238     3.960
     2   6 C        3.329     0.488    17.351     6.612
     3   6 C        3.803    -0.099    22.394     6.737
     4   6 C        3.756    -0.032    21.203     6.565
     5   7 N        2.749     0.091    19.663     6.586
     6   6 C        2.886     0.031    27.307     8.567
     7   6 C        2.919    -0.020    28.498     8.754
     8   6 C        2.979     0.063    26.587     8.458
     9   6 C        2.919    -0.018    28.469     8.750
    10   6 C        2.884     0.034    27.227     8.555
    11   6 C        2.984     0.024    27.460     8.596
    12   6 C        2.917    -0.032    28.809     8.802
    13   6 C        2.909     0.068    26.486     8.439
    14   7 N        1.837    -0.170    25.482     7.481
    15   6 C        2.909     0.067    26.496     8.440
    16   6 C        2.917    -0.033    28.830     8.805
    17   9 F        0.790    -0.217    11.412     3.991
    18   9 F        0.791    -0.173    10.959     3.910
    19   1 H        0.924     0.101     1.773     2.082
    20   1 H        0.924     0.120     1.614     1.987
    21   1 H        0.924     0.108     1.710     2.045
    22   1 H        0.924     0.109     1.702     2.040
    23   1 H        0.926     0.103     1.755     2.071
    24   1 H        0.926     0.104     1.747     2.067
    25   1 H        0.926     0.106     1.730     2.057
    26   1 H        0.926     0.112     1.680     2.027
    27   1 H        0.926     0.058     2.224     2.332
    28   1 H        0.926     0.077     2.015     2.220
    29   1 H        0.926     0.076     2.025     2.225
    30   1 H        0.926     0.055     2.263     2.352

Wiberg/Mayer (AO) data.
largest (>0.10) Wiberg bond orders for each atom

     #   Z sym  total        # sym  WBO       # sym  WBO       # sym  WBO
 ---------------------------------------------------------------------------
     1   9 F    1.077 --     2 C    0.950
     2   6 C    3.842 --    18 F    0.982     3 C    0.957     1 F    0.950
                            17 F    0.933
     3   6 C    3.975 --     4 C    0.994    19 H    0.964    20 H    0.957
                             2 C    0.957
     4   6 C    3.946 --     3 C    0.994     5 N    0.972    22 H    0.962
                            21 H    0.958
     5   7 N    3.736 --    10 C    1.301     6 C    1.292     4 C    0.972
     6   6 C    3.955 --     7 C    1.510     5 N    1.292    23 H    0.955
     7   6 C    3.982 --     6 C    1.510     8 C    1.334    24 H    0.956
     8   6 C    3.970 --     9 C    1.342     7 C    1.334    11 C    1.089
     9   6 C    3.982 --    10 C    1.499     8 C    1.342    25 H    0.956
    10   6 C    3.951 --     9 C    1.499     5 N    1.301    26 H    0.953
    11   6 C    3.986 --    12 C    1.366    16 C    1.366     8 C    1.089
    12   6 C    3.986 --    13 C    1.428    11 C    1.366    27 H    0.965
                            15 C    0.114
    13   6 C    3.974 --    14 N    1.442    12 C    1.428    28 H    0.958
                            16 C    0.114
    14   7 N    3.068 --    13 C    1.442    15 C    1.441
    15   6 C    3.974 --    14 N    1.441    16 C    1.429    29 H    0.959
                            12 C    0.114
    16   6 C    3.987 --    15 C    1.429    11 C    1.366    30 H    0.966
                            13 C    0.114
    17   9 F    1.059 --     2 C    0.933
    18   9 F    1.111 --     2 C    0.982
    19   1 H    0.990 --     3 C    0.964
    20   1 H    0.985 --     3 C    0.957
    21   1 H    0.987 --     4 C    0.958
    22   1 H    0.988 --     4 C    0.962
    23   1 H    0.989 --     6 C    0.955
    24   1 H    0.989 --     7 C    0.956
    25   1 H    0.988 --     9 C    0.956
    26   1 H    0.987 --    10 C    0.953
    27   1 H    0.997 --    12 C    0.965
    28   1 H    0.993 --    13 C    0.958
    29   1 H    0.993 --    15 C    0.959
    30   1 H    0.997 --    16 C    0.966
 ---------------------------------------------------------------------------

molecular dipole:
                 x           y           z       tot (Debye)
 q only:        7.412      -5.189      -3.519
   full:        7.447      -5.065      -2.942      24.081

           -------------------------------------------------
          | TOTAL ENERGY              -53.595042957354 Eh   |
          | GRADIENT NORM               0.000793768475 Eh/α |
          | HOMO-LUMO GAP               0.530764192806 eV   |
           -------------------------------------------------

 * finished run on 2024/12/20 at 02:10:25.780
