   * xtb version 6.7.1 (edcfbbe) compiled by 'conda@3ef47c1a292c' on 2024-11-25

   ID    Z sym.   atoms
    1    6 C      1, 3, 4, 6-11
    2    8 O      2
    3   15 P      5
    4    1 H      12-33

          program call               : xtb C0200.xyz --opt --namespace C0200 --charge +1
          :  Hamiltonian                  GFN2-xTB          :
 * total energy  :   -36.6682026 Eh     change       -0.1107736E-09 Eh
 * total energy  :   -36.6737432 Eh     change       -0.5540641E-02 Eh
 * total energy  :   -36.6759274 Eh     change       -0.2184159E-02 Eh
 * total energy  :   -36.6766305 Eh     change       -0.7030724E-03 Eh
 * total energy  :   -36.6773218 Eh     change       -0.6912958E-03 Eh
 * total energy  :   -36.6780977 Eh     change       -0.7759573E-03 Eh
 * total energy  :   -36.6791065 Eh     change       -0.1008733E-02 Eh
 * total energy  :   -36.6801053 Eh     change       -0.9988163E-03 Eh
 * total energy  :   -36.6796915 Eh     change        0.4137833E-03 Eh
 * total energy  :   -36.6812159 Eh     change       -0.1524413E-02 Eh
 * total energy  :   -36.6859628 Eh     change       -0.6933278E-04 Eh
 * total energy  :   -36.6860190 Eh     change       -0.5621216E-04 Eh
 * total energy  :   -36.6860663 Eh     change       -0.4727901E-04 Eh
 * total energy  :   -36.6860840 Eh     change       -0.1777242E-04 Eh
 * total energy  :   -36.6861036 Eh     change       -0.1958347E-04 Eh
 * total energy  :   -36.6861217 Eh     change       -0.1810559E-04 Eh
 * total energy  :   -36.6861342 Eh     change       -0.1248110E-04 Eh
 * total energy  :   -36.6861433 Eh     change       -0.9095269E-05 Eh
 * total energy  :   -36.6861481 Eh     change       -0.4773622E-05 Eh
   *** GEOMETRY OPTIMIZATION CONVERGED AFTER 36 ITERATIONS ***

 final structure:
================
33
 xtb: 6.7.1 (edcfbbe)
C            1.80201487330958       -0.78529316895538       -1.17856929465177
O            1.23063278123354        0.42845217358532       -0.72828176014868
C            0.90458764414006        1.33991364092965       -1.75420048853140
C            0.33819963165338        2.53749435681646       -1.00272390799345
P            1.00869115344418        2.49013461407804        0.70559832618468
C            2.83326867243063        2.40112154300315        0.78667182153657
C            3.52596318080004        3.48336523785229       -0.03570803831880
C            0.58299306964269        4.13499149591119        1.39252596105778
C           -0.91287151219605        4.36660241774217        1.58077039535854
C            0.27047452385722        1.23725106942989        1.81705106858394
C           -1.10232549384856        0.74542351347430        1.37267480356417
H            2.01391828343012       -1.38149078505368       -0.29362977822055
H            2.72903363970036       -0.60159895371654       -1.72972245819854
H            1.10445207035341       -1.32692132100153       -1.82244318158258
H            1.80344972407571        1.60631418444179       -2.32757529636736
H            0.17458525146556        0.90496944408244       -2.44896356355540
H            0.60217026509202        3.49175638301573       -1.46110576676637
H           -0.74892483879838        2.47729142010534       -0.92238055545684
H            3.09192920064907        2.50284434660180        1.84564008450646
H            3.14361912312827        1.40838210513024        0.45905643656691
H            3.29965363608057        4.47807487109762        0.34044625424360
H            4.60299621627020        3.34547776960114        0.02222767602865
H            3.23851888302395        3.43154843478522       -1.08350944889617
H            1.09923438279081        4.22813470940973        2.35231093392812
H            0.99154036357566        4.89281892138240        0.71926107086762
H           -1.33496976598175        3.66945502141721        2.30001104627581
H           -1.07725142672208        5.37218951714877        1.96048475317372
H           -1.45174718319258        4.27518893988663        0.64071893868477
H            0.96803965818035        0.39944623278903        1.86922269499230
H            0.21404570107620        1.70281584289178        2.80556802643012
H           -1.02957876190755        0.22673262795854        0.42114292134827
H           -1.48883504122944        0.04591640269242        2.10984675907535
H           -1.81504790552300        1.56095699146717        1.27821356628131

          :  Hamiltonian                  GFN2-xTB          :
         :: total energy             -36.686148084336 Eh    ::
         :: gradient norm              0.000804197939 Eh/a0 ::
         :: HOMO-LUMO gap              7.083475978442 eV    ::
         :: SCC energy               -37.169164144133 Eh    ::
         :: -> dispersion             -0.027127746430 Eh    ::
         :: repulsion energy           0.483016059797 Eh    ::

    * Orbital Energies and Occupations

         #    Occupation            Energy/Eh            Energy/eV
      -------------------------------------------------------------
         1        2.0000           -0.8511639             -23.1613
       ...           ...                  ...                  ...
        22        2.0000           -0.6204494             -16.8833
        23        2.0000           -0.6141686             -16.7124
        24        2.0000           -0.6094038             -16.5827
        25        2.0000           -0.6087183             -16.5641
        26        2.0000           -0.6059306             -16.4882
        27        2.0000           -0.5957362             -16.2108
        28        2.0000           -0.5939110             -16.1611
        29        2.0000           -0.5846128             -15.9081
        30        2.0000           -0.5828928             -15.8613
        31        2.0000           -0.5788417             -15.7511
        32        2.0000           -0.5721616             -15.5693
        33        2.0000           -0.5649407             -15.3728
        34        2.0000           -0.5426855             -14.7672 (HOMO)
        35                         -0.2823725              -7.6837 (LUMO)
        36                         -0.2767077              -7.5296
        37                         -0.2625370              -7.1440
        38                         -0.1850780              -5.0362
        39                         -0.1149566              -3.1281
        40                         -0.1046720              -2.8483
        41                         -0.0738723              -2.0102
        42                         -0.0432788              -1.1777
        43                         -0.0291909              -0.7943
        44                         -0.0249899              -0.6800
        45                         -0.0212361              -0.5779
       ...                                ...                  ...
        71                          0.8650247              23.5385
      -------------------------------------------------------------
                  HL-Gap            0.2603130 Eh            7.0835 eV

     #   Z          covCN         q      C6AA      α(0)
     1   6 C        3.645     0.022    20.546     6.515
     2   8 O        1.834    -0.280    18.619     5.827
     3   6 C        3.825     0.076    19.294     6.251
     4   6 C        3.753    -0.073    21.959     6.682
     5  15 P        4.170     0.177   152.613    22.191
     6   6 C        3.749    -0.068    21.865     6.669
     7   6 C        3.817    -0.116    22.700     6.781
     8   6 C        3.749    -0.079    22.066     6.700
     9   6 C        3.807    -0.116    22.715     6.785
    10   6 C        3.749    -0.061    21.731     6.648
    11   6 C        3.810    -0.117    22.731     6.787
    12   1 H        0.925     0.075     2.035     2.231
    13   1 H        0.924     0.050     2.316     2.380
    14   1 H        0.924     0.058     2.222     2.331
    15   1 H        0.923     0.048     2.350     2.397
    16   1 H        0.924     0.056     2.247     2.344
    17   1 H        0.926     0.097     1.811     2.104
    18   1 H        0.927     0.105     1.743     2.065
    19   1 H        0.927     0.089     1.889     2.149
    20   1 H        0.926     0.101     1.777     2.085
    21   1 H        0.925     0.062     2.173     2.305
    22   1 H        0.925     0.077     2.007     2.215
    23   1 H        0.925     0.060     2.201     2.320
    24   1 H        0.926     0.083     1.950     2.184
    25   1 H        0.926     0.086     1.920     2.167
    26   1 H        0.925     0.062     2.176     2.307
    27   1 H        0.925     0.074     2.038     2.232
    28   1 H        0.925     0.056     2.243     2.342
    29   1 H        0.927     0.098     1.804     2.100
    30   1 H        0.927     0.090     1.883     2.146
    31   1 H        0.925     0.072     2.062     2.245
    32   1 H        0.925     0.075     2.035     2.231
    33   1 H        0.925     0.061     2.186     2.312

Wiberg/Mayer (AO) data.
largest (>0.10) Wiberg bond orders for each atom

     #   Z sym  total        # sym  WBO       # sym  WBO       # sym  WBO
 ---------------------------------------------------------------------------
     1   6 C    3.931 --    12 H    0.978    13 H    0.978    14 H    0.977
                             2 O    0.968
     2   8 O    2.191 --     3 C    0.978     1 C    0.968     5 P    0.152
     3   6 C    3.951 --     4 C    0.997     2 O    0.978    15 H    0.967
                            16 H    0.966
     4   6 C    3.992 --     3 C    0.997     5 P    0.987    17 H    0.938
                            18 H    0.932
     5  15 P    4.633 --     8 C    1.010     6 C    1.004    10 C    0.999
                             4 C    0.987     2 O    0.152
     6   6 C    3.987 --     5 P    1.004     7 C    1.001    20 H    0.938
                            19 H    0.933
     7   6 C    3.985 --     6 C    1.001    21 H    0.979    23 H    0.979
                            22 H    0.977
     8   6 C    3.991 --     5 P    1.010     9 C    1.003    24 H    0.940
                            25 H    0.937
     9   6 C    3.987 --     8 C    1.003    28 H    0.980    26 H    0.979
                            27 H    0.978
    10   6 C    3.985 --    11 C    1.000     5 P    0.999    29 H    0.938
                            30 H    0.934
    11   6 C    3.983 --    10 C    1.000    31 H    0.978    32 H    0.978
                            33 H    0.977
    12   1 H    0.994 --     1 C    0.978
    13   1 H    0.997 --     1 C    0.978
    14   1 H    0.996 --     1 C    0.977
    15   1 H    0.998 --     3 C    0.967
    16   1 H    0.996 --     3 C    0.966
    17   1 H    0.991 --     4 C    0.938
    18   1 H    0.989 --     4 C    0.932
    19   1 H    0.992 --     6 C    0.933
    20   1 H    0.989 --     6 C    0.938
    21   1 H    0.996 --     7 C    0.979
    22   1 H    0.994 --     7 C    0.977
    23   1 H    0.996 --     7 C    0.979
    24   1 H    0.993 --     8 C    0.940
    25   1 H    0.992 --     8 C    0.937
    26   1 H    0.996 --     9 C    0.979
    27   1 H    0.994 --     9 C    0.978
    28   1 H    0.997 --     9 C    0.980
    29   1 H    0.990 --    10 C    0.938
    30   1 H    0.992 --    10 C    0.934
    31   1 H    0.995 --    11 C    0.978
    32   1 H    0.994 --    11 C    0.978
    33   1 H    0.996 --    11 C    0.977
 ---------------------------------------------------------------------------

molecular dipole:
                 x           y           z       tot (Debye)
 q only:        1.915       4.206       0.714
   full:        1.988       4.196       0.571      11.890

           -------------------------------------------------
          | TOTAL ENERGY              -36.686148084336 Eh   |
          | GRADIENT NORM               0.000804197939 Eh/α |
          | HOMO-LUMO GAP               7.083475978442 eV   |
           -------------------------------------------------

 * finished run on 2024/12/20 at 02:09:54.376
