   * xtb version 6.7.1 (edcfbbe) compiled by 'conda@3ef47c1a292c' on 2024-11-25

   ID    Z sym.   atoms
    1    6 C      1-8, 10, 11, 13-30
    2    7 N      9, 12, 32
    3    8 O      31
    4    1 H      33-62

          program call               : xtb C0202.xyz --opt --namespace C0202 --charge +1
          :  Hamiltonian                  GFN2-xTB          :
 * total energy  :   -87.7095433 Eh     change       -0.1376307E-08 Eh
 * total energy  :   -87.7222587 Eh     change       -0.1271536E-01 Eh
 * total energy  :   -87.7262765 Eh     change       -0.4017816E-02 Eh
 * total energy  :   -87.7274890 Eh     change       -0.1212472E-02 Eh
 * total energy  :   -87.7285635 Eh     change       -0.1074564E-02 Eh
 * total energy  :   -87.7294437 Eh     change       -0.8801820E-03 Eh
 * total energy  :   -87.7301728 Eh     change       -0.7290571E-03 Eh
 * total energy  :   -87.7308238 Eh     change       -0.6510523E-03 Eh
 * total energy  :   -87.7314035 Eh     change       -0.5797124E-03 Eh
 * total energy  :   -87.7319561 Eh     change       -0.5525735E-03 Eh
 * total energy  :   -87.7526245 Eh     change       -0.1981929E-04 Eh
 * total energy  :   -87.7526351 Eh     change       -0.1055192E-04 Eh
 * total energy  :   -87.7526421 Eh     change       -0.7066710E-05 Eh
 * total energy  :   -87.7526500 Eh     change       -0.7865399E-05 Eh
 * total energy  :   -87.7526590 Eh     change       -0.8995777E-05 Eh
 * total energy  :   -87.7526655 Eh     change       -0.6519170E-05 Eh
 * total energy  :   -87.7526723 Eh     change       -0.6781618E-05 Eh
 * total energy  :   -87.7526780 Eh     change       -0.5681150E-05 Eh
 * total energy  :   -87.7526821 Eh     change       -0.4103329E-05 Eh
   *** GEOMETRY OPTIMIZATION CONVERGED AFTER 171 ITERATIONS ***

 final structure:
================
62
 xtb: 6.7.1 (edcfbbe)
C            2.49403997932948       -0.39899286673310       -1.58825586128815
C            1.10744530556422       -0.56235202539425       -1.05266011589069
C            0.50417846803639       -1.81631861070433       -1.02938519747978
C           -0.77054445437766       -1.97966673333921       -0.51979602086152
C           -1.46704300271016       -0.89095504983723       -0.02326978795377
C           -0.88023728712660        0.36753286291896       -0.03782471410803
C            0.39906726362139        0.52279850970189       -0.55530281556362
C           -1.63688561503444        1.56053623410914        0.48344172085389
N           -2.51989510180295        2.11468384777151       -0.53060353703474
C           -2.57502387468032        1.74642448497872       -1.84336558398499
C           -3.51298649805500        2.52565004002414       -2.43822752237816
N           -4.01333854422700        3.36389461680594       -1.48537484001242
C           -3.40243744259072        3.09966037145100       -0.32587983622867
C           -3.65339803037010        3.73606455721246        0.98301950458516
C           -5.02926674092082        4.35785417266854       -1.74583755298770
C           -4.51523906759258        5.80381417255838       -1.78715534730511
C           -3.31260541664155        6.11410411385426       -2.71787691634256
C           -2.05668359649257        5.47451672967143       -2.14179895765021
C           -1.65503801809018        5.79805541487509       -0.84626224202946
C           -0.51140101640217        5.24904093689871       -0.29660965352251
C            0.25672098736917        4.36020872044918       -1.03101957654126
C           -0.13198930892532        4.02811492186404       -2.31569617039319
C           -1.27591898831691        4.58333804288411       -2.86717896112755
C           -3.17723375143855        7.63622243590172       -2.81552034280882
C           -1.99579702620325        8.30950438334437       -2.52962775346294
C           -1.91666941401737        9.68704347668929       -2.66045157601379
C           -3.01003661905515       10.41379278655837       -3.09316226731022
C           -4.18281813307319        9.75002655085862       -3.41328204752270
C           -4.26266823243388        8.37658427949633       -3.28152996345469
C           -3.54925139312789        5.58611570446889       -4.15114040673360
O           -4.24348970594741        4.62245954372101       -4.40585568670942
N           -2.87933633679609        6.24931353045819       -5.10648991977587
H            3.21126374617045       -0.84970581281696       -0.90312811492686
H            2.59654959798781       -0.90154065634851       -2.54785390874357
H            2.75017217496612        0.65025545690569       -1.70962821373814
H            1.04388884083325       -2.66977718258753       -1.41070082236810
H           -1.22422874772403       -2.95836621833488       -0.50488594702186
H           -2.46121782786345       -1.02092855225855        0.37846479974312
H            0.85198931465653        1.50345002191565       -0.56409745192651
H           -2.24388273631048        1.27129932123154        1.34721749319625
H           -0.94207640380148        2.34747155485085        0.79479931560180
H           -1.95791158083020        0.96963765338871       -2.24297781240854
H           -3.84982243877118        2.57344801280327       -3.45401356782031
H           -3.83433421685620        2.97738046733939        1.74435199025514
H           -2.78578102140889        4.31759327123377        1.29515192040408
H           -4.51529356167734        4.39380864746052        0.93804993967705
H           -5.46650730140253        4.11016881286170       -2.71325615988736
H           -5.80338332448301        4.28818738761692       -0.97657885858965
H           -5.36724992178057        6.40646179870067       -2.10064133714173
H           -4.24505955063974        6.12921940632593       -0.78182295823004
H           -2.21963008453177        6.51665539511052       -0.27010059510676
H           -0.20720686213641        5.53194041417375        0.70064473773187
H            1.16274570455778        3.95249878777768       -0.60861428729787
H            0.46051011398099        3.34357810238293       -2.90330132416222
H           -1.54889209432909        4.31402042689417       -3.87537505064342
H           -1.11899859469211        7.76840952775209       -2.20837934439092
H           -0.99003940814239       10.18787925636181       -2.42544148606719
H           -2.94769727458763       11.48590294314273       -3.19245798416979
H           -5.03762119133852       10.30166107140406       -3.77328331513338
H           -5.17727391876159        7.87801473709382       -3.56904250588937
H           -2.33375113369979        7.07042287739632       -4.90803082287047
H           -3.00652968477387        5.96972291396558       -6.06622837972855

          :  Hamiltonian                  GFN2-xTB          :
         :: total energy             -87.752682079307 Eh    ::
         :: gradient norm              0.000526451570 Eh/a0 ::
         :: HOMO-LUMO gap              3.146821407600 eV    ::
         :: SCC energy               -89.239635610151 Eh    ::
         :: -> dispersion             -0.081866994543 Eh    ::
         :: repulsion energy           1.486953530844 Eh    ::

    * Orbital Energies and Occupations

         #    Occupation            Energy/Eh            Energy/eV
      -------------------------------------------------------------
         1        2.0000           -0.8593496             -23.3841
       ...           ...                  ...                  ...
        69        2.0000           -0.5316972             -14.4682
        70        2.0000           -0.5240648             -14.2605
        71        2.0000           -0.5227909             -14.2259
        72        2.0000           -0.5192710             -14.1301
        73        2.0000           -0.5186254             -14.1125
        74        2.0000           -0.5151096             -14.0168
        75        2.0000           -0.5098575             -13.8739
        76        2.0000           -0.5088597             -13.8468
        77        2.0000           -0.5032416             -13.6939
        78        2.0000           -0.5004730             -13.6186
        79        2.0000           -0.4954326             -13.4814
        80        2.0000           -0.4913737             -13.3710
        81        2.0000           -0.4841711             -13.1750 (HOMO)
        82                         -0.3685275             -10.0281 (LUMO)
        83                         -0.3371680              -9.1748
        84                         -0.3359104              -9.1406
        85                         -0.3288173              -8.9476
        86                         -0.3284762              -8.9383
        87                         -0.3186601              -8.6712
        88                         -0.3181781              -8.6581
        89                         -0.3151256              -8.5750
        90                         -0.3114306              -8.4745
        91                         -0.2067893              -5.6270
        92                         -0.2009762              -5.4688
       ...                                ...                  ...
       158                          0.5732480              15.5989
      -------------------------------------------------------------
                  HL-Gap            0.1156436 Eh            3.1468 eV

     #   Z          covCN         q      C6AA      α(0)
     1   6 C        3.758    -0.117    22.786     6.805
     2   6 C        2.965     0.027    27.394     8.585
     3   6 C        2.926    -0.034    28.851     8.809
     4   6 C        2.917    -0.026    28.652     8.778
     5   6 C        2.923    -0.042    29.047     8.838
     6   6 C        2.970    -0.004    28.120     8.698
     7   6 C        2.928    -0.049    29.218     8.865
     8   6 C        3.747    -0.020    21.005     6.537
     9   7 N        2.876     0.031    20.701     6.757
    10   6 C        3.049    -0.008    28.183     8.707
    11   6 C        3.059    -0.010    28.217     8.711
    12   7 N        2.871     0.045    20.461     6.718
    13   6 C        3.107     0.102    25.605     8.291
    14   6 C        3.754    -0.132    23.087     6.851
    15   6 C        3.740    -0.027    21.137     6.560
    16   6 C        3.806    -0.064    21.723     6.635
    17   6 C        3.908    -0.020    20.865     6.493
    18   6 C        2.973     0.005    27.911     8.666
    19   6 C        2.925    -0.041    29.016     8.834
    20   6 C        2.918    -0.037    28.914     8.818
    21   6 C        2.919    -0.033    28.825     8.804
    22   6 C        2.919    -0.032    28.787     8.798
    23   6 C        2.924    -0.044    29.100     8.846
    24   6 C        2.975    -0.004    28.127     8.699
    25   6 C        2.923    -0.042    29.046     8.838
    26   6 C        2.920    -0.028    28.695     8.784
    27   6 C        2.919    -0.026    28.650     8.777
    28   6 C        2.919    -0.026    28.652     8.778
    29   6 C        2.925    -0.041    29.010     8.833
    30   6 C        2.749     0.288    22.124     7.702
    31   8 O        0.859    -0.449    22.678     6.385
    32   7 N        2.638    -0.259    26.723     7.678
    33   1 H        0.925     0.064     2.148     2.292
    34   1 H        0.925     0.059     2.209     2.324
    35   1 H        0.925     0.048     2.345     2.395
    36   1 H        0.926     0.054     2.275     2.359
    37   1 H        0.926     0.052     2.300     2.372
    38   1 H        0.926     0.036     2.509     2.477
    39   1 H        0.926     0.037     2.491     2.468
    40   1 H        0.924     0.077     2.011     2.218
    41   1 H        0.924     0.077     2.012     2.218
    42   1 H        0.927     0.097     1.816     2.107
    43   1 H        0.926     0.123     1.587     1.970
    44   1 H        0.925     0.090     1.875     2.141
    45   1 H        0.925     0.095     1.830     2.115
    46   1 H        0.925     0.089     1.884     2.147
    47   1 H        0.925     0.119     1.619     1.990
    48   1 H        0.924     0.071     2.078     2.254
    49   1 H        0.925     0.072     2.060     2.244
    50   1 H        0.924     0.052     2.296     2.370
    51   1 H        0.926     0.038     2.477     2.461
    52   1 H        0.926     0.038     2.475     2.460
    53   1 H        0.926     0.039     2.457     2.451
    54   1 H        0.926     0.042     2.425     2.435
    55   1 H        0.926     0.036     2.498     2.471
    56   1 H        0.926     0.035     2.520     2.482
    57   1 H        0.926     0.045     2.379     2.412
    58   1 H        0.926     0.050     2.325     2.384
    59   1 H        0.926     0.048     2.348     2.396
    60   1 H        0.926     0.033     2.549     2.496
    61   1 H        0.860     0.195     1.133     1.668
    62   1 H        0.860     0.207     1.070     1.620

Wiberg/Mayer (AO) data.
largest (>0.10) Wiberg bond orders for each atom

     #   Z sym  total        # sym  WBO       # sym  WBO       # sym  WBO
 ---------------------------------------------------------------------------
     1   6 C    3.994 --     2 C    1.031    35 H    0.984    34 H    0.973
                            33 H    0.963
     2   6 C    3.988 --     7 C    1.415     3 C    1.400     1 C    1.031
                             5 C    0.107
     3   6 C    3.990 --     4 C    1.453     2 C    1.400    36 H    0.968
                             6 C    0.108
     4   6 C    3.991 --     3 C    1.453     5 C    1.434    37 H    0.969
                             7 C    0.105
     5   6 C    3.991 --     4 C    1.434     6 C    1.414    38 H    0.969
                             2 C    0.107
     6   6 C    3.979 --     5 C    1.414     7 C    1.413     8 C    0.998
                             3 C    0.108
     7   6 C    3.989 --     2 C    1.415     6 C    1.413    39 H    0.964
                             4 C    0.105
     8   6 C    3.943 --     6 C    0.998     9 N    0.956    40 H    0.955
                            41 H    0.954
     9   7 N    3.688 --    13 C    1.326    10 C    1.210     8 C    0.956
    10   6 C    3.949 --    11 C    1.604     9 N    1.210    42 H    0.960
    11   6 C    3.945 --    10 C    1.604    12 N    1.213    43 H    0.952
    12   7 N    3.696 --    13 C    1.328    11 C    1.213    15 C    0.970
    13   6 C    3.953 --    12 N    1.328     9 N    1.326    14 C    1.045
    14   6 C    3.981 --    13 C    1.045    46 H    0.972    44 H    0.956
                            45 H    0.948
    15   6 C    3.937 --    16 C    0.989    12 N    0.970    48 H    0.960
                            47 H    0.953
    16   6 C    3.988 --    15 C    0.989    50 H    0.969    17 C    0.967
                            49 H    0.961
    17   6 C    3.989 --    18 C    0.975    16 C    0.967    24 C    0.962
                            30 C    0.921
    18   6 C    3.986 --    23 C    1.423    19 C    1.397    17 C    0.975
                            21 C    0.109
    19   6 C    3.991 --    20 C    1.451    18 C    1.397    51 H    0.964
                            22 C    0.112
    20   6 C    3.991 --    19 C    1.451    21 C    1.428    52 H    0.970
                            23 C    0.109
    21   6 C    3.991 --    22 C    1.447    20 C    1.428    53 H    0.969
                            18 C    0.109
    22   6 C    3.991 --    21 C    1.447    23 C    1.433    54 H    0.970
                            19 C    0.112
    23   6 C    3.991 --    22 C    1.433    18 C    1.423    55 H    0.965
                            20 C    0.109
    24   6 C    3.984 --    25 C    1.420    29 C    1.400    17 C    0.962
                            27 C    0.110
    25   6 C    3.991 --    26 C    1.433    24 C    1.420    56 H    0.964
                            28 C    0.109
    26   6 C    3.991 --    27 C    1.447    25 C    1.433    57 H    0.970
                            29 C    0.112
    27   6 C    3.989 --    26 C    1.447    28 C    1.430    58 H    0.970
                            24 C    0.110
    28   6 C    3.990 --    29 C    1.454    27 C    1.430    59 H    0.970
                            25 C    0.109
    29   6 C    3.991 --    28 C    1.454    24 C    1.400    60 H    0.964
                            26 C    0.112
    30   6 C    3.943 --    31 O    1.670    32 N    1.293    17 C    0.921
    31   8 O    1.999 --    30 C    1.670    32 N    0.201
    32   7 N    3.406 --    30 C    1.293    62 H    0.935    61 H    0.935
                            31 O    0.201
    33   1 H    0.996 --     1 C    0.963
    34   1 H    0.996 --     1 C    0.973
    35   1 H    0.997 --     1 C    0.984
    36   1 H    0.997 --     3 C    0.968
    37   1 H    0.997 --     4 C    0.969
    38   1 H    0.998 --     5 C    0.969
    39   1 H    0.999 --     7 C    0.964
    40   1 H    0.994 --     8 C    0.955
    41   1 H    0.994 --     8 C    0.954
    42   1 H    0.990 --    10 C    0.960
    43   1 H    0.985 --    11 C    0.952
    44   1 H    0.992 --    14 C    0.956
    45   1 H    0.991 --    14 C    0.948
    46   1 H    0.992 --    14 C    0.972
    47   1 H    0.985 --    15 C    0.953
    48   1 H    0.994 --    15 C    0.960
    49   1 H    0.993 --    16 C    0.961
    50   1 H    0.997 --    16 C    0.969
    51   1 H    0.999 --    19 C    0.964
    52   1 H    0.998 --    20 C    0.970
    53   1 H    0.998 --    21 C    0.969
    54   1 H    0.998 --    22 C    0.970
    55   1 H    0.999 --    23 C    0.965
    56   1 H    0.999 --    25 C    0.964
    57   1 H    0.997 --    26 C    0.970
    58   1 H    0.997 --    27 C    0.970
    59   1 H    0.997 --    28 C    0.970
    60   1 H    0.999 --    29 C    0.964
    61   1 H    0.962 --    32 N    0.935
    62   1 H    0.956 --    32 N    0.935
 ---------------------------------------------------------------------------

molecular dipole:
                 x           y           z       tot (Debye)
 q only:       -4.634       6.787      -2.113
   full:       -4.499       7.088      -2.128      22.013

           -------------------------------------------------
          | TOTAL ENERGY              -87.752682079307 Eh   |
          | GRADIENT NORM               0.000526451570 Eh/α |
          | HOMO-LUMO GAP               3.146821407600 eV   |
           -------------------------------------------------

 * finished run on 2024/12/20 at 02:10:10.162
