   * xtb version 6.7.1 (edcfbbe) compiled by 'conda@3ef47c1a292c' on 2024-11-25

   ID    Z sym.   atoms
    1    6 C      1-8, 10, 12-15, 19-27
    2    7 N      9, 11, 16-18
    3    1 H      28-51

          program call               : xtb C0204.xyz --opt --namespace C0204 --charge +1
          :  Hamiltonian                  GFN2-xTB          :
 * total energy  :   -73.5861565 Eh     change       -0.1672504E-08 Eh
 * total energy  :   -73.5956288 Eh     change       -0.9472317E-02 Eh
 * total energy  :   -73.5973038 Eh     change       -0.1674959E-02 Eh
 * total energy  :   -73.5975713 Eh     change       -0.2675878E-03 Eh
 * total energy  :   -73.5978431 Eh     change       -0.2717762E-03 Eh
 * total energy  :   -73.5979895 Eh     change       -0.1463475E-03 Eh
 * total energy  :   -73.5982262 Eh     change       -0.2367317E-03 Eh
 * total energy  :   -73.5984918 Eh     change       -0.2656248E-03 Eh
 * total energy  :   -73.5987652 Eh     change       -0.2733936E-03 Eh
 * total energy  :   -73.5990011 Eh     change       -0.2359190E-03 Eh
 * total energy  :   -73.6057687 Eh     change       -0.7055866E-05 Eh
 * total energy  :   -73.6057739 Eh     change       -0.5221876E-05 Eh
 * total energy  :   -73.6057813 Eh     change       -0.7344010E-05 Eh
 * total energy  :   -73.6057814 Eh     change       -0.1812095E-06 Eh
 * total energy  :   -73.6057865 Eh     change       -0.5011535E-05 Eh
 * total energy  :   -73.6057944 Eh     change       -0.7899666E-05 Eh
 * total energy  :   -73.6058012 Eh     change       -0.6877045E-05 Eh
 * total energy  :   -73.6058074 Eh     change       -0.6152480E-05 Eh
 * total energy  :   -73.6058117 Eh     change       -0.4308471E-05 Eh
   *** GEOMETRY OPTIMIZATION CONVERGED AFTER 102 ITERATIONS ***

 final structure:
================
51
 xtb: 6.7.1 (edcfbbe)
C           -1.02778233573955        0.36723945458693        0.35029447148706
C           -0.85540251983783       -0.98486095990099        0.04414167322976
C            0.40462344744609       -1.55887040793571       -0.11517879895079
C            1.51400921330101       -0.74170722926251        0.04134180305666
C            1.38542433380256        0.60697382040861        0.34591146102352
C            0.11074723024963        1.14252907351823        0.49617103550931
C            2.58902989399426        1.47171574149049        0.53049245255521
C            0.55199031851535       -3.01190209480672       -0.44971285321322
N           -2.01939612848185       -1.79689331970232       -0.10542618645279
C           -2.84806176696964       -1.77139532894824       -1.14139133785047
N           -3.86327943977549       -2.60185953267726       -0.91222371768120
C           -3.67619060952768       -3.17101142463209        0.31057461261918
C           -2.51491130260658       -2.67057450134210        0.81492459009439
C           -5.04102231821457       -2.69091331885637       -1.74265137640251
C           -5.71788606357038       -1.35276176601411       -1.74526822668040
N           -5.00409003006721       -0.21877916934675       -1.56968823011744
N           -5.79845116243624        0.78567916987417       -1.61252683455740
N           -7.02592104981233        0.35434528726471       -1.81078946848283
C           -7.04006301773763       -0.99253509292808       -1.90053405611914
C           -8.14481886838390        1.25882895477271       -1.90967054839688
C           -8.99266917810158        0.92836516351686       -3.11235285773732
C           -8.44001798427985        1.00094273470828       -4.38580905492969
C           -9.20263007797161        0.68281189863843       -5.49493356033018
C          -10.52310556841777        0.29301492031334       -5.34059283861144
C          -11.07821991040560        0.22045440824319       -4.07462951245345
C          -10.31413239917707        0.53234775561444       -2.96277326359737
C           -2.39502698212052        0.94582810191981        0.54455566356287
H            2.49818761302568       -1.16792437285251       -0.07908618962522
H            0.00428225091651        2.18941040634846        0.73641976663696
H            2.45150030473554        2.43241040609395        0.03974575532459
H            2.74637092375740        1.66263682322739        1.59186600037748
H            3.48089625943326        0.99487313825059        0.13437909553209
H            0.28317420819821       -3.63474664499062        0.40327705779234
H           -0.08668954997539       -3.29121469823000       -1.28694870631886
H            1.58117346179073       -3.23412769657850       -0.71481584997352
H           -2.72575863849970       -1.16631110147751       -2.01713074566803
H           -4.36274998602711       -3.87779343883031        0.72951284238706
H           -2.02284997454269       -2.86013392032363        1.74669831900654
H           -4.74685840846648       -2.96503622277800       -2.76223229248777
H           -5.70741090170165       -3.46127818347596       -1.35104892403998
H           -7.93032178146074       -1.55855093977354       -2.06982567345434
H           -8.74017422324985        1.19449127571931       -0.99318202089897
H           -7.72060114403627        2.26382950662365       -1.98385201003586
H           -7.41200390365186        1.31305880706267       -4.50567329872930
H           -8.76773826480552        0.74427535212931       -6.48077317511533
H          -11.11902939090678        0.04972040397157       -6.20650924755309
H          -12.10740785284460       -0.07919193632476       -3.94995527539930
H          -10.75109983487476        0.47661686359290       -1.97597856443366
H           -2.32197160096858        1.99620718626536        0.80834625877046
H           -3.00482968446123        0.86192968380584       -0.35446850543161
H           -2.91800560510353        0.42908696400916        1.34956034279713

          :  Hamiltonian                  GFN2-xTB          :
         :: total energy             -73.605811697247 Eh    ::
         :: gradient norm              0.000336534331 Eh/a0 ::
         :: HOMO-LUMO gap              2.948421066295 eV    ::
         :: SCC energy               -74.816390229670 Eh    ::
         :: -> dispersion             -0.055054781186 Eh    ::
         :: repulsion energy           1.210578532423 Eh    ::

    * Orbital Energies and Occupations

         #    Occupation            Energy/Eh            Energy/eV
      -------------------------------------------------------------
         1        2.0000           -0.8667486             -23.5854
       ...           ...                  ...                  ...
        56        2.0000           -0.5438566             -14.7991
        57        2.0000           -0.5433682             -14.7858
        58        2.0000           -0.5331100             -14.5067
        59        2.0000           -0.5281868             -14.3727
        60        2.0000           -0.5271844             -14.3454
        61        2.0000           -0.5257330             -14.3059
        62        2.0000           -0.5112435             -13.9116
        63        2.0000           -0.5068513             -13.7921
        64        2.0000           -0.5013156             -13.6415
        65        2.0000           -0.4985345             -13.5658
        66        2.0000           -0.4981122             -13.5543
        67        2.0000           -0.4905330             -13.3481
        68        2.0000           -0.4883352             -13.2883 (HOMO)
        69                         -0.3799827             -10.3399 (LUMO)
        70                         -0.3469518              -9.4410
        71                         -0.3448806              -9.3847
        72                         -0.3318511              -9.0301
        73                         -0.3260223              -8.8715
        74                         -0.3132594              -8.5242
        75                         -0.3086655              -8.3992
        76                         -0.3042294              -8.2785
        77                         -0.2052990              -5.5865
        78                         -0.1839149              -5.0046
        79                         -0.1556727              -4.2361
       ...                                ...                  ...
       132                          0.5780183              15.7287
      -------------------------------------------------------------
                  HL-Gap            0.1083525 Eh            2.9484 eV

     #   Z          covCN         q      C6AA      α(0)
     1   6 C        2.963     0.015    27.668     8.628
     2   6 C        2.931     0.007    27.858     8.656
     3   6 C        2.962     0.013    27.717     8.635
     4   6 C        2.932    -0.049    29.213     8.864
     5   6 C        2.962     0.032    27.285     8.568
     6   6 C        2.933    -0.048    29.203     8.863
     7   6 C        3.759    -0.120    22.849     6.815
     8   6 C        3.757    -0.116    22.780     6.805
     9   7 N        2.879     0.075    19.939     6.632
    10   6 C        3.098     0.058    26.578     8.449
    11   7 N        2.879     0.066    20.092     6.657
    12   6 C        3.069    -0.010    28.187     8.705
    13   6 C        3.072    -0.004    28.044     8.683
    14   6 C        3.746    -0.021    21.008     6.538
    15   6 C        3.124     0.043    26.848     8.485
    16   7 N        2.071    -0.209    26.236     7.598
    17   7 N        2.180    -0.111    23.902     7.255
    18   7 N        3.027     0.107    19.391     6.540
    19   6 C        2.981    -0.024    28.597     8.772
    20   6 C        3.747    -0.024    21.074     6.548
    21   6 C        2.973     0.001    28.010     8.681
    22   6 C        2.923    -0.036    28.897     8.816
    23   6 C        2.919    -0.025    28.631     8.775
    24   6 C        2.920    -0.024    28.611     8.771
    25   6 C        2.919    -0.025    28.617     8.772
    26   6 C        2.923    -0.036    28.896     8.815
    27   6 C        3.757    -0.126    22.960     6.832
    28   1 H        0.926     0.059     2.213     2.326
    29   1 H        0.926     0.061     2.193     2.316
    30   1 H        0.925     0.064     2.154     2.295
    31   1 H        0.925     0.069     2.099     2.266
    32   1 H        0.925     0.059     2.211     2.325
    33   1 H        0.925     0.055     2.257     2.350
    34   1 H        0.925     0.042     2.416     2.431
    35   1 H        0.925     0.067     2.121     2.277
    36   1 H        0.926     0.123     1.587     1.970
    37   1 H        0.926     0.096     1.825     2.113
    38   1 H        0.926     0.100     1.787     2.090
    39   1 H        0.924     0.087     1.904     2.158
    40   1 H        0.924     0.085     1.929     2.172
    41   1 H        0.927     0.057     2.239     2.340
    42   1 H        0.924     0.071     2.070     2.250
    43   1 H        0.924     0.091     1.868     2.138
    44   1 H        0.926     0.036     2.505     2.475
    45   1 H        0.926     0.046     2.365     2.405
    46   1 H        0.926     0.050     2.326     2.385
    47   1 H        0.926     0.049     2.335     2.390
    48   1 H        0.926     0.038     2.475     2.460
    49   1 H        0.925     0.067     2.120     2.277
    50   1 H        0.925     0.070     2.081     2.256
    51   1 H        0.924     0.048     2.340     2.392

Wiberg/Mayer (AO) data.
largest (>0.10) Wiberg bond orders for each atom

     #   Z sym  total        # sym  WBO       # sym  WBO       # sym  WBO
 ---------------------------------------------------------------------------
     1   6 C    3.986 --     6 C    1.424     2 C    1.355    27 C    1.030
     2   6 C    3.910 --     3 C    1.371     1 C    1.355     9 N    0.953
     3   6 C    3.986 --     4 C    1.415     2 C    1.371     8 C    1.027
                             6 C    0.100
     4   6 C    3.988 --     3 C    1.415     5 C    1.408    28 H    0.964
     5   6 C    3.985 --     4 C    1.408     6 C    1.399     7 C    1.035
     6   6 C    3.988 --     1 C    1.424     5 C    1.399    29 H    0.964
                             3 C    0.100
     7   6 C    3.992 --     5 C    1.035    32 H    0.982    30 H    0.972
                            31 H    0.959
     8   6 C    3.993 --     3 C    1.027    35 H    0.982    34 H    0.975
                            33 H    0.967
     9   7 N    3.718 --    10 C    1.369    13 C    1.221     2 C    0.953
    10   6 C    3.946 --     9 N    1.369    11 N    1.349    36 H    0.951
    11   7 N    3.706 --    10 C    1.349    12 C    1.222    14 C    0.975
    12   6 C    3.948 --    13 C    1.593    11 N    1.222    37 H    0.963
    13   6 C    3.952 --    12 C    1.593     9 N    1.221    38 H    0.963
    14   6 C    3.949 --    15 C    0.989    11 N    0.975    40 H    0.965
                            39 H    0.949
    15   6 C    3.971 --    19 C    1.478    16 N    1.347    14 C    0.989
    16   7 N    3.048 --    17 N    1.462    15 C    1.347    18 N    0.119
    17   7 N    3.008 --    16 N    1.462    18 N    1.275    19 C    0.132
    18   7 N    3.726 --    19 C    1.288    17 N    1.275    20 C    0.969
                            16 N    0.119
    19   6 C    3.959 --    15 C    1.478    18 N    1.288    41 H    0.967
                            17 N    0.132
    20   6 C    3.952 --    21 C    0.991    18 N    0.969    43 H    0.957
                            42 H    0.956
    21   6 C    3.983 --    26 C    1.420    22 C    1.410    20 C    0.991
                            24 C    0.110
    22   6 C    3.992 --    23 C    1.449    21 C    1.410    44 H    0.970
                            25 C    0.113
    23   6 C    3.992 --    22 C    1.449    24 C    1.435    45 H    0.970
                            26 C    0.111
    24   6 C    3.990 --    25 C    1.443    23 C    1.435    46 H    0.970
                            21 C    0.110
    25   6 C    3.991 --    24 C    1.443    26 C    1.439    47 H    0.970
                            22 C    0.113
    26   6 C    3.990 --    25 C    1.439    21 C    1.420    48 H    0.968
                            23 C    0.111
    27   6 C    3.991 --     1 C    1.030    49 H    0.982    51 H    0.969
                            50 H    0.963
    28   1 H    0.995 --     4 C    0.964
    29   1 H    0.995 --     6 C    0.964
    30   1 H    0.995 --     7 C    0.972
    31   1 H    0.995 --     7 C    0.959
    32   1 H    0.996 --     7 C    0.982
    33   1 H    0.997 --     8 C    0.967
    34   1 H    0.998 --     8 C    0.975
    35   1 H    0.995 --     8 C    0.982
    36   1 H    0.985 --    10 C    0.951
    37   1 H    0.990 --    12 C    0.963
    38   1 H    0.990 --    13 C    0.963
    39   1 H    0.992 --    14 C    0.949
    40   1 H    0.992 --    14 C    0.965
    41   1 H    0.997 --    19 C    0.967
    42   1 H    0.995 --    20 C    0.956
    43   1 H    0.991 --    20 C    0.957
    44   1 H    0.999 --    22 C    0.970
    45   1 H    0.997 --    23 C    0.970
    46   1 H    0.997 --    24 C    0.970
    47   1 H    0.997 --    25 C    0.970
    48   1 H    0.999 --    26 C    0.968
    49   1 H    0.995 --    27 C    0.982
    50   1 H    0.995 --    27 C    0.963
    51   1 H    0.997 --    27 C    0.969
 ---------------------------------------------------------------------------

molecular dipole:
                 x           y           z       tot (Debye)
 q only:       -6.822      -2.709      -1.566
   full:       -7.420      -3.199      -1.659      20.967

           -------------------------------------------------
          | TOTAL ENERGY              -73.605811697247 Eh   |
          | GRADIENT NORM               0.000336534331 Eh/α |
          | HOMO-LUMO GAP               2.948421066295 eV   |
           -------------------------------------------------

 * finished run on 2024/12/20 at 02:10:17.467
