   * xtb version 6.7.1 (edcfbbe) compiled by 'conda@3ef47c1a292c' on 2024-11-25

   ID    Z sym.   atoms
    1    6 C      1-7, 9, 11-16
    2    8 O      8
    3    7 N      10
    4    1 H      17-46

          program call               : xtb C0203.xyz --opt --namespace C0203 --charge +1
          :  Hamiltonian                  GFN2-xTB          :
 * total energy  :   -51.8394301 Eh     change       -0.5739764E-10 Eh
 * total energy  :   -51.8499401 Eh     change       -0.1051004E-01 Eh
 * total energy  :   -51.8527244 Eh     change       -0.2784232E-02 Eh
 * total energy  :   -51.8532301 Eh     change       -0.5057269E-03 Eh
 * total energy  :   -51.8535598 Eh     change       -0.3296998E-03 Eh
 * total energy  :   -51.8538975 Eh     change       -0.3377470E-03 Eh
 * total energy  :   -51.8541722 Eh     change       -0.2746933E-03 Eh
 * total energy  :   -51.8544678 Eh     change       -0.2956043E-03 Eh
 * total energy  :   -51.8548640 Eh     change       -0.3961917E-03 Eh
 * total energy  :   -51.8554316 Eh     change       -0.5676116E-03 Eh
 * total energy  :   -51.8683921 Eh     change       -0.8849734E-05 Eh
 * total energy  :   -51.8683996 Eh     change       -0.7534050E-05 Eh
 * total energy  :   -51.8684070 Eh     change       -0.7348274E-05 Eh
 * total energy  :   -51.8684159 Eh     change       -0.8940930E-05 Eh
 * total energy  :   -51.8684267 Eh     change       -0.1079242E-04 Eh
 * total energy  :   -51.8684369 Eh     change       -0.1017755E-04 Eh
 * total energy  :   -51.8684446 Eh     change       -0.7728640E-05 Eh
 * total energy  :   -51.8684505 Eh     change       -0.5917435E-05 Eh
 * total energy  :   -51.8684555 Eh     change       -0.4971482E-05 Eh
   *** GEOMETRY OPTIMIZATION CONVERGED AFTER 111 ITERATIONS ***

 final structure:
================
46
 xtb: 6.7.1 (edcfbbe)
C            1.19334641964869        1.46596078708766       -0.42438629834910
C           -0.32190239412047        1.59791466216174       -0.53362614869090
C           -1.07006200539206        1.01597662076915        0.66693469724449
C           -0.86402643384222        1.82599697399439        1.94699215561833
C           -1.69707949874891        1.30340406517475        3.12120147488124
C           -1.30377922643817       -0.08626420944538        3.63934622088267
C           -0.25143351784123       -0.19628461767275        4.70156505083515
O           -0.25740298798970       -1.07595940615164        5.52435338963396
C            0.86940148856739        0.84926986636551        4.64858421586807
N            1.84787139277909        0.79631998502486        5.76246175517417
C            2.58935904862517       -0.51412183764605        5.75201098851632
C            3.46341020630198       -0.79240644858818        4.53874750002796
C            2.85725300421156        1.88979139605519        5.58552003803949
C            2.39021554243994        3.31656465065708        5.82505421106296
C            1.17144921868679        0.89386812699543        7.10405083280567
C           -0.08972837971601        1.74270901604224        7.18305511474835
H            1.58818495790292        2.06916403756645        0.39055702340261
H            1.66284926066737        1.80387752648212       -1.34394328960618
H            1.47664378254072        0.42739248625534       -0.26275516358251
H           -0.58818897023223        2.64969211705924       -0.65191188774435
H           -0.65261808904849        1.07186428387872       -1.43039723302507
H           -2.13677788918111        0.99209378753637        0.43751171105419
H           -0.74095739543611       -0.01608855330852        0.81135368855522
H            0.19699941646465        1.84580175285307        2.19675763826562
H           -1.17040406186349        2.85551706085312        1.75124684437876
H           -1.68414841276839        2.02547143285984        3.94145649096548
H           -2.73187630135797        1.24061910082517        2.78148092738342
H           -2.18293483618803       -0.60389820847527        4.03057335415484
H           -0.95226846366585       -0.69337274025221        2.79845337428559
H            1.40596042204552        0.70722338112333        3.70855676074769
H            0.41416482113578        1.83890015127472        4.62770651924608
H            3.21105718326933       -0.53318296620628        6.64935494806303
H            1.84133674600727       -1.30381684791616        5.83585425902560
H            4.29778385537040       -0.10313155001285        4.44755630500088
H            3.88145735408314       -1.78800028443397        4.66745836229075
H            2.90209611297842       -0.80329515435028        3.60863332904453
H            3.68083256291705        1.67596102435096        6.27018949053677
H            3.23463618991357        1.81806040800103        4.56453832666225
H            2.11552779183900        3.49448543587971        6.85986744441342
H            3.22690936419079        3.97335540629282        5.59700565526214
H            1.56981647600108        3.60645350163792        5.17437571108707
H            0.89300343455756       -0.11787910026266        7.40273002699338
H            1.91785895003768        1.26561815257867        7.80749884263261
H           -0.91580280134961        1.28319181829807        6.64751158735494
H           -0.37723061564807        1.79025598644404        8.23097509731635
H            0.04121727762082        2.76043692251510        6.83312865748950

          :  Hamiltonian                  GFN2-xTB          :
         :: total energy             -51.868455516838 Eh    ::
         :: gradient norm              0.000239695656 Eh/a0 ::
         :: HOMO-LUMO gap              3.230992172937 eV    ::
         :: SCC energy               -52.585367931931 Eh    ::
         :: -> dispersion             -0.037325184786 Eh    ::
         :: repulsion energy           0.716912415093 Eh    ::

    * Orbital Energies and Occupations

         #    Occupation            Energy/Eh            Energy/eV
      -------------------------------------------------------------
         1        2.0000           -0.8619296             -23.4543
       ...           ...                  ...                  ...
        36        2.0000           -0.5986682             -16.2906
        37        2.0000           -0.5923919             -16.1198
        38        2.0000           -0.5892921             -16.0355
        39        2.0000           -0.5859593             -15.9448
        40        2.0000           -0.5840851             -15.8938
        41        2.0000           -0.5724434             -15.5770
        42        2.0000           -0.5606299             -15.2555
        43        2.0000           -0.5560373             -15.1305
        44        2.0000           -0.5430489             -14.7771
        45        2.0000           -0.5373636             -14.6224
        46        2.0000           -0.5233306             -14.2406
        47        2.0000           -0.5204926             -14.1633
        48        2.0000           -0.5133601             -13.9692 (HOMO)
        49                         -0.3946234             -10.7382 (LUMO)
        50                         -0.2380285              -6.4771
        51                         -0.1741965              -4.7401
        52                         -0.1610362              -4.3820
        53                         -0.1535268              -4.1777
        54                         -0.0659076              -1.7934
        55                         -0.0593874              -1.6160
        56                         -0.0523784              -1.4253
        57                         -0.0501501              -1.3647
        58                         -0.0399984              -1.0884
        59                         -0.0358549              -0.9757
       ...                                ...                  ...
        94                          0.4810020              13.0887
      -------------------------------------------------------------
                  HL-Gap            0.1187368 Eh            3.2310 eV

     #   Z          covCN         q      C6AA      α(0)
     1   6 C        3.751    -0.104    22.544     6.771
     2   6 C        3.800    -0.058    21.626     6.621
     3   6 C        3.801    -0.063    21.703     6.633
     4   6 C        3.801    -0.067    21.776     6.644
     5   6 C        3.800    -0.068    21.804     6.648
     6   6 C        3.802    -0.100    22.403     6.739
     7   6 C        2.808     0.237    23.041     7.864
     8   8 O        0.857    -0.349    20.697     6.100
     9   6 C        3.754    -0.059    21.687     6.640
    10   7 N        3.616     0.110    19.356     6.534
    11   6 C        3.761    -0.039    21.321     6.582
    12   6 C        3.750    -0.127    23.005     6.840
    13   6 C        3.756    -0.032    21.196     6.564
    14   6 C        3.751    -0.126    22.983     6.837
    15   6 C        3.753    -0.032    21.200     6.566
    16   6 C        3.750    -0.126    22.977     6.836
    17   1 H        0.925     0.024     2.670     2.555
    18   1 H        0.925     0.045     2.379     2.412
    19   1 H        0.925     0.032     2.563     2.503
    20   1 H        0.924     0.039     2.461     2.453
    21   1 H        0.924     0.044     2.397     2.421
    22   1 H        0.924     0.042     2.424     2.435
    23   1 H        0.924     0.029     2.595     2.519
    24   1 H        0.924     0.023     2.685     2.562
    25   1 H        0.924     0.048     2.341     2.393
    26   1 H        0.924     0.033     2.545     2.495
    27   1 H        0.924     0.065     2.140     2.288
    28   1 H        0.924     0.091     1.872     2.139
    29   1 H        0.924     0.100     1.782     2.088
    30   1 H        0.924     0.102     1.764     2.077
    31   1 H        0.925     0.111     1.690     2.033
    32   1 H        0.924     0.079     1.992     2.207
    33   1 H        0.924     0.111     1.685     2.030
    34   1 H        0.925     0.063     2.162     2.299
    35   1 H        0.925     0.087     1.910     2.161
    36   1 H        0.925     0.059     2.207     2.323
    37   1 H        0.924     0.083     1.948     2.182
    38   1 H        0.924     0.084     1.942     2.179
    39   1 H        0.925     0.071     2.074     2.252
    40   1 H        0.925     0.083     1.950     2.184
    41   1 H        0.925     0.060     2.203     2.321
    42   1 H        0.924     0.103     1.760     2.074
    43   1 H        0.924     0.080     1.984     2.202
    44   1 H        0.925     0.063     2.160     2.298
    45   1 H        0.925     0.083     1.948     2.182
    46   1 H        0.925     0.065     2.144     2.290

Wiberg/Mayer (AO) data.
largest (>0.10) Wiberg bond orders for each atom

     #   Z sym  total        # sym  WBO       # sym  WBO       # sym  WBO
 ---------------------------------------------------------------------------
     1   6 C    3.997 --     2 C    1.020    19 H    0.988    17 H    0.987
                            18 H    0.986
     2   6 C    3.995 --     1 C    1.020     3 C    1.006    20 H    0.977
                            21 H    0.977
     3   6 C    3.995 --     4 C    1.009     2 C    1.006    22 H    0.976
                            23 H    0.970
     4   6 C    3.995 --     3 C    1.009     5 C    1.007    25 H    0.974
                            24 H    0.972
     5   6 C    3.990 --     4 C    1.007     6 C    0.994    26 H    0.973
                            27 H    0.972
     6   6 C    3.986 --     7 C    1.015     5 C    0.994    28 H    0.957
                            29 H    0.912
     7   6 C    3.922 --     8 O    1.850     6 C    1.015     9 C    0.966
     8   8 O    2.092 --     7 C    1.850
     9   6 C    3.943 --     7 C    0.966    10 N    0.951    31 H    0.939
                            30 H    0.938
    10   7 N    3.800 --     9 C    0.951    13 C    0.930    11 C    0.922
                            15 C    0.921
    11   6 C    3.927 --    12 C    1.024    32 H    0.969    33 H    0.955
                            10 N    0.922
    12   6 C    3.984 --    11 C    1.024    34 H    0.981    36 H    0.979
                            35 H    0.971
    13   6 C    3.938 --    14 C    1.023    37 H    0.967    38 H    0.965
                            10 N    0.930
    14   6 C    3.983 --    13 C    1.023    39 H    0.979    41 H    0.979
                            40 H    0.972
    15   6 C    3.929 --    16 C    1.023    43 H    0.969    42 H    0.963
                            10 N    0.921
    16   6 C    3.983 --    15 C    1.023    44 H    0.980    46 H    0.977
                            45 H    0.972
    17   1 H    0.999 --     1 C    0.987
    18   1 H    0.998 --     1 C    0.986
    19   1 H    0.999 --     1 C    0.988
    20   1 H    0.998 --     2 C    0.977
    21   1 H    0.998 --     2 C    0.977
    22   1 H    0.998 --     3 C    0.976
    23   1 H    0.999 --     3 C    0.970
    24   1 H    0.999 --     4 C    0.972
    25   1 H    0.997 --     4 C    0.974
    26   1 H    0.999 --     5 C    0.973
    27   1 H    0.996 --     5 C    0.972
    28   1 H    0.991 --     6 C    0.957
    29   1 H    0.990 --     6 C    0.912
    30   1 H    0.990 --     9 C    0.938
    31   1 H    0.988 --     9 C    0.939
    32   1 H    0.994 --    11 C    0.969
    33   1 H    0.987 --    11 C    0.955
    34   1 H    0.996 --    12 C    0.981
    35   1 H    0.992 --    12 C    0.971
    36   1 H    0.996 --    12 C    0.979
    37   1 H    0.993 --    13 C    0.967
    38   1 H    0.993 --    13 C    0.965
    39   1 H    0.995 --    14 C    0.979
    40   1 H    0.993 --    14 C    0.972
    41   1 H    0.996 --    14 C    0.979
    42   1 H    0.989 --    15 C    0.963
    43   1 H    0.994 --    15 C    0.969
    44   1 H    0.996 --    16 C    0.980
    45   1 H    0.993 --    16 C    0.972
    46   1 H    0.996 --    16 C    0.977
 ---------------------------------------------------------------------------

molecular dipole:
                 x           y           z       tot (Debye)
 q only:        2.983       2.367       9.584
   full:        3.073       2.430       9.510      26.142

           -------------------------------------------------
          | TOTAL ENERGY              -51.868455516838 Eh   |
          | GRADIENT NORM               0.000239695656 Eh/α |
          | HOMO-LUMO GAP               3.230992172937 eV   |
           -------------------------------------------------

 * finished run on 2024/12/20 at 02:10:13.220
