   * xtb version 6.7.1 (edcfbbe) compiled by 'conda@3ef47c1a292c' on 2024-11-25

   ID    Z sym.   atoms
    1    6 C      1-12, 14, 15, 17-27
    2    7 N      13, 16
    3    1 H      28-74

          program call               : xtb C0201.xyz --opt --namespace C0201 --charge +1
          :  Hamiltonian                  GFN2-xTB          :
 * total energy  :   -82.9986685 Eh     change       -0.1331415E-09 Eh
 * total energy  :   -83.0040322 Eh     change       -0.5363692E-02 Eh
 * total energy  :   -83.0052111 Eh     change       -0.1178931E-02 Eh
 * total energy  :   -83.0055041 Eh     change       -0.2929697E-03 Eh
 * total energy  :   -83.0057562 Eh     change       -0.2521763E-03 Eh
 * total energy  :   -83.0058907 Eh     change       -0.1344325E-03 Eh
 * total energy  :   -83.0060427 Eh     change       -0.1519912E-03 Eh
 * total energy  :   -83.0061651 Eh     change       -0.1224839E-03 Eh
 * total energy  :   -83.0062506 Eh     change       -0.8544332E-04 Eh
 * total energy  :   -83.0063140 Eh     change       -0.6346835E-04 Eh
 * total energy  :   -83.0096638 Eh     change       -0.6601738E-05 Eh
 * total energy  :   -83.0096704 Eh     change       -0.6564686E-05 Eh
 * total energy  :   -83.0096772 Eh     change       -0.6843725E-05 Eh
 * total energy  :   -83.0096848 Eh     change       -0.7561534E-05 Eh
 * total energy  :   -83.0096924 Eh     change       -0.7655348E-05 Eh
 * total energy  :   -83.0096997 Eh     change       -0.7274436E-05 Eh
 * total energy  :   -83.0097059 Eh     change       -0.6229918E-05 Eh
 * total energy  :   -83.0097113 Eh     change       -0.5370721E-05 Eh
 * total energy  :   -83.0097161 Eh     change       -0.4762866E-05 Eh
   *** GEOMETRY OPTIMIZATION CONVERGED AFTER 84 ITERATIONS ***

 final structure:
================
74
 xtb: 6.7.1 (edcfbbe)
C            1.36141970552185        0.10780019962697        0.94835234646940
C            1.32970249064406        1.62906573966315        0.86030795426420
C            1.60575310091565        2.15832497198571       -0.54787450108856
C            0.59394204322327        1.72455004443345       -1.61027983300060
C           -0.85167781147974        2.14272185740171       -1.33522906099923
C           -1.07603253266157        3.65139783794424       -1.21147475520603
C           -0.66217966577451        4.47027335227249       -2.43641527089373
C           -1.32301956904036        4.04551022338300       -3.74901630495078
C           -2.85284793463381        4.08370622656081       -3.74158678461191
C           -3.46104696376937        5.46502999118033       -3.48425984707030
C           -3.08853045329464        6.53853270919587       -4.50734667931824
C           -3.52283257524772        6.21781009289279       -5.94329128757988
N           -4.96120091859048        6.15756588937438       -6.05990661198207
C           -5.78061534775429        7.18579113919591       -6.41222459283027
C           -7.06195337835241        6.73125736671236       -6.32873922863542
N           -7.00717093083471        5.43611979177196       -5.91398180565897
C           -5.72655752994364        5.11088936000545       -5.76119718681559
C           -8.13405902297234        4.54560790693597       -5.75905065327937
C           -8.42344084161557        3.78551784942952       -7.05908830349572
C           -7.33059523822016        2.79223544395151       -7.46963985540283
C           -7.08467503479250        1.68193183640247       -6.43327466207332
C           -8.32451366523104        0.97953737267520       -5.85516254921169
C           -9.16017637575919        0.25423125139127       -6.86986899183235
C           -8.87790903703274       -0.92186698631611       -7.42049242475445
C           -9.79277146550552       -1.55158026995880       -8.42585875240951
C           -7.64165043853010       -1.71653398792920       -7.12728914397531
C           -7.66912359406646        2.21626370512579       -8.84406117346701
H            0.54116480063809       -0.33691189792284        0.39036219056955
H            1.27501773930945       -0.21055724715604        1.98454719559589
H            2.29790067495865       -0.27654716281521        0.55011377477358
H            0.36386848327482        1.99457806145934        1.21409903677845
H            2.09299315590242        2.03555614332340        1.52789390410020
H            1.64806318708261        3.24898987472511       -0.50995739910573
H            2.59220053701875        1.80830664247669       -0.86203902827567
H            0.91333939559597        2.13166282712963       -2.57237685720641
H            0.61979327995547        0.63723636823459       -1.70208603739369
H           -1.48084402855449        1.74452801486643       -2.13536244656209
H           -1.18774275073021        1.67509656858847       -0.40821573972813
H           -2.13357333773807        3.82502708045490       -0.99609518183560
H           -0.51504294616037        4.02487137925388       -0.35363637002290
H           -0.88146886255509        5.52212688612301       -2.23788153936616
H            0.41794272234701        4.39233868058057       -2.56711615972450
H           -0.94227555974026        4.68217145195123       -4.55133884993535
H           -1.01667068510098        3.02529171422919       -3.98400860867706
H           -3.20474500438922        3.68497418440277       -4.69801884785740
H           -3.21737365001636        3.40914049681518       -2.96601348610483
H           -4.55056029847762        5.37150879572144       -3.43097430621619
H           -3.13106153742480        5.81311760781321       -2.50580404267333
H           -3.53554493343891        7.48788098346497       -4.20479168815479
H           -2.00782081091916        6.67220905426190       -4.51611120999249
H           -3.16144323136832        6.99514027247632       -6.61858267555263
H           -3.10509729460251        5.25957763837583       -6.25571964699610
H           -5.40839942305360        8.14852761591027       -6.69680719764186
H           -7.98554986918877        7.23483120807921       -6.52830070119377
H           -5.36653465114316        4.15174908799665       -5.44488799741177
H           -7.91556710586948        3.84613712170261       -4.95114913853804
H           -9.00241582979833        5.14625018838793       -5.48196021820543
H           -9.36308411189600        3.25042228728047       -6.93332223977055
H           -8.56503307876356        4.50873441006461       -7.86539528817345
H           -6.38543286837885        3.34474536881375       -7.57974063383972
H           -6.45340911672589        0.92804502614133       -6.90422492872304
H           -6.51643261749433        2.08971279052948       -5.59020616128180
H           -7.96313935934478        0.26682603300046       -5.10898352104734
H           -8.95047671214040        1.70044322428101       -5.32622695486217
H          -10.08519816630245        0.74353476432343       -7.14746732056367
H           -9.24732684962367       -1.77613120019824       -9.34175279073113
H          -10.18384315781310       -2.49143821980965       -8.03817621523585
H          -10.63093050874499       -0.90275004910755       -8.66634284077323
H           -6.90271758837353       -1.56114435670252       -7.91405939135906
H           -7.19220009835265       -1.44188321824988       -6.17708294815676
H           -7.87793413257418       -2.77822840054505       -7.10655302746422
H           -7.75949969899848        3.01238701687336       -9.57984261978624
H           -6.88597239056224        1.53846590243710       -9.17195590160381
H           -8.60220872499340        1.66417806498870       -8.81086798423045

          :  Hamiltonian                  GFN2-xTB          :
         :: total energy             -83.009716077209 Eh    ::
         :: gradient norm              0.000291266860 Eh/a0 ::
         :: HOMO-LUMO gap              1.503961799414 eV    ::
         :: SCC energy               -84.280733085174 Eh    ::
         :: -> dispersion             -0.066090076684 Eh    ::
         :: repulsion energy           1.271017007964 Eh    ::

    * Orbital Energies and Occupations

         #    Occupation            Energy/Eh            Energy/eV
      -------------------------------------------------------------
         1        2.0000           -0.8845232             -24.0691
       ...           ...                  ...                  ...
        66        2.0000           -0.5186435             -14.1130
        67        2.0000           -0.5174717             -14.0811
        68        2.0000           -0.5149074             -14.0113
        69        2.0000           -0.5074165             -13.8075
        70        2.0000           -0.5060028             -13.7690
        71        2.0000           -0.4974990             -13.5376
        72        2.0000           -0.4971571             -13.5283
        73        2.0000           -0.4939452             -13.4409
        74        2.0000           -0.4900444             -13.3348
        75        2.0000           -0.4752937             -12.9334
        76        2.0000           -0.4714920             -12.8299
        77        2.0000           -0.4691811             -12.7671
        78        2.0000           -0.4506540             -12.2629 (HOMO)
        79                         -0.3953844             -10.7590 (LUMO)
        80                         -0.3603402              -9.8054
        81                         -0.2655267              -7.2254
        82                         -0.1726862              -4.6990
        83                         -0.1209842              -3.2921
        84                         -0.0646080              -1.7581
        85                         -0.0611277              -1.6634
        86                         -0.0511346              -1.3914
        87                         -0.0402394              -1.0950
        88                         -0.0285643              -0.7773
        89                         -0.0268782              -0.7314
       ...                                ...                  ...
       155                          0.5752507              15.6534
      -------------------------------------------------------------
                  HL-Gap            0.0552696 Eh            1.5040 eV

     #   Z          covCN         q      C6AA      α(0)
     1   6 C        3.751    -0.102    22.519     6.767
     2   6 C        3.799    -0.053    21.521     6.605
     3   6 C        3.801    -0.058    21.619     6.620
     4   6 C        3.800    -0.058    21.614     6.619
     5   6 C        3.800    -0.057    21.601     6.617
     6   6 C        3.800    -0.058    21.626     6.621
     7   6 C        3.800    -0.060    21.656     6.626
     8   6 C        3.800    -0.061    21.671     6.628
     9   6 C        3.800    -0.060    21.664     6.627
    10   6 C        3.800    -0.065    21.756     6.641
    11   6 C        3.801    -0.070    21.841     6.654
    12   6 C        3.742    -0.026    21.116     6.556
    13   7 N        2.867     0.066    20.096     6.658
    14   6 C        3.074    -0.008    28.134     8.696
    15   6 C        3.075    -0.007    28.121     8.694
    16   7 N        2.868     0.065    20.108     6.660
    17   6 C        3.105     0.050    26.748     8.474
    18   6 C        3.742    -0.026    21.112     6.555
    19   6 C        3.806    -0.075    21.921     6.665
    20   6 C        3.848    -0.014    20.784     6.485
    21   6 C        3.801    -0.064    21.729     6.637
    22   6 C        3.802    -0.057    21.600     6.617
    23   6 C        2.895    -0.066    29.632     8.925
    24   6 C        2.937     0.014    27.699     8.632
    25   6 C        3.761    -0.114    22.724     6.796
    26   6 C        3.758    -0.111    22.668     6.788
    27   6 C        3.756    -0.116    22.783     6.806
    28   1 H        0.925     0.033     2.548     2.496
    29   1 H        0.925     0.034     2.528     2.487
    30   1 H        0.925     0.036     2.507     2.476
    31   1 H        0.924     0.029     2.598     2.521
    32   1 H        0.924     0.030     2.585     2.514
    33   1 H        0.924     0.028     2.619     2.531
    34   1 H        0.924     0.032     2.559     2.502
    35   1 H        0.924     0.026     2.641     2.541
    36   1 H        0.924     0.035     2.519     2.482
    37   1 H        0.924     0.022     2.704     2.572
    38   1 H        0.924     0.036     2.499     2.472
    39   1 H        0.924     0.023     2.695     2.567
    40   1 H        0.924     0.040     2.453     2.449
    41   1 H        0.924     0.026     2.645     2.543
    42   1 H        0.924     0.042     2.420     2.433
    43   1 H        0.924     0.025     2.656     2.548
    44   1 H        0.924     0.044     2.391     2.418
    45   1 H        0.924     0.013     2.849     2.640
    46   1 H        0.924     0.048     2.344     2.394
    47   1 H        0.924     0.020     2.740     2.589
    48   1 H        0.925     0.064     2.152     2.294
    49   1 H        0.924     0.051     2.304     2.374
    50   1 H        0.925     0.078     2.002     2.213
    51   1 H        0.924     0.084     1.939     2.177
    52   1 H        0.924     0.088     1.903     2.157
    53   1 H        0.926     0.103     1.760     2.075
    54   1 H        0.926     0.103     1.756     2.072
    55   1 H        0.926     0.113     1.670     2.021
    56   1 H        0.924     0.087     1.909     2.161
    57   1 H        0.924     0.084     1.941     2.179
    58   1 H        0.925     0.082     1.961     2.190
    59   1 H        0.924     0.052     2.300     2.372
    60   1 H        0.923     0.012     2.862     2.646
    61   1 H        0.924     0.053     2.283     2.363
    62   1 H        0.924     0.009     2.901     2.664
    63   1 H        0.924     0.041     2.435     2.440
    64   1 H        0.924     0.025     2.661     2.551
    65   1 H        0.925     0.019     2.741     2.589
    66   1 H        0.925     0.050     2.319     2.381
    67   1 H        0.925     0.053     2.286     2.364
    68   1 H        0.925     0.039     2.467     2.456
    69   1 H        0.924     0.045     2.386     2.415
    70   1 H        0.925     0.040     2.442     2.444
    71   1 H        0.925     0.050     2.314     2.379
    72   1 H        0.925     0.038     2.477     2.461
    73   1 H        0.925     0.048     2.350     2.397
    74   1 H        0.925     0.061     2.189     2.313

Wiberg/Mayer (AO) data.
largest (>0.10) Wiberg bond orders for each atom

     #   Z sym  total        # sym  WBO       # sym  WBO       # sym  WBO
 ---------------------------------------------------------------------------
     1   6 C    3.997 --     2 C    1.020    30 H    0.987    29 H    0.987
                            28 H    0.986
     2   6 C    3.998 --     1 C    1.020     3 C    1.008    32 H    0.978
                            31 H    0.976
     3   6 C    3.997 --     2 C    1.008     4 C    1.008    34 H    0.977
                            33 H    0.976
     4   6 C    3.997 --     5 C    1.008     3 C    1.008    35 H    0.975
                            36 H    0.975
     5   6 C    3.997 --     4 C    1.008     6 C    1.008    37 H    0.975
                            38 H    0.974
     6   6 C    3.997 --     5 C    1.008     7 C    1.007    39 H    0.976
                            40 H    0.974
     7   6 C    3.996 --     8 C    1.008     6 C    1.007    41 H    0.975
                            42 H    0.974
     8   6 C    3.996 --     7 C    1.008     9 C    1.007    43 H    0.975
                            44 H    0.973
     9   6 C    3.996 --    10 C    1.007     8 C    1.007    46 H    0.972
                            45 H    0.972
    10   6 C    3.993 --    11 C    1.009     9 C    1.007    47 H    0.973
                            48 H    0.968
    11   6 C    3.984 --    10 C    1.009    12 C    0.981    49 H    0.975
                            50 H    0.963
    12   6 C    3.937 --    11 C    0.981    13 N    0.969    51 H    0.966
                            52 H    0.960
    13   7 N    3.714 --    17 C    1.356    14 C    1.229    12 C    0.969
    14   6 C    3.950 --    15 C    1.589    13 N    1.229    53 H    0.962
    15   6 C    3.950 --    14 C    1.589    16 N    1.229    54 H    0.962
    16   7 N    3.715 --    17 C    1.358    15 C    1.229    18 C    0.968
    17   6 C    3.946 --    16 N    1.358    13 N    1.356    55 H    0.948
    18   6 C    3.936 --    19 C    0.981    16 N    0.968    57 H    0.966
                            56 H    0.961
    19   6 C    3.981 --    20 C    0.997    18 C    0.981    59 H    0.973
                            58 H    0.962
    20   6 C    3.994 --    27 C    1.006    19 C    0.997    21 C    0.995
                            60 H    0.964
    21   6 C    3.994 --    20 C    0.995    22 C    0.991    62 H    0.974
                            61 H    0.973
    22   6 C    3.996 --    23 C    1.019    21 C    0.991    64 H    0.975
                            63 H    0.963
    23   6 C    3.983 --    24 C    1.874    22 C    1.019    65 H    0.965
    24   6 C    3.988 --    23 C    1.874    25 C    1.027    26 C    1.027
    25   6 C    3.996 --    24 C    1.027    68 H    0.985    66 H    0.972
                            67 H    0.969
    26   6 C    3.996 --    24 C    1.027    70 H    0.978    71 H    0.978
                            69 H    0.966
    27   6 C    3.991 --    20 C    1.006    72 H    0.985    73 H    0.985
                            74 H    0.978
    28   1 H    0.999 --     1 C    0.986
    29   1 H    0.999 --     1 C    0.987
    30   1 H    0.999 --     1 C    0.987
    31   1 H    0.999 --     2 C    0.976
    32   1 H    0.999 --     2 C    0.978
    33   1 H    0.999 --     3 C    0.976
    34   1 H    0.999 --     3 C    0.977
    35   1 H    0.999 --     4 C    0.975
    36   1 H    0.999 --     4 C    0.975
    37   1 H    1.000 --     5 C    0.975
    38   1 H    0.999 --     5 C    0.974
    39   1 H    0.999 --     6 C    0.976
    40   1 H    0.998 --     6 C    0.974
    41   1 H    0.999 --     7 C    0.975
    42   1 H    0.998 --     7 C    0.974
    43   1 H    0.999 --     8 C    0.975
    44   1 H    0.998 --     8 C    0.973
    45   1 H    1.000 --     9 C    0.972
    46   1 H    0.998 --     9 C    0.972
    47   1 H    1.000 --    10 C    0.973
    48   1 H    0.996 --    10 C    0.968
    49   1 H    0.997 --    11 C    0.975
    50   1 H    0.993 --    11 C    0.963
    51   1 H    0.992 --    12 C    0.966
    52   1 H    0.992 --    12 C    0.960
    53   1 H    0.989 --    14 C    0.962
    54   1 H    0.989 --    15 C    0.962
    55   1 H    0.987 --    17 C    0.948
    56   1 H    0.992 --    18 C    0.961
    57   1 H    0.992 --    18 C    0.966
    58   1 H    0.992 --    19 C    0.962
    59   1 H    0.997 --    19 C    0.973
    60   1 H    1.000 --    20 C    0.964
    61   1 H    0.997 --    21 C    0.973
    62   1 H    1.000 --    21 C    0.974
    63   1 H    0.998 --    22 C    0.963
    64   1 H    0.999 --    22 C    0.975
    65   1 H    1.000 --    23 C    0.965
    66   1 H    0.997 --    25 C    0.972
    67   1 H    0.996 --    25 C    0.969
    68   1 H    0.999 --    25 C    0.985
    69   1 H    0.998 --    26 C    0.966
    70   1 H    0.998 --    26 C    0.978
    71   1 H    0.997 --    26 C    0.978
    72   1 H    0.999 --    27 C    0.985
    73   1 H    0.997 --    27 C    0.985
    74   1 H    0.996 --    27 C    0.978
 ---------------------------------------------------------------------------

molecular dipole:
                 x           y           z       tot (Debye)
 q only:      -10.906       9.687     -11.137
   full:      -10.904       9.766     -11.150      46.771

           -------------------------------------------------
          | TOTAL ENERGY              -83.009716077209 Eh   |
          | GRADIENT NORM               0.000291266860 Eh/α |
          | HOMO-LUMO GAP               1.503961799414 eV   |
           -------------------------------------------------

 * finished run on 2024/12/20 at 02:10:00.383
