   * xtb version 6.7.1 (edcfbbe) compiled by 'conda@3ef47c1a292c' on 2024-11-25

   ID    Z sym.   atoms
    1    6 C      1, 2, 4, 5, 7, 8, 10-17, 19-24, 28, 29
    2    7 N      3, 6, 9, 25
    3    8 O      18, 26, 27
    4    1 H      30-56

          program call               : xtb C0209.xyz --opt --namespace C0209 --charge +1
          :  Hamiltonian                  GFN2-xTB          :
 * total energy  :   -84.3005920 Eh     change       -0.8525518E-09 Eh
 * total energy  :   -84.3133672 Eh     change       -0.1277516E-01 Eh
 * total energy  :   -84.3157273 Eh     change       -0.2360142E-02 Eh
 * total energy  :   -84.3158374 Eh     change       -0.1100488E-03 Eh
 * total energy  :   -84.3165802 Eh     change       -0.7428610E-03 Eh
 * total energy  :   -84.3169678 Eh     change       -0.3875965E-03 Eh
 * total energy  :   -84.3174010 Eh     change       -0.4332166E-03 Eh
 * total energy  :   -84.3177752 Eh     change       -0.3741405E-03 Eh
 * total energy  :   -84.3181292 Eh     change       -0.3540439E-03 Eh
 * total energy  :   -84.3184289 Eh     change       -0.2997052E-03 Eh
 * total energy  :   -84.3226412 Eh     change       -0.1333697E-04 Eh
 * total energy  :   -84.3226646 Eh     change       -0.2348142E-04 Eh
 * total energy  :   -84.3226876 Eh     change       -0.2291984E-04 Eh
 * total energy  :   -84.3226985 Eh     change       -0.1091359E-04 Eh
 * total energy  :   -84.3227178 Eh     change       -0.1932882E-04 Eh
 * total energy  :   -84.3227301 Eh     change       -0.1232556E-04 Eh
 * total energy  :   -84.3227421 Eh     change       -0.1200341E-04 Eh
 * total energy  :   -84.3227468 Eh     change       -0.4649782E-05 Eh
 * total energy  :   -84.3227514 Eh     change       -0.4629537E-05 Eh
   *** GEOMETRY OPTIMIZATION CONVERGED AFTER 57 ITERATIONS ***

 final structure:
================
56
 xtb: 6.7.1 (edcfbbe)
C            0.00120946394276        0.31392056483138       -0.43892780518416
C            0.59566537356360       -0.64201248620568       -1.47400169180177
N            1.45660591821017       -1.69604332340980       -0.94706275575135
C            0.73701406177093       -2.75102516090061       -0.25895716643131
C            0.84461700043930       -4.06338937742335       -1.07131872943315
N            2.23045480942874       -4.37182054371674       -1.31571758430480
C            2.94534660146352       -3.99424320882863       -2.37940587654691
C            2.37762423383322       -3.32808921126528       -3.56506937940854
N            4.23589714783328       -4.32662693859541       -2.20061798970132
C            4.36760466410093       -4.91204263302631       -0.95181841218686
C            3.08034015625958       -4.94261229998385       -0.38968639949028
C            2.85408680974782       -5.47124071912794        0.87445666035918
C            3.95066450551308       -5.95652435262185        1.55770308259809
C            5.23314630557063       -5.91051252591023        1.00814316164252
C            5.46723138523997       -5.38947504699184       -0.24895989285062
C            5.32156139116560       -4.08186874925768       -3.12031849479363
C            5.16759960819969       -4.84148023580244       -4.46408323873212
O            4.63726759125330       -4.28733519995709       -5.39343234247304
C            5.71943875286070       -6.20567463888898       -4.55729680260047
C            5.90586481991283       -7.03385464604227       -3.44753825467905
C            6.42097207972972       -8.30364034507979       -3.61351426984495
C            6.76148804501216       -8.74003341536192       -4.88727921905567
C            6.57648202832296       -7.93630214870289       -6.00397088581532
C            6.04618692268527       -6.67334554280819       -5.83528831127171
N            7.31807891963214      -10.07794950359594       -5.05041166773002
O            7.41957471577321      -10.75129168297467       -4.05260446020811
O            7.63325815398201      -10.40870952812689       -6.16636359064829
C            2.63879063498773       -1.22909989685081       -0.23049988721038
C            3.58799277279534       -0.44522621379776       -1.12919750494249
H           -0.51358261640592       -0.23100557354299        0.34944619014989
H           -0.71532770336594        0.96955220286305       -0.92472366544230
H            0.77190356390550        0.93191519791994        0.01324730683066
H           -0.21470647926064       -1.13687369762787       -2.01713041153749
H            1.17597498302486       -0.06969008166166       -2.20059730226039
H            1.14194940754593       -2.91876701636895        0.74366007546380
H           -0.32447932900705       -2.51604737323929       -0.15409434661695
H            0.39100500888251       -4.88772468944444       -0.51895259047571
H            0.33407123459723       -3.95073557549192       -2.02713116226629
H            1.71748463458939       -4.01129317240061       -4.10178243848143
H            1.79390608764360       -2.46460912017667       -3.25108719564985
H            3.15090141240797       -3.01209796728793       -4.25858237277920
H            1.86841617770620       -5.49973387897633        1.30853456863025
H            3.81781047634607       -6.37409878406244        2.54263119324154
H            6.06313659348445       -6.28939584656876        1.58245265722864
H            6.46881827611098       -5.35120063744430       -0.64706006521569
H            5.35700116065098       -3.01477110916636       -3.36538618682249
H            6.25682882209815       -4.36223040630545       -2.63681879250393
H            5.62452511240253       -6.71195351402080       -2.45799524679217
H            6.56823321166650       -8.96627982564067       -2.77397398500433
H            6.84564426931746       -8.31196732567119       -6.97949432366570
H            5.88688052310136       -6.02382323655390       -6.68216078153846
H            2.37613438620968       -0.61612988139685        0.64347172961910
H            3.16386197328053       -2.11550011452079        0.14070507291684
H            3.17812642199132        0.52598444519849       -1.38770555642660
H            4.52650904452951       -0.28337231008693       -0.60595283003241
H            3.78760847343107       -0.99299169788335       -2.04718983215860

          :  Hamiltonian                  GFN2-xTB          :
         :: total energy             -84.322751408106 Eh    ::
         :: gradient norm              0.000782946206 Eh/a0 ::
         :: HOMO-LUMO gap              0.871289237291 eV    ::
         :: SCC energy               -85.514523625375 Eh    ::
         :: -> dispersion             -0.063412518676 Eh    ::
         :: repulsion energy           1.191772217269 Eh    ::

    * Orbital Energies and Occupations

         #    Occupation            Energy/Eh            Energy/eV
      -------------------------------------------------------------
         1        2.0000           -0.8736245             -23.7725
       ...           ...                  ...                  ...
        64        2.0000           -0.5596714             -15.2294
        65        2.0000           -0.5570986             -15.1594
        66        2.0000           -0.5544005             -15.0860
        67        2.0000           -0.5541220             -15.0784
        68        2.0000           -0.5488910             -14.9361
        69        2.0000           -0.5476296             -14.9018
        70        2.0000           -0.5455180             -14.8443
        71        2.0000           -0.5412954             -14.7294
        72        2.0000           -0.5376810             -14.6310
        73        2.0000           -0.5347675             -14.5518
        74        2.0000           -0.5336520             -14.5214
        75        2.0000           -0.5257035             -14.3051
        76        2.0000           -0.4655672             -12.6687 (HOMO)
        77                         -0.4335479             -11.7974 (LUMO)
        78                         -0.4056330             -11.0378
        79                         -0.3923370             -10.6760
        80                         -0.3648769              -9.9288
        81                         -0.3622091              -9.8562
        82                         -0.3536654              -9.6237
        83                         -0.3241613              -8.8209
        84                         -0.2374426              -6.4611
        85                         -0.2246763              -6.1138
        86                         -0.1739557              -4.7336
        87                         -0.1308931              -3.5618
       ...                                ...                  ...
       143                          0.5422461              14.7553
      -------------------------------------------------------------
                  HL-Gap            0.0320193 Eh            0.8713 eV

     #   Z          covCN         q      C6AA      α(0)
     1   6 C        3.750    -0.115    22.755     6.803
     2   6 C        3.747     0.001    20.634     6.479
     3   7 N        2.726    -0.193    25.187     7.454
     4   6 C        3.752    -0.000    20.648     6.480
     5   6 C        3.742    -0.028    21.142     6.560
     6   7 N        2.832     0.020    20.907     6.791
     7   6 C        3.066     0.130    25.093     8.214
     8   6 C        3.755    -0.148    23.405     6.898
     9   7 N        2.829     0.005    21.169     6.833
    10   6 C        3.088     0.035    27.107     8.534
    11   6 C        3.097     0.039    27.020     8.519
    12   6 C        2.909    -0.034    28.844     8.807
    13   6 C        2.925    -0.021    28.519     8.758
    14   6 C        2.925    -0.021    28.529     8.759
    15   6 C        2.909    -0.038    28.954     8.823
    16   6 C        3.738    -0.042    21.408     6.602
    17   6 C        2.818     0.228    23.220     7.895
    18   8 O        0.858    -0.318    20.101     6.011
    19   6 C        2.970    -0.007    28.184     8.708
    20   6 C        2.921    -0.027    28.671     8.781
    21   6 C        2.917    -0.018    28.466     8.749
    22   6 C        2.917     0.018    27.607     8.616
    23   6 C        2.915    -0.013    28.341     8.730
    24   6 C        2.928    -0.008    28.211     8.710
    25   7 N        2.758     0.554    13.433     5.443
    26   8 O        0.930    -0.363    20.925     6.135
    27   8 O        0.929    -0.354    20.744     6.108
    28   6 C        3.746     0.013    20.427     6.447
    29   6 C        3.752    -0.113    22.720     6.797
    30   1 H        0.925     0.037     2.483     2.464
    31   1 H        0.925     0.050     2.319     2.382
    32   1 H        0.925     0.045     2.389     2.417
    33   1 H        0.924     0.034     2.524     2.484
    34   1 H        0.924     0.047     2.363     2.404
    35   1 H        0.924     0.044     2.396     2.421
    36   1 H        0.924     0.063     2.162     2.299
    37   1 H        0.924     0.081     1.967     2.193
    38   1 H        0.925     0.084     1.934     2.175
    39   1 H        0.924     0.099     1.793     2.094
    40   1 H        0.925     0.118     1.629     1.996
    41   1 H        0.925     0.110     1.697     2.037
    42   1 H        0.926     0.068     2.108     2.271
    43   1 H        0.926     0.078     2.002     2.212
    44   1 H        0.926     0.077     2.008     2.216
    45   1 H        0.926     0.062     2.174     2.306
    46   1 H        0.924     0.097     1.811     2.104
    47   1 H        0.925     0.092     1.856     2.130
    48   1 H        0.926     0.054     2.267     2.354
    49   1 H        0.926     0.096     1.826     2.113
    50   1 H        0.926     0.105     1.740     2.063
    51   1 H        0.926     0.090     1.875     2.141
    52   1 H        0.923     0.029     2.596     2.520
    53   1 H        0.924     0.016     2.789     2.612
    54   1 H        0.925     0.056     2.249     2.345
    55   1 H        0.925     0.048     2.342     2.393
    56   1 H        0.925     0.034     2.535     2.490

Wiberg/Mayer (AO) data.
largest (>0.10) Wiberg bond orders for each atom

     #   Z sym  total        # sym  WBO       # sym  WBO       # sym  WBO
 ---------------------------------------------------------------------------
     1   6 C    3.994 --     2 C    1.008    32 H    0.985    30 H    0.985
                            31 H    0.983
     2   6 C    3.981 --     1 C    1.008     3 N    0.994    33 H    0.973
                            34 H    0.970
     3   7 N    3.139 --     4 C    1.018    28 C    0.995     2 C    0.994
     4   6 C    3.983 --     3 N    1.018    35 H    0.970     5 C    0.966
                            36 H    0.962
     5   6 C    3.945 --     6 N    0.978     4 C    0.966    38 H    0.965
                            37 H    0.964
     6   7 N    3.667 --     7 C    1.336    11 C    1.119     5 C    0.978
     7   6 C    3.951 --     6 N    1.336     9 N    1.307     8 C    1.052
     8   6 C    3.969 --     7 C    1.052    41 H    0.962    40 H    0.942
                            39 H    0.940
     9   7 N    3.644 --     7 C    1.307    10 C    1.110    16 C    0.981
    10   6 C    3.952 --    15 C    1.345    11 C    1.278     9 N    1.110
    11   6 C    3.956 --    12 C    1.345    10 C    1.278     6 N    1.119
    12   6 C    3.985 --    13 C    1.487    11 C    1.345    42 H    0.963
                            15 C    0.117
    13   6 C    3.983 --    12 C    1.487    14 C    1.386    43 H    0.966
    14   6 C    3.983 --    15 C    1.484    13 C    1.386    44 H    0.966
    15   6 C    3.984 --    14 C    1.484    10 C    1.345    45 H    0.960
                            12 C    0.117
    16   6 C    3.949 --     9 N    0.981    47 H    0.960    46 H    0.954
                            17 C    0.929
    17   6 C    3.926 --    18 O    1.859    19 C    1.044    16 C    0.929
    18   8 O    2.109 --    17 C    1.859
    19   6 C    3.988 --    20 C    1.370    24 C    1.366    17 C    1.044
    20   6 C    3.990 --    21 C    1.463    19 C    1.370    48 H    0.961
                            23 C    0.104
    21   6 C    3.983 --    20 C    1.463    22 C    1.387    49 H    0.957
                            24 C    0.104
    22   6 C    3.971 --    23 C    1.393    21 C    1.387    25 N    0.938
    23   6 C    3.980 --    24 C    1.455    22 C    1.393    50 H    0.955
                            20 C    0.104
    24   6 C    3.981 --    23 C    1.455    19 C    1.366    51 H    0.961
                            21 C    0.104
    25   7 N    3.916 --    27 O    1.475    26 O    1.465    22 C    0.938
    26   8 O    1.957 --    25 N    1.465    27 O    0.384
    27   8 O    1.967 --    25 N    1.475    26 O    0.384
    28   6 C    3.984 --    29 C    1.016     3 N    0.995    53 H    0.974
                            52 H    0.966
    29   6 C    3.994 --    28 C    1.016    56 H    0.986    55 H    0.984
                            54 H    0.984
    30   1 H    0.999 --     1 C    0.985
    31   1 H    0.997 --     1 C    0.983
    32   1 H    0.998 --     1 C    0.985
    33   1 H    0.999 --     2 C    0.973
    34   1 H    0.998 --     2 C    0.970
    35   1 H    0.998 --     4 C    0.970
    36   1 H    0.995 --     4 C    0.962
    37   1 H    0.993 --     5 C    0.964
    38   1 H    0.992 --     5 C    0.965
    39   1 H    0.986 --     8 C    0.940
    40   1 H    0.984 --     8 C    0.942
    41   1 H    0.987 --     8 C    0.962
    42   1 H    0.995 --    12 C    0.963
    43   1 H    0.993 --    13 C    0.966
    44   1 H    0.994 --    14 C    0.966
    45   1 H    0.996 --    15 C    0.960
    46   1 H    0.989 --    16 C    0.954
    47   1 H    0.991 --    16 C    0.960
    48   1 H    0.997 --    20 C    0.961
    49   1 H    0.990 --    21 C    0.957
    50   1 H    0.988 --    23 C    0.955
    51   1 H    0.991 --    24 C    0.961
    52   1 H    0.999 --    28 C    0.966
    53   1 H    1.000 --    28 C    0.974
    54   1 H    0.997 --    29 C    0.984
    55   1 H    0.997 --    29 C    0.984
    56   1 H    0.999 --    29 C    0.986
 ---------------------------------------------------------------------------

molecular dipole:
                 x           y           z       tot (Debye)
 q only:        5.828      -7.004      -2.641
   full:        5.746      -6.882      -2.298      23.524

           -------------------------------------------------
          | TOTAL ENERGY              -84.322751408106 Eh   |
          | GRADIENT NORM               0.000782946206 Eh/α |
          | HOMO-LUMO GAP               0.871289237291 eV   |
           -------------------------------------------------

 * finished run on 2024/12/20 at 02:10:30.629
