   * xtb version 6.7.1 (edcfbbe) compiled by 'conda@3ef47c1a292c' on 2024-11-25

   ID    Z sym.   atoms
    1    6 C      1, 3, 4, 6-8, 10-17
    2    7 N      2, 5
    3    8 O      9
    4    1 H      18-34

          program call               : xtb C0208.xyz --opt --namespace C0208 --charge +1
          :  Hamiltonian                  GFN2-xTB          :
 * total energy  :   -48.1758835 Eh     change       -0.7587531E-09 Eh
 * total energy  :   -48.1822295 Eh     change       -0.6346019E-02 Eh
 * total energy  :   -48.1839872 Eh     change       -0.1757719E-02 Eh
 * total energy  :   -48.1842767 Eh     change       -0.2894704E-03 Eh
 * total energy  :   -48.1844474 Eh     change       -0.1706934E-03 Eh
 * total energy  :   -48.1845514 Eh     change       -0.1040010E-03 Eh
 * total energy  :   -48.1847269 Eh     change       -0.1755391E-03 Eh
 * total energy  :   -48.1849686 Eh     change       -0.2416215E-03 Eh
 * total energy  :   -48.1852574 Eh     change       -0.2888622E-03 Eh
 * total energy  :   -48.1855990 Eh     change       -0.3415655E-03 Eh
 * total energy  :   -48.1906360 Eh     change       -0.1247256E-03 Eh
 * total energy  :   -48.1907097 Eh     change       -0.7371276E-04 Eh
 * total energy  :   -48.1907466 Eh     change       -0.3688652E-04 Eh
 * total energy  :   -48.1907804 Eh     change       -0.3382634E-04 Eh
 * total energy  :   -48.1908076 Eh     change       -0.2721385E-04 Eh
 * total energy  :   -48.1908269 Eh     change       -0.1931243E-04 Eh
 * total energy  :   -48.1908487 Eh     change       -0.2177235E-04 Eh
 * total energy  :   -48.1908569 Eh     change       -0.8226919E-05 Eh
 * total energy  :   -48.1908609 Eh     change       -0.3949026E-05 Eh
   *** GEOMETRY OPTIMIZATION CONVERGED AFTER 45 ITERATIONS ***

 final structure:
================
34
 xtb: 6.7.1 (edcfbbe)
C            1.17250484143701       -0.03631371960528        3.29114771710117
N            1.02206306565332        0.76140547199402        2.10481766980179
C            1.66533204630152        0.54831618120590        0.92155865587892
C            1.24295463719494        1.50415996319880        0.05146280717159
N            0.35990296934553        2.29990397699900        0.72075629843671
C            0.22904906755495        1.81833575976403        1.95773029972238
C           -0.52178087065267        3.27481166511624        0.15520114558820
C           -1.97887239313768        2.72808346432730        0.30144733667224
O           -2.14602027461088        1.76466621474899        1.01819318763435
C           -3.02756972959878        3.42555090785624       -0.41559725278383
C           -4.31761195307931        2.87987934775284       -0.36287051301484
C           -5.35896457062795        3.50323411466353       -1.01119061340216
C           -5.16212576605708        4.68321464652960       -1.72340245842626
C           -3.87343442123295        5.24316407115895       -1.78035804254911
C           -2.82767771710273        4.61166917798404       -1.13346008935272
C           -3.63746115442568        6.51276866959653       -2.53371710405981
C           -6.30548780553593        5.34477841479107       -2.41125898357333
H            0.96469305780799       -1.08229757583744        3.06459109372411
H            0.47701615936931        0.30497621366930        4.05424625400413
H            2.19144999245685        0.04139893493575        3.67269632850715
H            2.36107371356046       -0.25346189255301        0.78097533499162
H            1.50860427700926        1.67064437496969       -0.97242142025888
H           -0.39438858407879        2.23491685609193        2.72389767780571
H           -0.45900015824304        4.21969942572984        0.70134414580859
H           -0.26611299123691        3.43521793326224       -0.89126198520292
H           -4.47238960914385        1.96682814871910        0.19058053769531
H           -6.34774893088838        3.07267944885752       -0.96571562241604
H           -1.84920772018680        5.06521301508644       -1.18098797799502
H           -3.90248782993245        6.38857224549297       -3.58274694643983
H           -4.25523418168318        7.31450466117593       -2.13303954655784
H           -2.59605932866800        6.81624600383253       -2.47401255994022
H           -6.11152503660356        5.42938074446616       -3.47991511606786
H           -7.22488545074807        4.78509815556063       -2.26649073861327
H           -6.44763735021454        6.35472497845291       -2.02800951987690

          :  Hamiltonian                  GFN2-xTB          :
         :: total energy             -48.190860855293 Eh    ::
         :: gradient norm              0.000545113390 Eh/a0 ::
         :: HOMO-LUMO gap              2.725830683324 eV    ::
         :: SCC energy               -48.956362980197 Eh    ::
         :: -> dispersion             -0.030292606663 Eh    ::
         :: repulsion energy           0.765502124904 Eh    ::

    * Orbital Energies and Occupations

         #    Occupation            Energy/Eh            Energy/eV
      -------------------------------------------------------------
         1        2.0000           -0.8791424             -23.9227
       ...           ...                  ...                  ...
        32        2.0000           -0.5943384             -16.1728
        33        2.0000           -0.5875841             -15.9890
        34        2.0000           -0.5785725             -15.7438
        35        2.0000           -0.5715103             -15.5516
        36        2.0000           -0.5675014             -15.4425
        37        2.0000           -0.5653104             -15.3829
        38        2.0000           -0.5588443             -15.2069
        39        2.0000           -0.5533439             -15.0573
        40        2.0000           -0.5430272             -14.7765
        41        2.0000           -0.5260424             -14.3143
        42        2.0000           -0.5209947             -14.1770
        43        2.0000           -0.5103428             -13.8871
        44        2.0000           -0.5002487             -13.6125 (HOMO)
        45                         -0.4000763             -10.8866 (LUMO)
        46                         -0.3883703             -10.5681
        47                         -0.3566758              -9.7056
        48                         -0.3274728              -8.9110
        49                         -0.3017160              -8.2101
        50                         -0.1947911              -5.3005
        51                         -0.1648037              -4.4845
        52                         -0.1150637              -3.1310
        53                         -0.0797326              -2.1696
        54                         -0.0383037              -1.0423
        55                         -0.0346774              -0.9436
       ...                                ...                  ...
        85                          0.5565066              15.1433
      -------------------------------------------------------------
                  HL-Gap            0.1001724 Eh            2.7258 eV

     #   Z          covCN         q      C6AA      α(0)
     1   6 C        3.692    -0.085    22.309     6.758
     2   7 N        2.866     0.076    19.916     6.628
     3   6 C        3.070    -0.009    28.168     8.702
     4   6 C        3.065    -0.008    28.147     8.700
     5   7 N        2.872     0.071    20.011     6.644
     6   6 C        3.095     0.060    26.553     8.445
     7   6 C        3.744    -0.050    21.540     6.621
     8   6 C        2.824     0.224    23.283     7.907
     9   8 O        0.857    -0.368    21.061     6.153
    10   6 C        2.968    -0.025    28.633     8.777
    11   6 C        2.925    -0.016    28.409     8.741
    12   6 C        2.919    -0.033    28.818     8.803
    13   6 C        2.970     0.036    27.194     8.554
    14   6 C        2.966     0.021    27.529     8.606
    15   6 C        2.923    -0.041    29.027     8.835
    16   6 C        3.759    -0.119    22.824     6.811
    17   6 C        3.759    -0.120    22.848     6.815
    18   1 H        0.924     0.106     1.728     2.055
    19   1 H        0.925     0.100     1.788     2.091
    20   1 H        0.924     0.102     1.765     2.078
    21   1 H        0.926     0.106     1.728     2.056
    22   1 H        0.926     0.102     1.769     2.080
    23   1 H        0.926     0.121     1.607     1.982
    24   1 H        0.924     0.098     1.804     2.100
    25   1 H        0.925     0.098     1.800     2.098
    26   1 H        0.926     0.070     2.089     2.260
    27   1 H        0.926     0.061     2.187     2.313
    28   1 H        0.926     0.038     2.479     2.462
    29   1 H        0.925     0.065     2.140     2.288
    30   1 H        0.925     0.065     2.136     2.286
    31   1 H        0.925     0.051     2.312     2.378
    32   1 H        0.925     0.071     2.076     2.253
    33   1 H        0.925     0.061     2.185     2.312
    34   1 H        0.925     0.071     2.074     2.252

Wiberg/Mayer (AO) data.
largest (>0.10) Wiberg bond orders for each atom

     #   Z sym  total        # sym  WBO       # sym  WBO       # sym  WBO
 ---------------------------------------------------------------------------
     1   6 C    3.935 --     2 N    0.991    19 H    0.976    18 H    0.964
                            20 H    0.963
     2   7 N    3.715 --     6 C    1.359     3 C    1.218     1 C    0.991
     3   6 C    3.948 --     4 C    1.603     2 N    1.218    21 H    0.962
     4   6 C    3.948 --     3 C    1.603     5 N    1.211    22 H    0.962
     5   7 N    3.706 --     6 C    1.340     4 C    1.211     7 C    0.997
     6   6 C    3.945 --     2 N    1.359     5 N    1.340    23 H    0.952
     7   6 C    3.945 --     5 N    0.997    25 H    0.958    24 H    0.944
                             8 C    0.912
     8   6 C    3.927 --     9 O    1.780    10 C    1.105     7 C    0.912
     9   8 O    2.098 --     8 C    1.780
    10   6 C    3.980 --    15 C    1.334    11 C    1.332     8 C    1.105
    11   6 C    3.985 --    12 C    1.476    10 C    1.332    26 H    0.965
    12   6 C    3.989 --    11 C    1.476    13 C    1.394    27 H    0.965
    13   6 C    3.983 --    12 C    1.394    14 C    1.331    17 C    1.047
    14   6 C    3.988 --    15 C    1.463    13 C    1.331    16 C    1.035
    15   6 C    3.991 --    14 C    1.463    10 C    1.334    28 H    0.964
    16   6 C    3.993 --    14 C    1.035    31 H    0.984    30 H    0.964
                            29 H    0.964
    17   6 C    3.989 --    13 C    1.047    33 H    0.983    32 H    0.957
                            34 H    0.956
    18   1 H    0.988 --     1 C    0.964
    19   1 H    0.990 --     1 C    0.976
    20   1 H    0.989 --     1 C    0.963
    21   1 H    0.989 --     3 C    0.962
    22   1 H    0.989 --     4 C    0.962
    23   1 H    0.985 --     6 C    0.952
    24   1 H    0.989 --     7 C    0.944
    25   1 H    0.990 --     7 C    0.958
    26   1 H    0.994 --    11 C    0.965
    27   1 H    0.995 --    12 C    0.965
    28   1 H    0.998 --    15 C    0.964
    29   1 H    0.995 --    16 C    0.964
    30   1 H    0.995 --    16 C    0.964
    31   1 H    0.997 --    16 C    0.984
    32   1 H    0.991 --    17 C    0.957
    33   1 H    0.996 --    17 C    0.983
    34   1 H    0.991 --    17 C    0.956
 ---------------------------------------------------------------------------

molecular dipole:
                 x           y           z       tot (Debye)
 q only:       -0.720       4.740       1.122
   full:       -0.616       4.891       1.085      12.829

           -------------------------------------------------
          | TOTAL ENERGY              -48.190860855293 Eh   |
          | GRADIENT NORM               0.000545113390 Eh/α |
          | HOMO-LUMO GAP               2.725830683324 eV   |
           -------------------------------------------------

 * finished run on 2024/12/20 at 02:10:27.061
