   * xtb version 6.7.1 (edcfbbe) compiled by 'conda@3ef47c1a292c' on 2024-11-25

   ID    Z sym.   atoms
    1    6 C      1, 3-9, 11-13, 15, 17-24
    2    8 O      2, 10, 25
    3    7 N      14, 16
    4    1 H      26-52

          program call               : xtb C0205.xyz --opt --namespace C0205 --charge +1
          :  Hamiltonian                  GFN2-xTB          :
 * total energy  :   -74.2252187 Eh     change       -0.1231953E-08 Eh
 * total energy  :   -74.2332405 Eh     change       -0.8021811E-02 Eh
 * total energy  :   -74.2350389 Eh     change       -0.1798368E-02 Eh
 * total energy  :   -74.2357338 Eh     change       -0.6949289E-03 Eh
 * total energy  :   -74.2364639 Eh     change       -0.7301201E-03 Eh
 * total energy  :   -74.2369760 Eh     change       -0.5120741E-03 Eh
 * total energy  :   -74.2375799 Eh     change       -0.6038927E-03 Eh
 * total energy  :   -74.2382474 Eh     change       -0.6675448E-03 Eh
 * total energy  :   -74.2388361 Eh     change       -0.5886192E-03 Eh
 * total energy  :   -74.2392672 Eh     change       -0.4311574E-03 Eh
 * total energy  :   -74.2475331 Eh     change       -0.9267802E-05 Eh
 * total energy  :   -74.2475450 Eh     change       -0.1194132E-04 Eh
 * total energy  :   -74.2475618 Eh     change       -0.1675330E-04 Eh
 * total energy  :   -74.2475719 Eh     change       -0.1016326E-04 Eh
 * total energy  :   -74.2475791 Eh     change       -0.7124854E-05 Eh
 * total energy  :   -74.2475839 Eh     change       -0.4788190E-05 Eh
 * total energy  :   -74.2475810 Eh     change        0.2891627E-05 Eh
 * total energy  :   -74.2475886 Eh     change       -0.7679831E-05 Eh
 * total energy  :   -74.2475916 Eh     change       -0.2963643E-05 Eh
   *** GEOMETRY OPTIMIZATION CONVERGED AFTER 172 ITERATIONS ***

 final structure:
================
52
 xtb: 6.7.1 (edcfbbe)
C           -0.32376370822924        3.44529456234893        1.07766692031887
O           -0.32299881309335        2.11679668264982        0.59325325744812
C            0.40103113059152        1.15079090243928        1.17092724700253
C            1.33625206230027        1.50547568145922        2.26911091946642
C            1.69080535001336        0.55545661931150        3.13982945889899
C            2.64456024771507        0.67222330437504        4.22756872238554
C            2.64067674386284       -0.29003189808392        5.24223326074239
C            3.56697861247608       -0.24905920104809        6.26314795621265
C            4.54553831429047        0.74711669593010        6.29364452839919
O            5.43441470310844        0.74882189695304        7.34554509252887
C            6.79953772012971        0.41583156426626        7.16183555689948
C            7.01643248772102       -1.09614522715492        6.91334493071334
C            6.45473560452485       -1.70890919826563        5.62423216693220
N            7.05981136807609       -1.20762438871466        4.40942760726597
C            8.33199925840001       -1.34932161787590        4.04548466722039
N            8.52198689238869       -0.77257059152197        2.86261755806616
C            7.33313070180974       -0.24681580185154        2.45639224945631
C            6.41624148371052       -0.52112232043963        3.42593585419539
C            9.75375820396879       -0.71330647737877        2.12302607133680
C            7.55486022735132        1.30981502483460        6.16948380286774
C            7.68308887014253        2.74752345145155        6.68863338716025
C            8.78710483600839        2.90317714280972        7.72686882487659
C            4.52185242509404        1.74319777694119        5.31991746187523
C            3.58693149795622        1.69976939700244        4.30275590200096
O            0.29419143917750        0.01682798080593        0.77671809453049
H           -1.14231253400083        3.94274423843359        0.56041943049429
H            0.61219988290537        3.95666415941839        0.83525973880342
H           -0.50146562430227        3.48216499126005        2.15519532790136
H            1.72748092663039        2.51000126610374        2.31368000064685
H            1.21185664756596       -0.41060655614736        3.03529362521423
H            1.89475259004268       -1.07035570787703        5.22714877626944
H            3.54136014298093       -0.97803951928040        7.05962807023430
H            7.21413037986047        0.60498922930684        8.15950289809941
H            8.08781498126990       -1.29233006861636        6.98168907538830
H            6.53268423003618       -1.62790807670340        7.73446319961946
H            6.61910778854922       -2.79016948646122        5.66436891613962
H            5.38175375933116       -1.52272754581314        5.55632172431715
H            9.08560792064094       -1.85975322866102        4.61318750844986
H            7.21966861648337        0.27025107846210        1.52552672331550
H            5.37440931465758       -0.27331928850841        3.47940454644236
H           10.54552446755992       -1.21004244020999        2.67880896844338
H            9.63407231233223       -1.20499534807776        1.15697606942006
H           10.03667204541780        0.32525353245419        1.94857095218417
H            8.55543334245457        0.89528199151783        6.02314020940220
H            7.04261679565205        1.31248755700951        5.20567186309537
H            7.89539874878754        3.41059005840345        5.84709703111978
H            6.73217556679209        3.05333783947569        7.12793512085597
H            9.75294076875783        2.62939873414915        7.30707911059196
H            8.84138697758735        3.93619903535581        8.05818392604051
H            8.60087405330177        2.28178077073810        8.59882663663054
H            5.21251540587809        2.56921476711843        5.37120800262768
H            3.59575283324032        2.47527605601976        3.55266104941140

          :  Hamiltonian                  GFN2-xTB          :
         :: total energy             -74.247591612127 Eh    ::
         :: gradient norm              0.000687221799 Eh/a0 ::
         :: HOMO-LUMO gap              1.793372928319 eV    ::
         :: SCC energy               -75.306033452189 Eh    ::
         :: -> dispersion             -0.052308857686 Eh    ::
         :: repulsion energy           1.058441840061 Eh    ::

    * Orbital Energies and Occupations

         #    Occupation            Energy/Eh            Energy/eV
      -------------------------------------------------------------
         1        2.0000           -0.9001795             -24.4951
       ...           ...                  ...                  ...
        55        2.0000           -0.5547502             -15.0955
        56        2.0000           -0.5502580             -14.9733
        57        2.0000           -0.5447676             -14.8239
        58        2.0000           -0.5393708             -14.6770
        59        2.0000           -0.5356690             -14.5763
        60        2.0000           -0.5333727             -14.5138
        61        2.0000           -0.5313020             -14.4575
        62        2.0000           -0.5225987             -14.2206
        63        2.0000           -0.5159000             -14.0384
        64        2.0000           -0.5104511             -13.8901
        65        2.0000           -0.5073633             -13.8061
        66        2.0000           -0.4865922             -13.2408
        67        2.0000           -0.4766788             -12.9711 (HOMO)
        68                         -0.4107735             -11.1777 (LUMO)
        69                         -0.3739502             -10.1757
        70                         -0.3709763             -10.0948
        71                         -0.3340667              -9.0904
        72                         -0.3056023              -8.3159
        73                         -0.2463677              -6.7040
        74                         -0.1904799              -5.1832
        75                         -0.1881737              -5.1205
        76                         -0.1338844              -3.6432
        77                         -0.0995948              -2.7101
        78                         -0.0831943              -2.2638
       ...                                ...                  ...
       127                          0.6133356              16.6897
      -------------------------------------------------------------
                  HL-Gap            0.0659052 Eh            1.7934 eV

     #   Z          covCN         q      C6AA      α(0)
     1   6 C        3.637     0.025    20.514     6.516
     2   8 O        1.704    -0.243    18.023     5.732
     3   6 C        2.714     0.352    21.018     7.505
     4   6 C        2.890    -0.076    29.897     8.964
     5   6 C        2.908    -0.020    28.505     8.755
     6   6 C        2.969     0.010    27.783     8.646
     7   6 C        2.926    -0.036    28.901     8.816
     8   6 C        2.916    -0.057    29.419     8.894
     9   6 C        2.852     0.138    24.990     8.193
    10   8 O        1.703    -0.301    19.012     5.887
    11   6 C        3.732     0.103    18.965     6.216
    12   6 C        3.798    -0.086    22.146     6.701
    13   6 C        3.740    -0.030    21.195     6.569
    14   7 N        2.868     0.069    20.035     6.648
    15   6 C        3.099     0.046    26.853     8.492
    16   7 N        2.866     0.080    19.857     6.618
    17   6 C        3.074    -0.010    28.177     8.703
    18   6 C        3.072    -0.005    28.066     8.686
    19   6 C        3.692    -0.087    22.360     6.766
    20   6 C        3.800    -0.071    21.865     6.658
    21   6 C        3.800    -0.056    21.577     6.614
    22   6 C        3.752    -0.111    22.676     6.791
    23   6 C        2.915    -0.061    29.507     8.908
    24   6 C        2.923    -0.039    28.976     8.828
    25   8 O        0.857    -0.384    21.365     6.197
    26   1 H        0.925     0.087     1.910     2.161
    27   1 H        0.924     0.054     2.268     2.355
    28   1 H        0.924     0.055     2.265     2.353
    29   1 H        0.926     0.054     2.265     2.354
    30   1 H        0.925     0.074     2.043     2.235
    31   1 H        0.926     0.056     2.244     2.343
    32   1 H        0.926     0.056     2.249     2.345
    33   1 H        0.924     0.075     2.033     2.230
    34   1 H        0.924     0.054     2.276     2.359
    35   1 H        0.924     0.085     1.932     2.174
    36   1 H        0.924     0.086     1.914     2.163
    37   1 H        0.924     0.098     1.806     2.102
    38   1 H        0.926     0.113     1.669     2.021
    39   1 H        0.926     0.111     1.689     2.032
    40   1 H        0.926     0.108     1.713     2.047
    41   1 H        0.925     0.100     1.784     2.089
    42   1 H        0.924     0.109     1.704     2.041
    43   1 H        0.924     0.108     1.712     2.046
    44   1 H        0.924     0.027     2.632     2.537
    45   1 H        0.924     0.022     2.703     2.571
    46   1 H        0.924     0.036     2.504     2.474
    47   1 H        0.924     0.053     2.285     2.364
    48   1 H        0.925     0.036     2.501     2.473
    49   1 H        0.925     0.052     2.290     2.366
    50   1 H        0.925     0.041     2.438     2.442
    51   1 H        0.926     0.054     2.271     2.357
    52   1 H        0.926     0.046     2.368     2.406

Wiberg/Mayer (AO) data.
largest (>0.10) Wiberg bond orders for each atom

     #   Z sym  total        # sym  WBO       # sym  WBO       # sym  WBO
 ---------------------------------------------------------------------------
     1   6 C    3.928 --    28 H    0.978    26 H    0.976    27 H    0.975
                             2 O    0.966
     2   8 O    2.320 --     3 C    1.123     1 C    0.966    25 O    0.163
     3   6 C    3.922 --    25 O    1.730     2 O    1.123     4 C    1.009
     4   6 C    3.983 --     5 C    1.807     3 C    1.009    29 H    0.958
     5   6 C    3.984 --     4 C    1.807     6 C    1.105    30 H    0.955
     6   6 C    3.989 --    24 C    1.368     7 C    1.359     5 C    1.105
     7   6 C    3.987 --     8 C    1.470     6 C    1.359    31 H    0.966
     8   6 C    3.989 --     7 C    1.470     9 C    1.362    32 H    0.965
                            24 C    0.100
     9   6 C    3.935 --    23 C    1.378     8 C    1.362    10 O    1.014
    10   8 O    2.146 --     9 C    1.014    11 C    0.958
    11   6 C    3.943 --    20 C    0.987    12 C    0.978    10 O    0.958
                            33 H    0.950
    12   6 C    3.982 --    13 C    0.990    11 C    0.978    34 H    0.973
                            35 H    0.966
    13   6 C    3.933 --    12 C    0.990    14 N    0.965    36 H    0.957
                            37 H    0.952
    14   7 N    3.719 --    15 C    1.361    18 C    1.233    13 C    0.965
    15   6 C    3.947 --    16 N    1.363    14 N    1.361    38 H    0.954
    16   7 N    3.723 --    15 C    1.363    17 C    1.227    19 C    0.991
    17   6 C    3.948 --    18 C    1.588    16 N    1.227    39 H    0.961
    18   6 C    3.951 --    17 C    1.588    14 N    1.233    40 H    0.957
    19   6 C    3.933 --    16 N    0.991    41 H    0.976    43 H    0.962
                            42 H    0.961
    20   6 C    3.997 --    21 C    1.003    11 C    0.987    44 H    0.974
                            45 H    0.970
    21   6 C    3.994 --    22 C    1.021    20 C    1.003    46 H    0.978
                            47 H    0.974
    22   6 C    3.994 --    21 C    1.021    48 H    0.987    49 H    0.985
                            50 H    0.984
    23   6 C    3.989 --    24 C    1.459     9 C    1.378    51 H    0.963
    24   6 C    3.989 --    23 C    1.459     6 C    1.368    52 H    0.966
                             8 C    0.100
    25   8 O    2.048 --     3 C    1.730     2 O    0.163
    26   1 H    0.992 --     1 C    0.976
    27   1 H    0.997 --     1 C    0.975
    28   1 H    0.997 --     1 C    0.978
    29   1 H    0.997 --     4 C    0.958
    30   1 H    0.994 --     5 C    0.955
    31   1 H    0.997 --     7 C    0.966
    32   1 H    0.996 --     8 C    0.965
    33   1 H    0.993 --    11 C    0.950
    34   1 H    0.997 --    12 C    0.973
    35   1 H    0.992 --    12 C    0.966
    36   1 H    0.992 --    13 C    0.957
    37   1 H    0.990 --    13 C    0.952
    38   1 H    0.987 --    15 C    0.954
    39   1 H    0.987 --    17 C    0.961
    40   1 H    0.988 --    18 C    0.957
    41   1 H    0.990 --    19 C    0.976
    42   1 H    0.988 --    19 C    0.961
    43   1 H    0.988 --    19 C    0.962
    44   1 H    0.999 --    20 C    0.974
    45   1 H    1.000 --    20 C    0.970
    46   1 H    0.998 --    21 C    0.978
    47   1 H    0.997 --    21 C    0.974
    48   1 H    0.999 --    22 C    0.987
    49   1 H    0.997 --    22 C    0.985
    50   1 H    0.998 --    22 C    0.984
    51   1 H    0.997 --    23 C    0.963
    52   1 H    0.998 --    24 C    0.966
 ---------------------------------------------------------------------------

molecular dipole:
                 x           y           z       tot (Debye)
 q only:       15.273      -0.361       7.876
   full:       15.387      -0.194       7.946      44.019

           -------------------------------------------------
          | TOTAL ENERGY              -74.247591612127 Eh   |
          | GRADIENT NORM               0.000687221799 Eh/α |
          | HOMO-LUMO GAP               1.793372928319 eV   |
           -------------------------------------------------

 * finished run on 2024/12/20 at 02:10:23.920
