   * xtb version 6.7.1 (edcfbbe) compiled by 'conda@3ef47c1a292c' on 2024-11-25

   ID    Z sym.   atoms
    1    6 C      1-3, 5-15
    2    7 N      4
    3    1 H      16-31

          program call               : xtb C0206.xyz --opt --namespace C0206 --charge +1
          :  Hamiltonian                  GFN2-xTB          :
 * total energy  :   -40.4827919 Eh     change       -0.5959961E-09 Eh
 * total energy  :   -40.5096048 Eh     change       -0.2681298E-01 Eh
 * total energy  :   -40.5131422 Eh     change       -0.3537327E-02 Eh
 * total energy  :   -40.5134143 Eh     change       -0.2720947E-03 Eh
 * total energy  :   -40.5137244 Eh     change       -0.3100878E-03 Eh
 * total energy  :   -40.5139003 Eh     change       -0.1759703E-03 Eh
 * total energy  :   -40.5139999 Eh     change       -0.9962243E-04 Eh
 * total energy  :   -40.5141463 Eh     change       -0.1463211E-03 Eh
 * total energy  :   -40.5142288 Eh     change       -0.8253546E-04 Eh
 * total energy  :   -40.5143053 Eh     change       -0.7645719E-04 Eh
 * total energy  :   -40.5148410 Eh     change       -0.7278208E-04 Eh
 * total energy  :   -40.5148953 Eh     change       -0.5431798E-04 Eh
 * total energy  :   -40.5149212 Eh     change       -0.2586402E-04 Eh
 * total energy  :   -40.5149303 Eh     change       -0.9080459E-05 Eh
 * total energy  :   -40.5149446 Eh     change       -0.1435457E-04 Eh
 * total energy  :   -40.5149450 Eh     change       -0.3884568E-06 Eh
 * total energy  :   -40.5149556 Eh     change       -0.1061168E-04 Eh
 * total energy  :   -40.5149622 Eh     change       -0.6604741E-05 Eh
 * total energy  :   -40.5149669 Eh     change       -0.4653579E-05 Eh
   *** GEOMETRY OPTIMIZATION CONVERGED AFTER 26 ITERATIONS ***

 final structure:
================
31
 xtb: 6.7.1 (edcfbbe)
C            0.95596946326891       -0.51228205759662       -0.36238943208517
C           -0.20514897253003       -0.27977412467290       -0.18855453301442
C           -1.60931049811377        0.01128570186064        0.02236486531144
N           -2.23822327445599       -0.91131800616106        1.01383476577916
C           -1.54190093053625       -0.76446407977184        2.33615825486140
C           -1.62001438286265        0.58958648489432        2.84054272014154
C           -1.68346736142875        1.72221245949924        3.24632303641428
C           -1.75109006599799        3.04935153445383        3.72404594467856
C           -2.98002964829708        3.59958060521449        4.09216510593199
C           -3.03582278931911        4.89974599252263        4.55518679755844
C           -1.87676172847754        5.65369792986962        4.65727767956771
C           -0.65493467749376        5.10737418449357        4.29537142106019
C           -0.58508436941868        3.80997172659841        3.82679059870219
C           -3.65888283471251       -0.55926670487644        1.16794365992172
C           -2.11649942341239       -2.30167408699327        0.54786231873997
H            1.97506419219634       -0.70107768262202       -0.53055316355736
H           -1.70866906950820        1.03468174037665        0.39829768843899
H           -2.14366949919457       -0.07507611833520       -0.92802087907604
H           -0.49323630165699       -1.04531352981392        2.19890764710428
H           -2.00642556530749       -1.45577207745397        3.04549648643431
H           -3.87869237544620        3.00461834027156        4.01608947582844
H           -3.98535255816517        5.32622096531167        4.83957364702930
H           -1.92572920995154        6.66815110189663        5.02116740006676
H            0.24600475366547        5.69525555948721        4.37916563397210
H            0.36189462618104        3.37467821653803        3.54454665043769
H           -4.17116157548181       -0.61895262918891        0.20944242402809
H           -4.13836677903234       -1.24482141052427        1.86488426086218
H           -3.74650642177461        0.45339676019639        1.56000621869075
H           -2.64710791170093       -2.42761396951395       -0.39477400510444
H           -1.06766388022955       -2.55140452659334        0.39275626686571
H           -2.54134093080621       -2.98403829936436        1.28223104441060

          :  Hamiltonian                  GFN2-xTB          :
         :: total energy             -40.514966869889 Eh    ::
         :: gradient norm              0.000930118025 Eh/a0 ::
         :: HOMO-LUMO gap              3.809088698050 eV    ::
         :: SCC energy               -41.332741583108 Eh    ::
         :: -> dispersion             -0.026456393523 Eh    ::
         :: repulsion energy           0.817774713219 Eh    ::

    * Orbital Energies and Occupations

         #    Occupation            Energy/Eh            Energy/eV
      -------------------------------------------------------------
         1        2.0000           -0.8647156             -23.5301
       ...           ...                  ...                  ...
        26        2.0000           -0.5998592             -16.3230
        27        2.0000           -0.5985677             -16.2879
        28        2.0000           -0.5912902             -16.0898
        29        2.0000           -0.5776376             -15.7183
        30        2.0000           -0.5749030             -15.6439
        31        2.0000           -0.5717509             -15.5581
        32        2.0000           -0.5633389             -15.3292
        33        2.0000           -0.5550906             -15.1048
        34        2.0000           -0.5441337             -14.8066
        35        2.0000           -0.5242546             -14.2657
        36        2.0000           -0.5159185             -14.0389
        37        2.0000           -0.5034588             -13.6998
        38        2.0000           -0.4969696             -13.5232 (HOMO)
        39                         -0.3569881              -9.7141 (LUMO)
        40                         -0.3228596              -8.7855
        41                         -0.3205880              -8.7236
        42                         -0.3011942              -8.1959
        43                         -0.2923558              -7.9554
        44                         -0.2643974              -7.1946
        45                         -0.1997999              -5.4368
        46                         -0.1720491              -4.6817
        47                         -0.1431678              -3.8958
        48                         -0.1354213              -3.6850
        49                         -0.1316903              -3.5835
       ...                                ...                  ...
        76                          1.2815576              34.8730
      -------------------------------------------------------------
                  HL-Gap            0.1399814 Eh            3.8091 eV

     #   Z          covCN         q      C6AA      α(0)
     1   6 C        1.909    -0.072    33.057     9.285
     2   6 C        1.963    -0.027    31.795     9.106
     3   6 C        3.766    -0.018    20.926     6.520
     4   7 N        3.626     0.136    18.933     6.463
     5   6 C        3.764    -0.014    20.867     6.511
     6   6 C        1.964    -0.075    33.104     9.292
     7   6 C        1.983    -0.016    31.468     9.059
     8   6 C        2.974     0.031    27.310     8.572
     9   6 C        2.926    -0.025    28.622     8.774
    10   6 C        2.919    -0.022    28.554     8.763
    11   6 C        2.920    -0.017    28.430     8.744
    12   6 C        2.919    -0.021    28.534     8.760
    13   6 C        2.927    -0.023    28.580     8.767
    14   6 C        3.720    -0.090    22.343     6.751
    15   6 C        3.718    -0.091    22.359     6.754
    16   1 H        0.928     0.125     1.571     1.960
    17   1 H        0.924     0.109     1.701     2.040
    18   1 H        0.924     0.100     1.785     2.089
    19   1 H        0.924     0.099     1.793     2.094
    20   1 H        0.924     0.093     1.850     2.127
    21   1 H        0.926     0.036     2.509     2.477
    22   1 H        0.926     0.050     2.318     2.381
    23   1 H        0.926     0.054     2.273     2.358
    24   1 H        0.926     0.051     2.303     2.373
    25   1 H        0.926     0.042     2.426     2.436
    26   1 H        0.925     0.093     1.849     2.126
    27   1 H        0.925     0.097     1.815     2.107
    28   1 H        0.925     0.102     1.767     2.079
    29   1 H        0.925     0.096     1.822     2.111
    30   1 H        0.925     0.101     1.776     2.084
    31   1 H        0.925     0.095     1.833     2.117

Wiberg/Mayer (AO) data.
largest (>0.10) Wiberg bond orders for each atom

     #   Z sym  total        # sym  WBO       # sym  WBO       # sym  WBO
 ---------------------------------------------------------------------------
     1   6 C    3.964 --     2 C    2.897    16 H    0.961
     2   6 C    3.978 --     1 C    2.897     3 C    1.049
     3   6 C    3.938 --     2 C    1.049    18 H    0.948    17 H    0.943
                             4 N    0.920
     4   7 N    3.807 --    15 C    0.962    14 C    0.961     3 C    0.920
                             5 C    0.904
     5   6 C    3.932 --     6 C    1.053    20 H    0.950    19 H    0.947
                             4 N    0.904
     6   6 C    3.940 --     7 C    2.716     5 C    1.053
     7   6 C    3.974 --     6 C    2.716     8 C    1.119
     8   6 C    3.986 --     9 C    1.357    13 C    1.355     7 C    1.119
     9   6 C    3.989 --    10 C    1.458     8 C    1.357    21 H    0.971
                            12 C    0.105
    10   6 C    3.991 --     9 C    1.458    11 C    1.430    22 H    0.969
                            13 C    0.105
    11   6 C    3.960 --    12 C    1.430    10 C    1.430    23 H    0.970
    12   6 C    3.991 --    13 C    1.458    11 C    1.430    24 H    0.969
                             9 C    0.105
    13   6 C    3.988 --    12 C    1.458     8 C    1.355    25 H    0.970
                            10 C    0.105
    14   6 C    3.929 --    26 H    0.976    27 H    0.975    28 H    0.971
                             4 N    0.961
    15   6 C    3.929 --    31 H    0.975    29 H    0.975    30 H    0.972
                             4 N    0.962
    16   1 H    0.984 --     1 C    0.961
    17   1 H    0.988 --     3 C    0.943
    18   1 H    0.990 --     3 C    0.948
    19   1 H    0.989 --     5 C    0.947
    20   1 H    0.989 --     5 C    0.950
    21   1 H    0.999 --     9 C    0.971
    22   1 H    0.996 --    10 C    0.969
    23   1 H    0.997 --    11 C    0.970
    24   1 H    0.996 --    12 C    0.969
    25   1 H    0.998 --    13 C    0.970
    26   1 H    0.991 --    14 C    0.976
    27   1 H    0.990 --    14 C    0.975
    28   1 H    0.990 --    14 C    0.971
    29   1 H    0.990 --    15 C    0.975
    30   1 H    0.990 --    15 C    0.972
    31   1 H    0.991 --    15 C    0.975
 ---------------------------------------------------------------------------

molecular dipole:
                 x           y           z       tot (Debye)
 q only:       -3.927      -0.445       2.398
   full:       -3.970      -0.558       2.367      11.833

           -------------------------------------------------
          | TOTAL ENERGY              -40.514966869889 Eh   |
          | GRADIENT NORM               0.000930118025 Eh/α |
          | HOMO-LUMO GAP               3.809088698050 eV   |
           -------------------------------------------------

 * finished run on 2024/12/20 at 02:10:24.785
