   * xtb version 6.7.1 (edcfbbe) compiled by 'conda@3ef47c1a292c' on 2024-11-25

   ID    Z sym.   atoms
    1    6 C      1-15, 17, 18, 20, 21
    2    7 N      16
    3    8 O      19
    4    1 H      22-63

          program call               : xtb C0218.xyz --opt --namespace C0218 --charge +1
          :  Hamiltonian                  GFN2-xTB          :
 * total energy  :   -68.7019773 Eh     change       -0.9366374E-10 Eh
 * total energy  :   -68.7100685 Eh     change       -0.8091242E-02 Eh
 * total energy  :   -68.7120329 Eh     change       -0.1964353E-02 Eh
 * total energy  :   -68.7121895 Eh     change       -0.1565924E-03 Eh
 * total energy  :   -68.7124224 Eh     change       -0.2329399E-03 Eh
 * total energy  :   -68.7125473 Eh     change       -0.1249107E-03 Eh
 * total energy  :   -68.7127409 Eh     change       -0.1936175E-03 Eh
 * total energy  :   -68.7128419 Eh     change       -0.1009390E-03 Eh
 * total energy  :   -68.7128938 Eh     change       -0.5193044E-04 Eh
 * total energy  :   -68.7129211 Eh     change       -0.2726513E-04 Eh
 * total energy  :   -68.7146623 Eh     change       -0.3197046E-04 Eh
 * total energy  :   -68.7146783 Eh     change       -0.1598662E-04 Eh
 * total energy  :   -68.7146914 Eh     change       -0.1311589E-04 Eh
 * total energy  :   -68.7146976 Eh     change       -0.6221460E-05 Eh
 * total energy  :   -68.7147097 Eh     change       -0.1202916E-04 Eh
 * total energy  :   -68.7147177 Eh     change       -0.8086628E-05 Eh
 * total energy  :   -68.7147251 Eh     change       -0.7347559E-05 Eh
 * total energy  :   -68.7147375 Eh     change       -0.1243295E-04 Eh
 * total energy  :   -68.7147418 Eh     change       -0.4308385E-05 Eh
   *** GEOMETRY OPTIMIZATION CONVERGED AFTER 72 ITERATIONS ***

 final structure:
================
63
 xtb: 6.7.1 (edcfbbe)
C            1.34887727466053        0.78900222317683        0.66362588113512
C            1.09934424962754        1.79686281524030       -0.45193371209693
C            1.37768891292380        1.23411120243073       -1.84647097898905
C            0.48781020828759        0.05972677062754       -2.25894378834105
C           -1.01195780394334        0.36185576905580       -2.29247565861256
C           -1.42072601306175        1.51708610124637       -3.20910031309782
C           -0.98554768194488        1.36908999278155       -4.66808357001294
C           -1.53183364609573        0.13186363069084       -5.38251498568084
C           -3.05573921658491        0.07696540896582       -5.50845033996769
C           -3.68510571440827        1.25024974236634       -6.26348977836223
C           -3.13028006402368        1.48545985990762       -7.67030367216043
C           -3.22060617431647        0.28379600349363       -8.61327070300410
C           -4.64386467425307       -0.18621104717358       -8.92387123048170
C           -5.45307032687053        0.80501318067112       -9.76962221188766
C           -4.94863247649580        0.92907994046013      -11.21374950095952
N           -5.78896477077165        0.26870763593403      -12.25829542544237
C           -7.17523425869319        0.82184702781274      -12.32399009992887
C           -7.30329349844615        2.34028220594155      -12.15797660039912
O           -6.47126750708996        3.00490920692040      -13.08065398111977
C           -5.12522986507915        0.47243219117206      -13.56446147654977
C           -5.87476297011857       -1.18159911024266      -12.00761381683713
H            0.64833562178857       -0.04027481208738        0.60828092547551
H            1.23111515662560        1.26524687202359        1.63424731918049
H            2.35955105217044        0.39171458733737        0.59825555348633
H            0.07062192438548        2.15684389706582       -0.39433534600815
H            1.75354504819541        2.65894886371452       -0.29917141393004
H            1.27319918593980        2.04072155814447       -2.57525742828200
H            2.41739362977051        0.89835732253340       -1.88365584678685
H            0.80934750306677       -0.28140924069314       -3.24569727970866
H            0.65108261737205       -0.77044658223775       -1.56921513503153
H           -1.53593425758705       -0.54659771695593       -2.59931528131594
H           -1.35241942872727        0.59632883797838       -1.28213454310545
H           -2.50726286363024        1.62263577562435       -3.16284247829159
H           -0.99526989774848        2.44539128716601       -2.82318427882946
H           -1.29189150353222        2.26681969352216       -5.21004040369477
H            0.10426678983560        1.32961021072534       -4.71132332918496
H           -1.08331004780689        0.08553768038273       -6.37781825368651
H           -1.20559702837790       -0.76123265033007       -4.84720850635763
H           -3.32625761154230       -0.86044169698116       -6.00127617867132
H           -3.49514502712052        0.04607255231149       -4.51024456328443
H           -4.76479770293519        1.08732129056776       -6.31441240840168
H           -3.53294887363419        2.16508937534633       -5.68890921672562
H           -3.65036047394057        2.34129432638859       -8.10840437296724
H           -2.07940000999725        1.76532151495351       -7.59076408787675
H           -2.70111738253342        0.53948429838677       -9.54079961517841
H           -2.68051805179436       -0.55124640080687       -8.16778193771322
H           -4.58963878351801       -1.15336728494723       -9.42817195296826
H           -5.17165351776938       -0.34333789968605       -7.98372168576849
H           -6.50437801913593        0.51781667838957       -9.74660722720544
H           -5.38826673067505        1.78236918005526       -9.29154332675976
H           -4.85238167017949        1.97471396971573      -11.50625786622439
H           -3.95605285760535        0.47907277955949      -11.27710443692690
H           -7.58489329102810        0.54238294287095      -13.29640201713578
H           -7.78420717314279        0.35543925225006      -11.54859671742770
H           -8.35908413360111        2.58035790970372      -12.33373052557048
H           -7.05667370899131        2.64129523803760      -11.13125664309174
H           -6.73636274171866        3.92714430083865      -13.15976045823160
H           -4.09786885248793        0.11675518878419      -13.52214271864604
H           -5.65229040491313       -0.07843989102539      -14.34092298984707
H           -5.13251135507786        1.53059673761855      -13.81722553329488
H           -4.87847094741016       -1.61956570567469      -12.03686769573396
H           -6.31615130583869       -1.37928814356007      -11.03370370334616
H           -6.48696685857501       -1.65774684827055      -12.77194043207636

          :  Hamiltonian                  GFN2-xTB          :
         :: total energy             -68.714741827180 Eh    ::
         :: gradient norm              0.000403005768 Eh/a0 ::
         :: HOMO-LUMO gap              6.217465739593 eV    ::
         :: SCC energy               -69.659411776338 Eh    ::
         :: -> dispersion             -0.051730380153 Eh    ::
         :: repulsion energy           0.944669949158 Eh    ::

    * Orbital Energies and Occupations

         #    Occupation            Energy/Eh            Energy/eV
      -------------------------------------------------------------
         1        2.0000           -0.8581468             -23.3514
       ...           ...                  ...                  ...
        52        2.0000           -0.5186754             -14.1139
        53        2.0000           -0.5128742             -13.9560
        54        2.0000           -0.5081917             -13.8286
        55        2.0000           -0.5021143             -13.6632
        56        2.0000           -0.4958238             -13.4921
        57        2.0000           -0.4918031             -13.3826
        58        2.0000           -0.4869428             -13.2504
        59        2.0000           -0.4777559             -13.0004
        60        2.0000           -0.4757283             -12.9452
        61        2.0000           -0.4720935             -12.8463
        62        2.0000           -0.4617073             -12.5637
        63        2.0000           -0.4566323             -12.4256
        64        2.0000           -0.4550274             -12.3819 (HOMO)
        65                         -0.2265397              -6.1645 (LUMO)
        66                         -0.1686583              -4.5894
        67                         -0.1469020              -3.9974
        68                         -0.1404186              -3.8210
        69                         -0.1050858              -2.8595
        70                         -0.0638409              -1.7372
        71                         -0.0515757              -1.4034
        72                         -0.0455241              -1.2388
        73                         -0.0323290              -0.8797
        74                         -0.0249412              -0.6787
        75                         -0.0135538              -0.3688
       ...                                ...                  ...
       126                          0.2670609               7.2671
      -------------------------------------------------------------
                  HL-Gap            0.2284877 Eh            6.2175 eV

     #   Z          covCN         q      C6AA      α(0)
     1   6 C        3.751    -0.102    22.507     6.766
     2   6 C        3.799    -0.052    21.509     6.603
     3   6 C        3.800    -0.057    21.601     6.617
     4   6 C        3.800    -0.057    21.599     6.617
     5   6 C        3.800    -0.056    21.591     6.616
     6   6 C        3.800    -0.057    21.597     6.617
     7   6 C        3.800    -0.057    21.606     6.618
     8   6 C        3.800    -0.058    21.616     6.620
     9   6 C        3.800    -0.058    21.626     6.621
    10   6 C        3.800    -0.059    21.639     6.623
    11   6 C        3.800    -0.061    21.671     6.628
    12   6 C        3.800    -0.064    21.728     6.637
    13   6 C        3.800    -0.069    21.820     6.651
    14   6 C        3.799    -0.072    21.887     6.661
    15   6 C        3.759    -0.045    21.430     6.600
    16   7 N        3.621     0.137    18.907     6.458
    17   6 C        3.760    -0.040    21.341     6.586
    18   6 C        3.672     0.072    19.611     6.347
    19   8 O        1.656    -0.440    21.637     6.279
    20   6 C        3.727    -0.104    22.587     6.785
    21   6 C        3.723    -0.095    22.435     6.764
    22   1 H        0.925     0.034     2.530     2.487
    23   1 H        0.925     0.032     2.551     2.498
    24   1 H        0.925     0.034     2.529     2.487
    25   1 H        0.924     0.030     2.584     2.514
    26   1 H        0.924     0.027     2.625     2.534
    27   1 H        0.924     0.027     2.623     2.533
    28   1 H        0.924     0.029     2.601     2.522
    29   1 H        0.924     0.026     2.641     2.541
    30   1 H        0.924     0.033     2.545     2.495
    31   1 H        0.924     0.025     2.654     2.548
    32   1 H        0.924     0.033     2.542     2.493
    33   1 H        0.924     0.026     2.651     2.546
    34   1 H        0.924     0.033     2.540     2.493
    35   1 H        0.924     0.025     2.659     2.550
    36   1 H        0.924     0.035     2.521     2.483
    37   1 H        0.924     0.024     2.679     2.559
    38   1 H        0.924     0.037     2.493     2.469
    39   1 H        0.924     0.023     2.684     2.562
    40   1 H        0.924     0.038     2.469     2.457
    41   1 H        0.924     0.023     2.693     2.566
    42   1 H        0.924     0.041     2.437     2.441
    43   1 H        0.924     0.022     2.704     2.572
    44   1 H        0.924     0.046     2.371     2.408
    45   1 H        0.924     0.022     2.700     2.570
    46   1 H        0.925     0.053     2.288     2.365
    47   1 H        0.924     0.031     2.576     2.510
    48   1 H        0.925     0.059     2.207     2.323
    49   1 H        0.925     0.044     2.397     2.421
    50   1 H        0.925     0.071     2.078     2.254
    51   1 H        0.925     0.097     1.813     2.106
    52   1 H        0.924     0.090     1.880     2.144
    53   1 H        0.924     0.098     1.801     2.099
    54   1 H        0.924     0.087     1.905     2.158
    55   1 H        0.924     0.062     2.176     2.307
    56   1 H        0.923     0.053     2.282     2.362
    57   1 H        0.805     0.314     0.679     1.295
    58   1 H        0.925     0.093     1.852     2.128
    59   1 H        0.925     0.093     1.846     2.125
    60   1 H        0.925     0.129     1.540     1.940
    61   1 H        0.925     0.100     1.786     2.090
    62   1 H        0.925     0.101     1.777     2.085
    63   1 H        0.925     0.093     1.848     2.126

Wiberg/Mayer (AO) data.
largest (>0.10) Wiberg bond orders for each atom

     #   Z sym  total        # sym  WBO       # sym  WBO       # sym  WBO
 ---------------------------------------------------------------------------
     1   6 C    3.997 --     2 C    1.020    24 H    0.988    23 H    0.987
                            22 H    0.986
     2   6 C    3.998 --     1 C    1.020     3 C    1.008    26 H    0.978
                            25 H    0.976
     3   6 C    3.998 --     2 C    1.008     4 C    1.008    28 H    0.977
                            27 H    0.975
     4   6 C    3.997 --     5 C    1.008     3 C    1.008    29 H    0.975
                            30 H    0.975
     5   6 C    3.997 --     4 C    1.008     6 C    1.008    31 H    0.976
                            32 H    0.975
     6   6 C    3.997 --     7 C    1.008     5 C    1.008    33 H    0.975
                            34 H    0.975
     7   6 C    3.997 --     6 C    1.008     8 C    1.008    35 H    0.975
                            36 H    0.974
     8   6 C    3.997 --     7 C    1.008     9 C    1.008    37 H    0.975
                            38 H    0.974
     9   6 C    3.997 --     8 C    1.008    10 C    1.007    39 H    0.976
                            40 H    0.974
    10   6 C    3.997 --    11 C    1.007     9 C    1.007    41 H    0.975
                            42 H    0.974
    11   6 C    3.996 --    12 C    1.008    10 C    1.007    43 H    0.974
                            44 H    0.973
    12   6 C    3.995 --    11 C    1.008    13 C    1.007    45 H    0.973
                            46 H    0.971
    13   6 C    3.992 --    12 C    1.007    14 C    1.004    47 H    0.975
                            48 H    0.970
    14   6 C    3.985 --    13 C    1.004    15 C    1.003    49 H    0.968
                            50 H    0.966
    15   6 C    3.921 --    14 C    1.003    51 H    0.965    52 H    0.960
                            16 N    0.923
    16   7 N    3.812 --    21 C    0.961    20 C    0.954    17 C    0.939
                            15 C    0.923
    17   6 C    3.943 --    18 C    1.004    54 H    0.965    53 H    0.965
                            16 N    0.939
    18   6 C    3.958 --    19 O    1.004    17 C    1.004    55 H    0.964
                            56 H    0.964
    19   8 O    1.959 --    18 C    1.004    57 H    0.885
    20   6 C    3.918 --    58 H    0.976    59 H    0.975    60 H    0.961
                            16 N    0.954
    21   6 C    3.930 --    63 H    0.976    61 H    0.974    62 H    0.971
                            16 N    0.961
    22   1 H    0.999 --     1 C    0.986
    23   1 H    0.999 --     1 C    0.987
    24   1 H    0.999 --     1 C    0.988
    25   1 H    0.999 --     2 C    0.976
    26   1 H    0.999 --     2 C    0.978
    27   1 H    0.999 --     3 C    0.975
    28   1 H    0.999 --     3 C    0.977
    29   1 H    0.999 --     4 C    0.975
    30   1 H    0.999 --     4 C    0.975
    31   1 H    0.999 --     5 C    0.976
    32   1 H    0.999 --     5 C    0.975
    33   1 H    0.999 --     6 C    0.975
    34   1 H    0.999 --     6 C    0.975
    35   1 H    0.999 --     7 C    0.975
    36   1 H    0.999 --     7 C    0.974
    37   1 H    0.999 --     8 C    0.975
    38   1 H    0.999 --     8 C    0.974
    39   1 H    0.999 --     9 C    0.976
    40   1 H    0.999 --     9 C    0.974
    41   1 H    0.999 --    10 C    0.975
    42   1 H    0.998 --    10 C    0.974
    43   1 H    1.000 --    11 C    0.974
    44   1 H    0.998 --    11 C    0.973
    45   1 H    0.999 --    12 C    0.973
    46   1 H    0.997 --    12 C    0.971
    47   1 H    0.999 --    13 C    0.975
    48   1 H    0.996 --    13 C    0.970
    49   1 H    0.998 --    14 C    0.968
    50   1 H    0.995 --    14 C    0.966
    51   1 H    0.991 --    15 C    0.965
    52   1 H    0.992 --    15 C    0.960
    53   1 H    0.990 --    17 C    0.965
    54   1 H    0.992 --    17 C    0.965
    55   1 H    0.996 --    18 C    0.964
    56   1 H    0.997 --    18 C    0.964
    57   1 H    0.901 --    19 O    0.885
    58   1 H    0.991 --    20 C    0.976
    59   1 H    0.991 --    20 C    0.975
    60   1 H    0.983 --    20 C    0.961
    61   1 H    0.990 --    21 C    0.974
    62   1 H    0.990 --    21 C    0.971
    63   1 H    0.991 --    21 C    0.976
 ---------------------------------------------------------------------------

molecular dipole:
                 x           y           z       tot (Debye)
 q only:      -11.031       1.035     -22.225
   full:      -11.261       1.149     -22.258      63.471

           -------------------------------------------------
          | TOTAL ENERGY              -68.714741827180 Eh   |
          | GRADIENT NORM               0.000403005768 Eh/α |
          | HOMO-LUMO GAP               6.217465739593 eV   |
           -------------------------------------------------

 * finished run on 2024/12/20 at 02:10:50.764
