   * xtb version 6.7.1 (edcfbbe) compiled by 'conda@3ef47c1a292c' on 2024-11-25

   ID    Z sym.   atoms
    1    6 C      1, 3-9
    2    7 N      2
    3    1 H      10-27

          program call               : xtb C0215.xyz --opt --namespace C0215 --charge +1
          :  Hamiltonian                  GFN2-xTB          :
 * total energy  :   -28.8380652 Eh     change       -0.4405365E-11 Eh
 * total energy  :   -28.8433630 Eh     change       -0.5297827E-02 Eh
 * total energy  :   -28.8445205 Eh     change       -0.1157416E-02 Eh
 * total energy  :   -28.8445692 Eh     change       -0.4876967E-04 Eh
 * total energy  :   -28.8446154 Eh     change       -0.4613861E-04 Eh
 * total energy  :   -28.8446413 Eh     change       -0.2590945E-04 Eh
 * total energy  :   -28.8446819 Eh     change       -0.4058042E-04 Eh
 * total energy  :   -28.8446896 Eh     change       -0.7742797E-05 Eh
 * total energy  :   -28.8446965 Eh     change       -0.6857463E-05 Eh
 * total energy  :   -28.8447177 Eh     change       -0.2119789E-04 Eh
 * total energy  :   -28.8455553 Eh     change       -0.5743767E-05 Eh
 * total energy  :   -28.8455680 Eh     change       -0.1269708E-04 Eh
 * total energy  :   -28.8455755 Eh     change       -0.7551695E-05 Eh
 * total energy  :   -28.8455821 Eh     change       -0.6536371E-05 Eh
 * total energy  :   -28.8455926 Eh     change       -0.1049730E-04 Eh
 * total energy  :   -28.8456098 Eh     change       -0.1724713E-04 Eh
 * total energy  :   -28.8456244 Eh     change       -0.1458672E-04 Eh
 * total energy  :   -28.8456300 Eh     change       -0.5589058E-05 Eh
 * total energy  :   -28.8456325 Eh     change       -0.2534159E-05 Eh
   *** GEOMETRY OPTIMIZATION CONVERGED AFTER 54 ITERATIONS ***

 final structure:
================
27
 xtb: 6.7.1 (edcfbbe)
C            0.88219441639166       -0.10541198851896       -0.04564166483681
N            0.49704367070737        1.02542655327098       -0.91382938745588
C            1.12648494818271        0.84155397836012       -2.27606794678275
C            0.80992670948875       -0.51374769550917       -2.93580447670031
C            0.73162931713314       -0.19959878171243       -4.43055603648909
C            0.03944050082737        1.15721316141927       -4.45279271133361
C            0.73336686894157        1.91373801016253       -3.31729998810869
C           -0.97421739497190        1.10373520751642       -0.96787560813772
C            1.01968854778377        2.26536321137875       -0.30559377122817
H            0.45678840106700       -1.03583398115822       -0.41273960028603
H            0.52048099252787        0.06512619341157        0.96701147606749
H            1.96569307941817       -0.20464211525706       -0.01550618738659
H            2.20239348260929        0.89987939156892       -2.09209514447813
H            1.56693400129386       -1.26357114295086       -2.71520726852851
H           -0.15743044020198       -0.89980685133099       -2.61711377128835
H            0.18755657680994       -0.96282544134216       -4.98056216928462
H            1.73229908879119       -0.11721242934857       -4.85364550753201
H           -1.02519381104375        1.03898509179115       -4.24733400724311
H            0.14628476336281        1.66707134979092       -5.40616921223300
H            0.10442188218090        2.70788938771280       -2.92324022471480
H            1.64054287853326        2.38210579511832       -3.69819705223389
H           -1.37259536322875        1.20352571917410        0.04016534211287
H           -1.29452335206860        1.96273790797340       -1.55142626688267
H           -1.39174032241871        0.20495406632969       -1.41452708348546
H            0.57781126222097        2.41204220172908        0.67845527737759
H            2.10077315059083        2.20344744024160       -0.19505822605715
H            0.78449614506995        3.12851576017899       -0.92312878285043

          :  Hamiltonian                  GFN2-xTB          :
         :: total energy             -28.845632539255 Eh    ::
         :: gradient norm              0.000155268786 Eh/a0 ::
         :: HOMO-LUMO gap              8.731162959507 eV    ::
         :: SCC energy               -29.254001777573 Eh    ::
         :: -> dispersion             -0.019398240106 Eh    ::
         :: repulsion energy           0.408369238318 Eh    ::

    * Orbital Energies and Occupations

         #    Occupation            Energy/Eh            Energy/eV
      -------------------------------------------------------------
         1        2.0000           -0.8669198             -23.5901
       ...           ...                  ...                  ...
        15        2.0000           -0.6611378             -17.9905
        16        2.0000           -0.6546001             -17.8126
        17        2.0000           -0.6497428             -17.6804
        18        2.0000           -0.6454682             -17.5641
        19        2.0000           -0.6440780             -17.5263
        20        2.0000           -0.6417376             -17.4626
        21        2.0000           -0.6288270             -17.1113
        22        2.0000           -0.6096888             -16.5905
        23        2.0000           -0.6029317             -16.4066
        24        2.0000           -0.5832284             -15.8705
        25        2.0000           -0.5779745             -15.7275
        26        2.0000           -0.5758184             -15.6688
        27        2.0000           -0.5574539             -15.1691 (HOMO)
        28                         -0.2365895              -6.4379 (LUMO)
        29                         -0.1671788              -4.5492
        30                         -0.1572207              -4.2782
        31                         -0.1485811              -4.0431
        32                         -0.0942322              -2.5642
        33                         -0.0780541              -2.1240
        34                         -0.0716044              -1.9485
        35                         -0.0522848              -1.4227
        36                         -0.0218709              -0.5951
        37                         -0.0095321              -0.2594
        38                          0.0061903               0.1684
       ...                                ...                  ...
        54                          0.1890117               5.1433
      -------------------------------------------------------------
                  HL-Gap            0.3208643 Eh            8.7312 eV

     #   Z          covCN         q      C6AA      α(0)
     1   6 C        3.726    -0.096    22.442     6.764
     2   7 N        3.620     0.134    18.951     6.466
     3   6 C        3.818     0.005    20.483     6.441
     4   6 C        3.826    -0.072    21.852     6.652
     5   6 C        3.831    -0.065    21.725     6.632
     6   6 C        3.827    -0.067    21.753     6.636
     7   6 C        3.824    -0.073    21.881     6.656
     8   6 C        3.718    -0.093    22.395     6.760
     9   6 C        3.726    -0.095    22.431     6.762
    10   1 H        0.925     0.102     1.766     2.078
    11   1 H        0.925     0.098     1.802     2.099
    12   1 H        0.925     0.097     1.817     2.108
    13   1 H        0.924     0.072     2.061     2.245
    14   1 H        0.925     0.059     2.216     2.328
    15   1 H        0.925     0.052     2.292     2.368
    16   1 H        0.925     0.063     2.166     2.301
    17   1 H        0.925     0.057     2.233     2.337
    18   1 H        0.924     0.049     2.338     2.391
    19   1 H        0.925     0.064     2.152     2.294
    20   1 H        0.925     0.049     2.328     2.386
    21   1 H        0.925     0.068     2.111     2.272
    22   1 H        0.925     0.095     1.828     2.114
    23   1 H        0.925     0.101     1.772     2.081
    24   1 H        0.925     0.100     1.783     2.088
    25   1 H        0.925     0.098     1.804     2.100
    26   1 H        0.925     0.097     1.814     2.106
    27   1 H        0.925     0.100     1.780     2.087

Wiberg/Mayer (AO) data.
largest (>0.10) Wiberg bond orders for each atom

     #   Z sym  total        # sym  WBO       # sym  WBO       # sym  WBO
 ---------------------------------------------------------------------------
     1   6 C    3.928 --    12 H    0.975    11 H    0.974    10 H    0.973
                             2 N    0.958
     2   7 N    3.810 --     8 C    0.960     9 C    0.959     1 C    0.958
                             3 C    0.899
     3   6 C    3.924 --     4 C    0.993     7 C    0.990    13 H    0.965
                             2 N    0.899
     4   6 C    3.989 --     5 C    1.002     3 C    0.993    14 H    0.977
                            15 H    0.966
     5   6 C    3.991 --     6 C    1.009     4 C    1.002    17 H    0.977
                            16 H    0.976
     6   6 C    3.992 --     5 C    1.009     7 C    1.005    18 H    0.978
                            19 H    0.976
     7   6 C    3.988 --     6 C    1.005     3 C    0.990    21 H    0.975
                            20 H    0.967
     8   6 C    3.928 --    22 H    0.974    23 H    0.970    24 H    0.969
                             2 N    0.960
     9   6 C    3.929 --    26 H    0.975    25 H    0.974    27 H    0.971
                             2 N    0.959
    10   1 H    0.990 --     1 C    0.973
    11   1 H    0.990 --     1 C    0.974
    12   1 H    0.991 --     1 C    0.975
    13   1 H    0.995 --     3 C    0.965
    14   1 H    0.997 --     4 C    0.977
    15   1 H    0.997 --     4 C    0.966
    16   1 H    0.996 --     5 C    0.976
    17   1 H    0.997 --     5 C    0.977
    18   1 H    0.998 --     6 C    0.978
    19   1 H    0.996 --     6 C    0.976
    20   1 H    0.998 --     7 C    0.967
    21   1 H    0.995 --     7 C    0.975
    22   1 H    0.991 --     8 C    0.974
    23   1 H    0.990 --     8 C    0.970
    24   1 H    0.990 --     8 C    0.969
    25   1 H    0.990 --     9 C    0.974
    26   1 H    0.991 --     9 C    0.975
    27   1 H    0.990 --     9 C    0.971
 ---------------------------------------------------------------------------

molecular dipole:
                 x           y           z       tot (Debye)
 q only:        0.892       1.841      -2.354
   full:        0.929       1.867      -2.211       7.726

           -------------------------------------------------
          | TOTAL ENERGY              -28.845632539255 Eh   |
          | GRADIENT NORM               0.000155268786 Eh/α |
          | HOMO-LUMO GAP               8.731162959507 eV   |
           -------------------------------------------------

 * finished run on 2024/12/20 at 02:10:42.035
