   * xtb version 6.7.1 (edcfbbe) compiled by 'conda@3ef47c1a292c' on 2024-11-25

   ID    Z sym.   atoms
    1   17 Cl     1
    2    6 C      2-7, 9, 10, 12-18, 20
    3    7 N      8, 19
    4    8 O      11
    5    1 H      21-34

          program call               : xtb C0217.xyz --opt --namespace C0217 --charge +1
          :  Hamiltonian                  GFN2-xTB          :
 * total energy  :   -55.4707301 Eh     change       -0.2393328E-08 Eh
 * total energy  :   -55.4770832 Eh     change       -0.6353101E-02 Eh
 * total energy  :   -55.4785650 Eh     change       -0.1481858E-02 Eh
 * total energy  :   -55.4788292 Eh     change       -0.2641984E-03 Eh
 * total energy  :   -55.4790304 Eh     change       -0.2012024E-03 Eh
 * total energy  :   -55.4791437 Eh     change       -0.1132635E-03 Eh
 * total energy  :   -55.4792790 Eh     change       -0.1353467E-03 Eh
 * total energy  :   -55.4794469 Eh     change       -0.1679002E-03 Eh
 * total energy  :   -55.4796417 Eh     change       -0.1947513E-03 Eh
 * total energy  :   -55.4798733 Eh     change       -0.2316103E-03 Eh
 * total energy  :   -55.4933685 Eh     change       -0.9033818E-05 Eh
 * total energy  :   -55.4933761 Eh     change       -0.7515139E-05 Eh
 * total energy  :   -55.4933930 Eh     change       -0.1696305E-04 Eh
 * total energy  :   -55.4934120 Eh     change       -0.1898391E-04 Eh
 * total energy  :   -55.4934204 Eh     change       -0.8410957E-05 Eh
 * total energy  :   -55.4934377 Eh     change       -0.1732910E-04 Eh
 * total energy  :   -55.4934440 Eh     change       -0.6256773E-05 Eh
 * total energy  :   -55.4934518 Eh     change       -0.7819751E-05 Eh
 * total energy  :   -55.4934560 Eh     change       -0.4171083E-05 Eh
   *** GEOMETRY OPTIMIZATION CONVERGED AFTER 158 ITERATIONS ***

 final structure:
================
34
 xtb: 6.7.1 (edcfbbe)
Cl           1.13046071385521       -1.12634017725530       -1.70905560976350
C            2.69759956445977       -0.54214097611095       -1.32612100878004
C            3.02199573225153        0.78696053002781       -1.63915981978047
C            4.26324533406785        1.30976186942627       -1.35318723629840
C            5.18406290841060        0.46702110254788       -0.74000671006701
C            4.85692142574298       -0.86642957628850       -0.42725831074895
C            3.60689509920501       -1.39316760321825       -0.71732197322260
N            5.98291369910798       -1.42044486443453        0.15026109425485
C            6.06440663490352       -2.64539063321550        0.88818456293275
C            6.23874006889962       -2.27553992591192        2.39105476660724
O            6.50606916046132       -1.12664252454504        2.66203737571586
C            6.07845476269414       -3.34715721752934        3.36612740990251
C            5.97170315380318       -4.69779210065028        3.01541784428223
C            5.84243391091970       -5.65633944168303        4.00065415752898
C            5.80793521306322       -5.28832382584830        5.33892850285496
C            5.91163112545695       -3.95247056497068        5.69700518414615
C            6.05111492221350       -2.98818773702694        4.72027399101795
C            6.91323588913584       -0.46484519334920        0.22066252736553
N            6.48175684413749        0.66805473106367       -0.31912355150058
C            7.21222059886017        1.90027301478054       -0.43414740487364
H            2.27523904680121        1.40338613498309       -2.11264909508489
H            4.50582167768179        2.33090784433327       -1.59619840125341
H            3.33500479095765       -2.40983593775199       -0.48849498500401
H            5.15887902784430       -3.22849240863439        0.73012765970104
H            6.93633077239145       -3.22683725166604        0.57493482512382
H            6.00816264912308       -5.00846914057276        1.98318522726214
H            5.76901701146196       -6.69774882623759        3.72717214229195
H            5.70282231500331       -6.04504564253964        6.10085878696222
H            5.88647279635578       -3.66623877313934        6.73668004615941
H            6.13567926570984       -1.94341012562623        4.97792165115864
H            7.89809956444179       -0.60626162554594        0.62374782827850
H            8.21385523089517        1.77288296053663       -0.03046350882975
H            7.28068938173678        2.19812974462975       -1.48133544720204
H            6.70266970795241        2.68811416136162        0.12231747885425

          :  Hamiltonian                  GFN2-xTB          :
         :: total energy             -55.493455986543 Eh    ::
         :: gradient norm              0.000584052008 Eh/a0 ::
         :: HOMO-LUMO gap              2.907008989807 eV    ::
         :: SCC energy               -56.338906920556 Eh    ::
         :: -> dispersion             -0.035946706644 Eh    ::
         :: repulsion energy           0.845450934013 Eh    ::

    * Orbital Energies and Occupations

         #    Occupation            Energy/Eh            Energy/eV
      -------------------------------------------------------------
         1        2.0000           -1.1624780             -31.6326
       ...           ...                  ...                  ...
        38        2.0000           -0.5947080             -16.1828
        39        2.0000           -0.5926475             -16.1268
        40        2.0000           -0.5915403             -16.0966
        41        2.0000           -0.5815665             -15.8252
        42        2.0000           -0.5776881             -15.7197
        43        2.0000           -0.5540252             -15.0758
        44        2.0000           -0.5501070             -14.9692
        45        2.0000           -0.5361653             -14.5898
        46        2.0000           -0.5305289             -14.4364
        47        2.0000           -0.5298698             -14.4185
        48        2.0000           -0.5277578             -14.3610
        49        2.0000           -0.5233574             -14.2413
        50        2.0000           -0.5177131             -14.0877 (HOMO)
        51                         -0.4108825             -11.1807 (LUMO)
        52                         -0.4088479             -11.1253
        53                         -0.3668284              -9.9819
        54                         -0.3568508              -9.7104
        55                         -0.3397302              -9.2445
        56                         -0.3126539              -8.5077
        57                         -0.2461718              -6.6987
        58                         -0.2445530              -6.6546
        59                         -0.2029966              -5.5238
        60                         -0.1673353              -4.5534
        61                         -0.1257437              -3.4217
       ...                                ...                  ...
        99                          0.5517540              15.0140
      -------------------------------------------------------------
                  HL-Gap            0.1068306 Eh            2.9070 eV

     #   Z          covCN         q      C6AA      α(0)
     1  17 Cl       0.975    -0.099   102.236    15.469
     2   6 C        2.891     0.109    25.591     8.294
     3   6 C        2.963    -0.031    28.764     8.797
     4   6 C        2.909    -0.030    28.745     8.791
     5   6 C        3.121     0.034    27.062     8.520
     6   6 C        3.111     0.043    26.886     8.495
     7   6 C        2.951    -0.048    29.196     8.862
     8   7 N        2.830     0.041    20.529     6.729
     9   6 C        3.744    -0.046    21.470     6.610
    10   6 C        2.823     0.227    23.236     7.898
    11   8 O        0.857    -0.356    20.814     6.117
    12   6 C        2.970    -0.016    28.412     8.743
    13   6 C        2.919    -0.026    28.661     8.779
    14   6 C        2.917    -0.019    28.474     8.750
    15   6 C        2.920    -0.006    28.177     8.705
    16   6 C        2.916    -0.017    28.442     8.745
    17   6 C        2.927    -0.009    28.236     8.714
    18   6 C        3.071     0.075    26.246     8.400
    19   7 N        2.823     0.052    20.328     6.696
    20   6 C        3.691    -0.080    22.213     6.744
    21   1 H        0.926     0.099     1.794     2.095
    22   1 H        0.926     0.086     1.920     2.167
    23   1 H        0.926     0.085     1.928     2.171
    24   1 H        0.925     0.100     1.782     2.087
    25   1 H        0.924     0.099     1.798     2.097
    26   1 H        0.926     0.043     2.405     2.425
    27   1 H        0.926     0.063     2.169     2.303
    28   1 H        0.926     0.068     2.104     2.268
    29   1 H        0.926     0.067     2.122     2.278
    30   1 H        0.926     0.073     2.050     2.239
    31   1 H        0.926     0.118     1.632     1.998
    32   1 H        0.925     0.097     1.813     2.106
    33   1 H        0.924     0.100     1.789     2.092
    34   1 H        0.924     0.104     1.753     2.070

Wiberg/Mayer (AO) data.
largest (>0.10) Wiberg bond orders for each atom

     #   Z sym  total        # sym  WBO       # sym  WBO       # sym  WBO
 ---------------------------------------------------------------------------
     1  17 Cl   1.190 --     2 C    1.033
     2   6 C    3.931 --     7 C    1.432     3 C    1.334     1 Cl   1.033
     3   6 C    3.983 --     4 C    1.506     2 C    1.334    21 H    0.961
     4   6 C    3.985 --     3 C    1.506     5 C    1.331    22 H    0.961
                             7 C    0.111
     5   6 C    3.954 --     4 C    1.331     6 C    1.271    19 N    1.129
     6   6 C    3.957 --     7 C    1.352     5 C    1.271     8 N    1.122
     7   6 C    3.983 --     2 C    1.432     6 C    1.352    23 H    0.959
                             4 C    0.111
     8   7 N    3.668 --    18 C    1.335     6 C    1.122     9 C    0.996
     9   6 C    3.948 --     8 N    0.996    24 H    0.955    25 H    0.943
                            10 C    0.920
    10   6 C    3.926 --    11 O    1.802    12 C    1.082     9 C    0.920
    11   8 O    2.112 --    10 C    1.802
    12   6 C    3.981 --    13 C    1.351    17 C    1.348    10 C    1.082
    13   6 C    3.991 --    14 C    1.473    12 C    1.351    26 H    0.967
                            16 C    0.102
    14   6 C    3.990 --    13 C    1.473    15 C    1.417    27 H    0.968
    15   6 C    3.984 --    16 C    1.427    14 C    1.417    28 H    0.968
    16   6 C    3.988 --    17 C    1.464    15 C    1.427    29 H    0.967
                            13 C    0.102
    17   6 C    3.984 --    16 C    1.464    12 C    1.348    30 H    0.965
    18   6 C    3.944 --    19 N    1.372     8 N    1.335    31 H    0.951
    19   7 N    3.688 --    18 C    1.372     5 C    1.129    20 C    0.991
    20   6 C    3.937 --    19 N    0.991    32 H    0.976    33 H    0.965
                            34 H    0.963
    21   1 H    0.990 --     3 C    0.961
    22   1 H    0.992 --     4 C    0.961
    23   1 H    0.992 --     7 C    0.959
    24   1 H    0.989 --     9 C    0.955
    25   1 H    0.988 --     9 C    0.943
    26   1 H    0.998 --    13 C    0.967
    27   1 H    0.996 --    14 C    0.968
    28   1 H    0.995 --    15 C    0.968
    29   1 H    0.995 --    16 C    0.967
    30   1 H    0.995 --    17 C    0.965
    31   1 H    0.985 --    18 C    0.951
    32   1 H    0.990 --    20 C    0.976
    33   1 H    0.989 --    20 C    0.965
    34   1 H    0.988 --    20 C    0.963
 ---------------------------------------------------------------------------

molecular dipole:
                 x           y           z       tot (Debye)
 q only:       11.463      -2.085       1.035
   full:       11.237      -2.369       0.895      29.279

           -------------------------------------------------
          | TOTAL ENERGY              -55.493455986543 Eh   |
          | GRADIENT NORM               0.000584052008 Eh/α |
          | HOMO-LUMO GAP               2.907008989807 eV   |
           -------------------------------------------------

 * finished run on 2024/12/20 at 02:10:46.933
