   * xtb version 6.7.1 (edcfbbe) compiled by 'conda@3ef47c1a292c' on 2024-11-25

   ID    Z sym.   atoms
    1    6 C      1-3, 5-7
    2    7 N      4
    3    1 H      8-19

          program call               : xtb C0210.xyz --opt --namespace C0210 --charge +1
          :  Hamiltonian                  GFN2-xTB          :
 * total energy  :   -21.3777369 Eh     change       -0.5845990E-09 Eh
 * total energy  :   -21.4039896 Eh     change       -0.2625268E-01 Eh
 * total energy  :   -21.4069028 Eh     change       -0.2913213E-02 Eh
 * total energy  :   -21.4072169 Eh     change       -0.3141098E-03 Eh
 * total energy  :   -21.4072641 Eh     change       -0.4717437E-04 Eh
 * total energy  :   -21.4073106 Eh     change       -0.4649979E-04 Eh
 * total energy  :   -21.4073250 Eh     change       -0.1433170E-04 Eh
 * total energy  :   -21.4073450 Eh     change       -0.2005961E-04 Eh
 * total energy  :   -21.4073475 Eh     change       -0.2527369E-05 Eh
   *** GEOMETRY OPTIMIZATION CONVERGED AFTER 9 ITERATIONS ***

 final structure:
================
19
 xtb: 6.7.1 (edcfbbe)
C            0.83921393735881        0.09334216784385       -0.02866469533961
C           -0.35762417442631        0.09309164877510       -0.03715885249907
C           -1.80759423363963        0.09319036782109       -0.02676025147969
N           -2.38821195295920        0.06840961836317       -1.40411274056497
C           -1.93964205820265       -1.14870929774197       -2.10419018023372
C           -3.85776184263273        0.07023797173891       -1.30869733033481
C           -1.93961514650651        1.25950061012764       -2.14758872687702
H            1.88952304618847        0.09431755461699       -0.00549361276156
H           -2.16144979843270       -0.78552374246979        0.52073431784784
H           -2.16160911620303        0.99093954618046        0.48881870555923
H           -2.28151004486676       -2.03637204351864       -1.57408290288186
H           -2.33997512591909       -1.16927601293291       -3.11608192650060
H           -0.85162651443322       -1.16879712742451       -2.15120776407032
H           -4.20461690618727        0.96464492611071       -0.79342946935250
H           -4.29617498864368        0.05227046056066       -2.30515165136569
H           -4.20459652344834       -0.80502790181447       -0.76155304474568
H           -2.28139735865628        2.16572067608736       -1.64981250371120
H           -0.85160255233211        1.27774668137586       -2.19520412885131
H           -2.33986864605773        1.24364389630049       -3.15961324183745

          :  Hamiltonian                  GFN2-xTB          :
         :: total energy             -21.407347540369 Eh    ::
         :: gradient norm              0.000692714316 Eh/a0 ::
         :: HOMO-LUMO gap              6.512601415755 eV    ::
         :: SCC energy               -21.789135511206 Eh    ::
         :: -> dispersion             -0.011512346386 Eh    ::
         :: repulsion energy           0.381787970837 Eh    ::

    * Orbital Energies and Occupations

         #    Occupation            Energy/Eh            Energy/eV
      -------------------------------------------------------------
         1        2.0000           -0.8789344             -23.9170
       ...           ...                  ...                  ...
         8        2.0000           -0.7345002             -19.9868
         9        2.0000           -0.7328210             -19.9411
        10        2.0000           -0.6900728             -18.7778
        11        2.0000           -0.6833528             -18.5950
        12        2.0000           -0.6680120             -18.1775
        13        2.0000           -0.6618669             -18.0103
        14        2.0000           -0.6585886             -17.9211
        15        2.0000           -0.6524299             -17.7535
        16        2.0000           -0.6518510             -17.7378
        17        2.0000           -0.6495459             -17.6750
        18        2.0000           -0.6309121             -17.1680
        19        2.0000           -0.5807763             -15.8037
        20        2.0000           -0.5724378             -15.5768 (HOMO)
        21                         -0.3331041              -9.0642 (LUMO)
        22                         -0.3105316              -8.4500
        23                         -0.2179111              -5.9297
        24                         -0.1577269              -4.2920
        25                         -0.1512401              -4.1155
        26                         -0.1503154              -4.0903
        27                         -0.0880190              -2.3951
        28                         -0.0558578              -1.5200
        29                          0.0102604               0.2792
        30                          0.0121063               0.3294
        31                          0.0162367               0.4418
       ...                                ...                  ...
        40                          1.2716449              34.6032
      -------------------------------------------------------------
                  HL-Gap            0.2393337 Eh            6.5126 eV

     #   Z          covCN         q      C6AA      α(0)
     1   6 C        1.909    -0.068    32.955     9.271
     2   6 C        1.963    -0.029    31.830     9.111
     3   6 C        3.769    -0.022    21.010     6.532
     4   7 N        3.625     0.151    18.695     6.422
     5   6 C        3.722    -0.097    22.478     6.771
     6   6 C        3.723    -0.098    22.491     6.772
     7   6 C        3.722    -0.097    22.478     6.771
     8   1 H        0.928     0.130     1.535     1.938
     9   1 H        0.924     0.107     1.727     2.055
    10   1 H        0.924     0.107     1.727     2.055
    11   1 H        0.925     0.100     1.783     2.088
    12   1 H        0.925     0.101     1.779     2.086
    13   1 H        0.925     0.107     1.726     2.054
    14   1 H        0.925     0.100     1.782     2.088
    15   1 H        0.925     0.103     1.758     2.074
    16   1 H        0.925     0.100     1.782     2.088
    17   1 H        0.925     0.100     1.782     2.088
    18   1 H        0.925     0.107     1.726     2.055
    19   1 H        0.925     0.101     1.779     2.086

Wiberg/Mayer (AO) data.
largest (>0.10) Wiberg bond orders for each atom

     #   Z sym  total        # sym  WBO       # sym  WBO       # sym  WBO
 ---------------------------------------------------------------------------
     1   6 C    3.963 --     2 C    2.898     8 H    0.960
     2   6 C    3.977 --     1 C    2.898     3 C    1.049
     3   6 C    3.937 --     2 C    1.049     9 H    0.948    10 H    0.948
                             4 N    0.917
     4   7 N    3.819 --     6 C    0.959     5 C    0.956     7 C    0.956
                             3 C    0.917
     5   6 C    3.923 --    11 H    0.975    12 H    0.975    13 H    0.971
                             4 N    0.956
     6   6 C    3.926 --    16 H    0.975    14 H    0.975    15 H    0.974
                             4 N    0.959
     7   6 C    3.923 --    17 H    0.975    19 H    0.975    18 H    0.971
                             4 N    0.956
     8   1 H    0.983 --     1 C    0.960
     9   1 H    0.989 --     3 C    0.948
    10   1 H    0.989 --     3 C    0.948
    11   1 H    0.990 --     5 C    0.975
    12   1 H    0.990 --     5 C    0.975
    13   1 H    0.989 --     5 C    0.971
    14   1 H    0.990 --     6 C    0.975
    15   1 H    0.988 --     6 C    0.974
    16   1 H    0.990 --     6 C    0.975
    17   1 H    0.990 --     7 C    0.975
    18   1 H    0.989 --     7 C    0.971
    19   1 H    0.990 --     7 C    0.975
 ---------------------------------------------------------------------------

molecular dipole:
                 x           y           z       tot (Debye)
 q only:       -4.195       0.131      -2.588
   full:       -4.263       0.131      -2.565      12.650

           -------------------------------------------------
          | TOTAL ENERGY              -21.407347540369 Eh   |
          | GRADIENT NORM               0.000692714316 Eh/α |
          | HOMO-LUMO GAP               6.512601415755 eV   |
           -------------------------------------------------

 * finished run on 2024/12/20 at 02:10:30.798
