   * xtb version 6.7.1 (edcfbbe) compiled by 'conda@3ef47c1a292c' on 2024-11-25

   ID    Z sym.   atoms
    1    6 C      1-6, 8-16
    2    7 N      7
    3    1 H      17-38

          program call               : xtb C0212.xyz --opt --namespace C0212 --charge +1
          :  Hamiltonian                  GFN2-xTB          :
 * total energy  :   -45.7866972 Eh     change       -0.9777068E-10 Eh
 * total energy  :   -45.7938266 Eh     change       -0.7129447E-02 Eh
 * total energy  :   -45.7955994 Eh     change       -0.1772743E-02 Eh
 * total energy  :   -45.7958481 Eh     change       -0.2487117E-03 Eh
 * total energy  :   -45.7959972 Eh     change       -0.1490973E-03 Eh
 * total energy  :   -45.7960715 Eh     change       -0.7427013E-04 Eh
 * total energy  :   -45.7961642 Eh     change       -0.9270341E-04 Eh
 * total energy  :   -45.7962437 Eh     change       -0.7953967E-04 Eh
 * total energy  :   -45.7962851 Eh     change       -0.4142170E-04 Eh
 * total energy  :   -45.7963053 Eh     change       -0.2017584E-04 Eh
 * total energy  :   -45.7963547 Eh     change       -0.1610750E-04 Eh
 * total energy  :   -45.7963674 Eh     change       -0.1271745E-04 Eh
 * total energy  :   -45.7963795 Eh     change       -0.1203056E-04 Eh
 * total energy  :   -45.7963878 Eh     change       -0.8316061E-05 Eh
 * total energy  :   -45.7963940 Eh     change       -0.6215566E-05 Eh
 * total energy  :   -45.7964003 Eh     change       -0.6278498E-05 Eh
 * total energy  :   -45.7964073 Eh     change       -0.7010757E-05 Eh
 * total energy  :   -45.7964135 Eh     change       -0.6178518E-05 Eh
 * total energy  :   -45.7964183 Eh     change       -0.4802240E-05 Eh
   *** GEOMETRY OPTIMIZATION CONVERGED AFTER 21 ITERATIONS ***

 final structure:
================
38
 xtb: 6.7.1 (edcfbbe)
C            1.24930927527595       -0.29519356415599       -0.07714336931544
C            0.42394660810141       -0.90351921778620        0.75161232507240
C           -1.07692235444930       -0.84995438253860        0.64395277487611
C           -1.61628709176037       -2.20694071968261        0.34267000132331
C           -2.43393327077025       -2.88793633099665        1.13454742674003
C           -2.98479312435244       -4.23670189781805        0.78661690689941
N           -2.50146522412868       -5.34220779314912        1.67916207488980
C           -3.03147390858373       -5.18360841554027        3.07665157371855
C           -4.53354834286353       -5.24907262248441        3.18119986497764
C           -5.30537864022769       -4.09546224837143        3.07995341582349
C           -6.68366334999802       -4.16131528654342        3.18623090896692
C           -7.30673805446448       -5.37867060669898        3.40323126562471
C           -6.54576769665891       -6.52903235578276        3.52783007437206
C           -5.16782111044024       -6.46516625324429        3.41925538768534
C           -2.94906706361624       -6.62818562476560        1.11895139397351
C           -1.02953276663837       -5.32448151383619        1.72619979662031
H            0.89334220500843        0.29902795626944       -0.90236598890923
H            2.31707503370775       -0.35326433077019        0.04230325918814
H            0.80465456457380       -1.49053801934361        1.57761554137951
H           -1.50060853482386       -0.47282483075188        1.57737818338699
H           -1.35160396667452       -0.17123903279743       -0.16598972784669
H           -1.27894265990706       -2.63571998365025       -0.59277380642857
H           -2.77806148730896       -2.44011839634787        2.05599875689359
H           -4.07622731107718       -4.22780891258394        0.84803010517592
H           -2.69368422529883       -4.48938101042352       -0.23484681026887
H           -2.59062800238027       -5.98064159290403        3.67966012870582
H           -2.67203112222694       -4.22623297425252        3.45647442838909
H           -4.83358910326199       -3.13444800718470        2.93834700879748
H           -7.26866424615270       -3.25855122377105        3.10748034315866
H           -8.38046803696966       -5.42860292723287        3.48911681327576
H           -7.02349600690337       -7.47730289583713        3.71713976821756
H           -4.58422941189653       -7.36622334232355        3.54104667214715
H           -2.52754228470285       -6.77078246851349        0.12555142283017
H           -2.62186588165524       -7.44754991957251        1.75671780777098
H           -4.03538155889247       -6.64828985775900        1.04898110957369
H           -0.62454080354910       -5.42357528174133        0.72059634033288
H           -0.68110752899704       -4.38296098041153        2.14672805185451
H           -0.66146351503295       -6.14661313470572        2.33699877012584

          :  Hamiltonian                  GFN2-xTB          :
         :: total energy             -45.796418279358 Eh    ::
         :: gradient norm              0.000348133349 Eh/a0 ::
         :: HOMO-LUMO gap              3.905408580989 eV    ::
         :: SCC energy               -46.589495985309 Eh    ::
         :: -> dispersion             -0.033546615620 Eh    ::
         :: repulsion energy           0.793077705951 Eh    ::

    * Orbital Energies and Occupations

         #    Occupation            Energy/Eh            Energy/eV
      -------------------------------------------------------------
         1        2.0000           -0.8556027             -23.2821
       ...           ...                  ...                  ...
        31        2.0000           -0.5991092             -16.3026
        32        2.0000           -0.5975920             -16.2613
        33        2.0000           -0.5969925             -16.2450
        34        2.0000           -0.5888235             -16.0227
        35        2.0000           -0.5700207             -15.5111
        36        2.0000           -0.5464468             -14.8696
        37        2.0000           -0.5457374             -14.8503
        38        2.0000           -0.5416467             -14.7390
        39        2.0000           -0.5409095             -14.7189
        40        2.0000           -0.5277730             -14.3614
        41        2.0000           -0.5267879             -14.3346
        42        2.0000           -0.5206121             -14.1666
        43        2.0000           -0.5003508             -13.6152 (HOMO)
        44                         -0.3568296              -9.7098 (LUMO)
        45                         -0.3484795              -9.4826
        46                         -0.3448342              -9.3834
        47                         -0.2959922              -8.0544
        48                         -0.2313485              -6.2953
        49                         -0.1972507              -5.3675
        50                         -0.1451277              -3.9491
        51                         -0.1366745              -3.7191
        52                         -0.1308543              -3.5607
        53                         -0.0503462              -1.3700
        54                         -0.0429168              -1.1678
       ...                                ...                  ...
        86                          0.5407460              14.7144
      -------------------------------------------------------------
                  HL-Gap            0.1435211 Eh            3.9054 eV

     #   Z          covCN         q      C6AA      α(0)
     1   6 C        2.837    -0.086    30.154     8.999
     2   6 C        2.890    -0.028    28.710     8.785
     3   6 C        3.811    -0.065    21.734     6.636
     4   6 C        2.896    -0.017    28.425     8.741
     5   6 C        2.888    -0.069    29.713     8.937
     6   6 C        3.765    -0.035    21.247     6.570
     7   7 N        3.621     0.127    19.077     6.487
     8   6 C        3.763    -0.039    21.315     6.581
     9   6 C        2.967    -0.007    28.183     8.708
    10   6 C        2.923    -0.038    28.944     8.823
    11   6 C        2.919    -0.023    28.570     8.765
    12   6 C        2.920    -0.018    28.465     8.749
    13   6 C        2.918    -0.022    28.560     8.764
    14   6 C        2.923    -0.039    28.969     8.826
    15   6 C        3.721    -0.091    22.347     6.751
    16   6 C        3.722    -0.090    22.339     6.750
    17   1 H        0.926     0.054     2.269     2.355
    18   1 H        0.926     0.055     2.252     2.347
    19   1 H        0.925     0.031     2.569     2.506
    20   1 H        0.924     0.055     2.260     2.351
    21   1 H        0.924     0.073     2.054     2.241
    22   1 H        0.925     0.050     2.316     2.380
    23   1 H        0.926     0.051     2.310     2.377
    24   1 H        0.924     0.089     1.893     2.152
    25   1 H        0.924     0.080     1.979     2.200
    26   1 H        0.924     0.081     1.971     2.195
    27   1 H        0.924     0.087     1.904     2.158
    28   1 H        0.926     0.042     2.420     2.433
    29   1 H        0.926     0.058     2.225     2.333
    30   1 H        0.926     0.061     2.183     2.310
    31   1 H        0.926     0.058     2.220     2.330
    32   1 H        0.926     0.040     2.446     2.446
    33   1 H        0.925     0.093     1.853     2.129
    34   1 H        0.925     0.095     1.830     2.116
    35   1 H        0.925     0.099     1.795     2.095
    36   1 H        0.925     0.095     1.828     2.115
    37   1 H        0.925     0.098     1.799     2.097
    38   1 H        0.925     0.093     1.845     2.124

Wiberg/Mayer (AO) data.
largest (>0.10) Wiberg bond orders for each atom

     #   Z sym  total        # sym  WBO       # sym  WBO       # sym  WBO
 ---------------------------------------------------------------------------
     1   6 C    3.989 --     2 C    1.986    18 H    0.974    17 H    0.974
     2   6 C    3.987 --     1 C    1.986     3 C    0.993    19 H    0.967
     3   6 C    3.994 --     4 C    1.028     2 C    0.993    20 H    0.962
                            21 H    0.949
     4   6 C    3.984 --     5 C    1.897     3 C    1.028    22 H    0.963
     5   6 C    3.972 --     4 C    1.897     6 C    1.020    23 H    0.957
     6   6 C    3.929 --     5 C    1.020    25 H    0.966    24 H    0.954
                             7 N    0.912
     7   7 N    3.805 --    15 C    0.963    16 C    0.962     8 C    0.912
                             6 C    0.912
     8   6 C    3.929 --     9 C    1.005    26 H    0.965    27 H    0.963
                             7 N    0.912
     9   6 C    3.979 --    10 C    1.408    14 C    1.407     8 C    1.005
                            12 C    0.109
    10   6 C    3.991 --    11 C    1.443     9 C    1.408    28 H    0.965
                            13 C    0.109
    11   6 C    3.990 --    10 C    1.443    12 C    1.439    29 H    0.969
                            14 C    0.110
    12   6 C    3.988 --    11 C    1.439    13 C    1.437    30 H    0.969
                             9 C    0.109
    13   6 C    3.990 --    14 C    1.446    12 C    1.437    31 H    0.969
                            10 C    0.109
    14   6 C    3.991 --    13 C    1.446     9 C    1.407    32 H    0.968
                            11 C    0.110
    15   6 C    3.931 --    33 H    0.975    34 H    0.974    35 H    0.972
                             7 N    0.963
    16   6 C    3.931 --    38 H    0.976    36 H    0.975    37 H    0.972
                             7 N    0.962
    17   1 H    0.997 --     1 C    0.974
    18   1 H    0.995 --     1 C    0.974
    19   1 H    0.999 --     2 C    0.967
    20   1 H    0.997 --     3 C    0.962
    21   1 H    0.994 --     3 C    0.949
    22   1 H    0.997 --     4 C    0.963
    23   1 H    0.997 --     5 C    0.957
    24   1 H    0.992 --     6 C    0.954
    25   1 H    0.993 --     6 C    0.966
    26   1 H    0.993 --     8 C    0.965
    27   1 H    0.992 --     8 C    0.963
    28   1 H    0.998 --    10 C    0.965
    29   1 H    0.996 --    11 C    0.969
    30   1 H    0.996 --    12 C    0.969
    31   1 H    0.996 --    13 C    0.969
    32   1 H    0.998 --    14 C    0.968
    33   1 H    0.991 --    15 C    0.975
    34   1 H    0.990 --    15 C    0.974
    35   1 H    0.990 --    15 C    0.972
    36   1 H    0.990 --    16 C    0.975
    37   1 H    0.990 --    16 C    0.972
    38   1 H    0.991 --    16 C    0.976
 ---------------------------------------------------------------------------

molecular dipole:
                 x           y           z       tot (Debye)
 q only:       -5.163      -9.365       3.115
   full:       -5.147      -9.452       3.125      28.485

           -------------------------------------------------
          | TOTAL ENERGY              -45.796418279358 Eh   |
          | GRADIENT NORM               0.000348133349 Eh/α |
          | HOMO-LUMO GAP               3.905408580989 eV   |
           -------------------------------------------------

 * finished run on 2024/12/20 at 02:10:32.469
