   * xtb version 6.7.1 (edcfbbe) compiled by 'conda@3ef47c1a292c' on 2024-11-25

   ID    Z sym.   atoms
    1    6 C      1-4, 6-17
    2    7 N      5
    3    1 H      18-53

          program call               : xtb C0214.xyz --opt --namespace C0214 --charge +1
          :  Hamiltonian                  GFN2-xTB          :
 * total energy  :   -55.1388199 Eh     change       -0.1391953E-09 Eh
 * total energy  :   -55.1473281 Eh     change       -0.8508224E-02 Eh
 * total energy  :   -55.1496376 Eh     change       -0.2309526E-02 Eh
 * total energy  :   -55.1499015 Eh     change       -0.2638426E-03 Eh
 * total energy  :   -55.1501574 Eh     change       -0.2559323E-03 Eh
 * total energy  :   -55.1503626 Eh     change       -0.2052336E-03 Eh
 * total energy  :   -55.1506258 Eh     change       -0.2631689E-03 Eh
 * total energy  :   -55.1509525 Eh     change       -0.3267115E-03 Eh
 * total energy  :   -55.1512866 Eh     change       -0.3341238E-03 Eh
 * total energy  :   -55.1516077 Eh     change       -0.3210409E-03 Eh
 * total energy  :   -55.1585126 Eh     change       -0.2274046E-04 Eh
 * total energy  :   -55.1585361 Eh     change       -0.2351533E-04 Eh
 * total energy  :   -55.1585586 Eh     change       -0.2251775E-04 Eh
 * total energy  :   -55.1585891 Eh     change       -0.3048658E-04 Eh
 * total energy  :   -55.1586027 Eh     change       -0.1363053E-04 Eh
 * total energy  :   -55.1586152 Eh     change       -0.1248700E-04 Eh
 * total energy  :   -55.1586232 Eh     change       -0.7966163E-05 Eh
 * total energy  :   -55.1586400 Eh     change       -0.1687461E-04 Eh
 * total energy  :   -55.1586450 Eh     change       -0.4918554E-05 Eh
   *** GEOMETRY OPTIMIZATION CONVERGED AFTER 72 ITERATIONS ***

 final structure:
================
53
 xtb: 6.7.1 (edcfbbe)
C            2.33856534780317       -2.12882317515266       -0.70867165885324
C            1.13044870059076       -2.94560227571321       -0.25965647638788
C            0.99465343955465       -2.99677119526645        1.26586329374145
C            0.36942286040157       -1.78372032715025        1.96598864827998
N           -1.11418536675077       -1.56501722116930        1.84993361393516
C           -1.85352778408897       -2.86579306618256        1.70148923346748
C           -1.72032055986893       -3.87851157587259        2.85068947408303
C           -2.97494727408121       -3.99811627330590        3.72567294119257
C           -4.12897447762915       -4.68195186846189        3.00208763281177
C           -1.61447793673751       -0.94605349445390        3.12111998161136
C           -1.03049043911440        0.39762816818122        3.53699438197850
C           -1.60992229056857        0.83377333908493        4.88977645990288
C           -1.17045676906771       -0.03942762677260        6.06007982670885
C           -1.53205167064734       -0.71266730493576        0.66380000389951
C           -0.52661155146792        0.15112963171651       -0.10558611362866
C           -0.04534508830211        1.45756887703383        0.52510620422013
C            0.77494340691114        2.25370960462946       -0.48518600739909
H            2.34077715282789       -1.12718336685278       -0.28386748567237
H            2.35411765223601       -2.04035255901268       -1.79154580432703
H            3.25692004112528       -2.62029365991792       -0.39835994609018
H            0.21939487834259       -2.56529021211267       -0.72393469003624
H            1.26441545171280       -3.96676753225532       -0.61945372093182
H            0.47869607668410       -3.90920017389017        1.55658532988300
H            2.00389133577931       -3.07422447982644        1.67800554391966
H            0.58447909124629       -1.89618569855093        3.02996997488033
H            0.86404742685189       -0.87633045702717        1.62857355415273
H           -2.90975492061036       -2.61472268649260        1.58524842531574
H           -1.51549539197816       -3.31937911183362        0.77004958006654
H           -1.53626403112041       -4.86339842115220        2.41692011429586
H           -0.86081663390654       -3.65096519901321        3.48044007903008
H           -2.71696822838761       -4.59262238484012        4.60333825481068
H           -3.29895039104048       -3.01809249055666        4.07991311287494
H           -3.83635324469318       -5.67535130397454        2.67221584021855
H           -4.97754066697489       -4.78461884004115        3.67209246923089
H           -4.45601516075531       -4.11602748533524        2.13271763716067
H           -2.69721312328669       -0.83717332265880        3.02253020613730
H           -1.42085714145782       -1.65715613975682        3.92198937173658
H            0.05412344954976        0.34080511370646        3.63070009906766
H           -1.27590000304638        1.16321938259516        2.80420164367768
H           -1.27726329252837        1.85568400494896        5.07525202916767
H           -2.69981456026097        0.84990095357200        4.83381340585477
H           -0.08670365036326       -0.13293392512405        6.08610296049973
H           -1.48984121958220        0.41444323693926        6.99341633180548
H           -1.60810713943187       -1.03466564385420        6.01598066211603
H           -1.95314451241133       -1.39616292259920       -0.07551384937546
H           -2.34204384046077       -0.06836470545858        1.00872132383114
H            0.33256892355593       -0.43374022117820       -0.42199751408477
H           -1.06003978071361        0.42387046835835       -1.02089732482915
H           -0.90405516832968        2.05897792398151        0.82883935721095
H            0.57324107293144        1.27511065719219        1.40491874544413
H            0.17789512934106        2.49392724139324       -1.36103533263894
H            1.11803797032927        3.18364218773493       -0.04125119548433
H            1.64599390191056        1.68865755667615       -0.80919062848631

          :  Hamiltonian                  GFN2-xTB          :
         :: total energy             -55.158644963012 Eh    ::
         :: gradient norm              0.000850243073 Eh/a0 ::
         :: HOMO-LUMO gap              8.253418300272 eV    ::
         :: SCC energy               -55.960417264450 Eh    ::
         :: -> dispersion             -0.044584468594 Eh    ::
         :: repulsion energy           0.801772301439 Eh    ::

    * Orbital Energies and Occupations

         #    Occupation            Energy/Eh            Energy/eV
      -------------------------------------------------------------
         1        2.0000           -0.8397514             -22.8508
       ...           ...                  ...                  ...
        40        2.0000           -0.5761039             -15.6766
        41        2.0000           -0.5676524             -15.4466
        42        2.0000           -0.5637225             -15.3397
        43        2.0000           -0.5611986             -15.2710
        44        2.0000           -0.5573995             -15.1676
        45        2.0000           -0.5552040             -15.1079
        46        2.0000           -0.5517637             -15.0143
        47        2.0000           -0.5512903             -15.0014
        48        2.0000           -0.5483389             -14.9211
        49        2.0000           -0.5472292             -14.8909
        50        2.0000           -0.5450598             -14.8318
        51        2.0000           -0.5430225             -14.7764
        52        2.0000           -0.5427478             -14.7689 (HOMO)
        53                         -0.2394403              -6.5155 (LUMO)
        54                         -0.1772286              -4.8226
        55                         -0.1628123              -4.4303
        56                         -0.1566311              -4.2621
        57                         -0.0758629              -2.0643
        58                         -0.0651820              -1.7737
        59                         -0.0628509              -1.7103
        60                         -0.0496213              -1.3503
        61                         -0.0417989              -1.1374
        62                         -0.0318493              -0.8667
        63                         -0.0277786              -0.7559
       ...                                ...                  ...
       104                          0.2161344               5.8813
      -------------------------------------------------------------
                  HL-Gap            0.3033075 Eh            8.2534 eV

     #   Z          covCN         q      C6AA      α(0)
     1   6 C        3.752    -0.112    22.709     6.796
     2   6 C        3.799    -0.061    21.680     6.630
     3   6 C        3.800    -0.077    21.981     6.675
     4   6 C        3.743    -0.034    21.254     6.577
     5   7 N        3.612     0.095    19.591     6.574
     6   6 C        3.763    -0.035    21.251     6.571
     7   6 C        3.799    -0.072    21.887     6.661
     8   6 C        3.799    -0.064    21.722     6.636
     9   6 C        3.752    -0.114    22.741     6.801
    10   6 C        3.763    -0.035    21.242     6.570
    11   6 C        3.800    -0.073    21.897     6.662
    12   6 C        3.801    -0.062    21.685     6.630
    13   6 C        3.751    -0.113    22.725     6.798
    14   6 C        3.747    -0.035    21.273     6.579
    15   6 C        3.802    -0.079    22.015     6.680
    16   6 C        3.799    -0.058    21.627     6.622
    17   6 C        3.754    -0.113    22.724     6.798
    18   1 H        0.925     0.035     2.523     2.484
    19   1 H        0.925     0.051     2.303     2.373
    20   1 H        0.925     0.050     2.323     2.383
    21   1 H        0.924     0.032     2.555     2.500
    22   1 H        0.924     0.052     2.295     2.369
    23   1 H        0.925     0.057     2.238     2.339
    24   1 H        0.924     0.072     2.061     2.245
    25   1 H        0.924     0.075     2.034     2.230
    26   1 H        0.925     0.093     1.849     2.126
    27   1 H        0.924     0.081     1.967     2.194
    28   1 H        0.925     0.082     1.957     2.188
    29   1 H        0.924     0.067     2.123     2.278
    30   1 H        0.925     0.052     2.301     2.372
    31   1 H        0.924     0.054     2.267     2.355
    32   1 H        0.924     0.036     2.502     2.474
    33   1 H        0.925     0.049     2.335     2.389
    34   1 H        0.925     0.056     2.248     2.345
    35   1 H        0.925     0.034     2.530     2.488
    36   1 H        0.924     0.073     2.058     2.243
    37   1 H        0.925     0.089     1.885     2.147
    38   1 H        0.925     0.051     2.307     2.375
    39   1 H        0.925     0.057     2.238     2.340
    40   1 H        0.924     0.058     2.226     2.333
    41   1 H        0.924     0.043     2.410     2.428
    42   1 H        0.925     0.043     2.408     2.426
    43   1 H        0.925     0.058     2.227     2.334
    44   1 H        0.925     0.033     2.543     2.494
    45   1 H        0.924     0.074     2.040     2.234
    46   1 H        0.924     0.079     1.984     2.203
    47   1 H        0.925     0.072     2.064     2.247
    48   1 H        0.924     0.070     2.088     2.260
    49   1 H        0.924     0.039     2.460     2.453
    50   1 H        0.924     0.033     2.539     2.492
    51   1 H        0.925     0.048     2.347     2.396
    52   1 H        0.925     0.054     2.268     2.355
    53   1 H        0.925     0.043     2.409     2.427

Wiberg/Mayer (AO) data.
largest (>0.10) Wiberg bond orders for each atom

     #   Z sym  total        # sym  WBO       # sym  WBO       # sym  WBO
 ---------------------------------------------------------------------------
     1   6 C    3.993 --     2 C    1.020    20 H    0.986    19 H    0.985
                            18 H    0.980
     2   6 C    3.995 --     1 C    1.020     3 C    1.005    22 H    0.976
                            21 H    0.972
     3   6 C    3.985 --     4 C    1.006     2 C    1.005    23 H    0.969
                            24 H    0.964
     4   6 C    3.933 --     3 C    1.006    25 H    0.966    26 H    0.957
                             5 N    0.928
     5   7 N    3.793 --     6 C    0.932    10 C    0.932     4 C    0.928
                            14 C    0.920
     6   6 C    3.934 --     7 C    1.001    28 H    0.966    27 H    0.964
                             5 N    0.932
     7   6 C    3.987 --     8 C    1.004     6 C    1.001    29 H    0.969
                            30 H    0.967
     8   6 C    3.993 --     9 C    1.021     7 C    1.004    31 H    0.975
                            32 H    0.975
     9   6 C    3.993 --     8 C    1.021    33 H    0.986    34 H    0.984
                            35 H    0.984
    10   6 C    3.932 --    11 C    1.008    36 H    0.966    37 H    0.955
                             5 N    0.932
    11   6 C    3.988 --    10 C    1.008    12 C    0.997    38 H    0.972
                            39 H    0.968
    12   6 C    3.992 --    13 C    1.021    11 C    0.997    41 H    0.977
                            40 H    0.975
    13   6 C    3.994 --    12 C    1.021    42 H    0.987    44 H    0.985
                            43 H    0.984
    14   6 C    3.933 --    15 C    1.006    45 H    0.968    46 H    0.967
                             5 N    0.920
    15   6 C    3.982 --    16 C    1.007    14 C    1.006    48 H    0.961
                            47 H    0.958
    16   6 C    3.996 --    17 C    1.016    15 C    1.007    49 H    0.974
                            50 H    0.972
    17   6 C    3.992 --    16 C    1.016    53 H    0.987    51 H    0.986
                            52 H    0.985
    18   1 H    0.999 --     1 C    0.980
    19   1 H    0.997 --     1 C    0.985
    20   1 H    0.997 --     1 C    0.986
    21   1 H    0.999 --     2 C    0.972
    22   1 H    0.997 --     2 C    0.976
    23   1 H    0.997 --     3 C    0.969
    24   1 H    0.994 --     3 C    0.964
    25   1 H    0.994 --     4 C    0.966
    26   1 H    0.991 --     4 C    0.957
    27   1 H    0.993 --     6 C    0.964
    28   1 H    0.993 --     6 C    0.966
    29   1 H    0.995 --     7 C    0.969
    30   1 H    0.997 --     7 C    0.967
    31   1 H    0.997 --     8 C    0.975
    32   1 H    0.999 --     8 C    0.975
    33   1 H    0.998 --     9 C    0.986
    34   1 H    0.997 --     9 C    0.984
    35   1 H    0.999 --     9 C    0.984
    36   1 H    0.994 --    10 C    0.966
    37   1 H    0.992 --    10 C    0.955
    38   1 H    0.997 --    11 C    0.972
    39   1 H    0.997 --    11 C    0.968
    40   1 H    0.996 --    12 C    0.975
    41   1 H    0.998 --    12 C    0.977
    42   1 H    0.998 --    13 C    0.987
    43   1 H    0.997 --    13 C    0.984
    44   1 H    0.999 --    13 C    0.985
    45   1 H    0.994 --    14 C    0.968
    46   1 H    0.993 --    14 C    0.967
    47   1 H    0.995 --    15 C    0.958
    48   1 H    0.995 --    15 C    0.961
    49   1 H    0.998 --    16 C    0.974
    50   1 H    0.999 --    16 C    0.972
    51   1 H    0.998 --    17 C    0.986
    52   1 H    0.997 --    17 C    0.985
    53   1 H    0.998 --    17 C    0.987
 ---------------------------------------------------------------------------

molecular dipole:
                 x           y           z       tot (Debye)
 q only:       -1.783      -2.886       3.578
   full:       -1.866      -2.913       3.554      12.606

           -------------------------------------------------
          | TOTAL ENERGY              -55.158644963012 Eh   |
          | GRADIENT NORM               0.000850243073 Eh/α |
          | HOMO-LUMO GAP               8.253418300272 eV   |
           -------------------------------------------------

 * finished run on 2024/12/20 at 02:10:41.466
