   * xtb version 6.7.1 (edcfbbe) compiled by 'conda@3ef47c1a292c' on 2024-11-25

   ID    Z sym.   atoms
    1    6 C      1, 2, 4, 6, 8-13
    2    8 O      3, 5
    3    7 N      7
    4    1 H      14-27

          program call               : xtb C0219.xyz --opt --namespace C0219 --charge +1
          :  Hamiltonian                  GFN2-xTB          :
 * total energy  :   -39.1964881 Eh     change       -0.4354064E-09 Eh
 * total energy  :   -39.2021316 Eh     change       -0.5643432E-02 Eh
 * total energy  :   -39.2033119 Eh     change       -0.1180275E-02 Eh
 * total energy  :   -39.2036139 Eh     change       -0.3020541E-03 Eh
 * total energy  :   -39.2037831 Eh     change       -0.1691698E-03 Eh
 * total energy  :   -39.2038912 Eh     change       -0.1081397E-03 Eh
 * total energy  :   -39.2040172 Eh     change       -0.1260235E-03 Eh
 * total energy  :   -39.2042026 Eh     change       -0.1853793E-03 Eh
 * total energy  :   -39.2044653 Eh     change       -0.2626685E-03 Eh
 * total energy  :   -39.2047974 Eh     change       -0.3320978E-03 Eh
 * total energy  :   -39.2088452 Eh     change       -0.1384110E-04 Eh
 * total energy  :   -39.2088581 Eh     change       -0.1294757E-04 Eh
 * total energy  :   -39.2088743 Eh     change       -0.1610688E-04 Eh
 * total energy  :   -39.2088863 Eh     change       -0.1200055E-04 Eh
 * total energy  :   -39.2088931 Eh     change       -0.6820843E-05 Eh
 * total energy  :   -39.2089063 Eh     change       -0.1322009E-04 Eh
 * total energy  :   -39.2089109 Eh     change       -0.4562032E-05 Eh
 * total energy  :   -39.2089148 Eh     change       -0.3946308E-05 Eh
 * total energy  :   -39.2089173 Eh     change       -0.2480329E-05 Eh
   *** GEOMETRY OPTIMIZATION CONVERGED AFTER 55 ITERATIONS ***

 final structure:
================
27
 xtb: 6.7.1 (edcfbbe)
C            0.67378031520072        0.07606726930695       -0.12739456520550
C            0.46250315382149       -0.95088739794868       -1.22865855751689
O            1.34699845734745       -2.09047253812453       -0.99124850327824
C            2.56421175716390       -2.03462444691433       -1.48340700443694
O            3.06204170326733       -1.16568350536615       -2.12666375335555
C            3.35397234893420       -3.33441341511161       -1.12430630250657
N            2.62966060433942       -4.16315462732485       -0.19828400563342
C            1.77960621455754       -5.09135350888221       -0.65552433499264
C            1.00635584075191       -5.83765561004615        0.20867011221471
C            1.10720087666302       -5.61666386606215        1.57644447405701
C            1.99041767635505       -4.64498963504269        2.03050697023269
C            2.73653426577972       -3.93121488804197        1.11692483050623
C           -0.95329788375253       -1.49815139750701       -1.26118775257683
H            0.44290328857298       -0.35514015927942        0.84436979208533
H            0.01855768555625        0.92434999811626       -0.29760170591773
H            1.70151769654077        0.43177073394972       -0.12827388252225
H            0.73915425208076       -0.52265969308975       -2.19812547646787
H            3.54144255737574       -3.86378824625499       -2.06161332058005
H            4.31485303305118       -3.02320792082083       -0.70857802386061
H            1.72621829192950       -5.23198020951441       -1.72507994304081
H            0.33351134229592       -6.58212148609114       -0.18615621080745
H            0.51196084065974       -6.18746838797952        2.27175543046206
H            2.10083691835814       -4.44028546179786        3.08349357854412
H            3.43077259218602       -3.16517593101167        1.43010033752613
H           -1.64431951078321       -0.68979180029425       -1.47774601339601
H           -1.05583711833831       -2.25656993327491       -2.03296517286411
H           -1.21351719992089       -1.93357393559537       -0.29962099666856

          :  Hamiltonian                  GFN2-xTB          :
         :: total energy             -39.208917285487 Eh    ::
         :: gradient norm              0.000578601643 Eh/a0 ::
         :: HOMO-LUMO gap              2.540625371617 eV    ::
         :: SCC energy               -39.759107427024 Eh    ::
         :: -> dispersion             -0.020935991989 Eh    ::
         :: repulsion energy           0.550190141537 Eh    ::

    * Orbital Energies and Occupations

         #    Occupation            Energy/Eh            Energy/eV
      -------------------------------------------------------------
         1        2.0000           -0.8966955             -24.4003
       ...           ...                  ...                  ...
        23        2.0000           -0.6453020             -17.5596
        24        2.0000           -0.6370536             -17.3351
        25        2.0000           -0.6341533             -17.2562
        26        2.0000           -0.6294962             -17.1295
        27        2.0000           -0.6288448             -17.1117
        28        2.0000           -0.6216713             -16.9165
        29        2.0000           -0.6190052             -16.8440
        30        2.0000           -0.5941962             -16.1689
        31        2.0000           -0.5891152             -16.0306
        32        2.0000           -0.5790596             -15.7570
        33        2.0000           -0.5684530             -15.4684
        34        2.0000           -0.5634509             -15.3323
        35        2.0000           -0.5596036             -15.2276 (HOMO)
        36                         -0.4662373             -12.6870 (LUMO)
        37                         -0.4344102             -11.8209
        38                         -0.3731500             -10.1539
        39                         -0.3144739              -8.5573
        40                         -0.1773525              -4.8260
        41                         -0.1681650              -4.5760
        42                         -0.0814749              -2.2170
        43                         -0.0543048              -1.4777
        44                         -0.0498648              -1.3569
        45                         -0.0342172              -0.9311
        46                         -0.0218583              -0.5948
       ...                                ...                  ...
        66                          0.5533846              15.0584
      -------------------------------------------------------------
                  HL-Gap            0.0933663 Eh            2.5406 eV

     #   Z          covCN         q      C6AA      α(0)
     1   6 C        3.753    -0.123    22.928     6.828
     2   6 C        3.740     0.114    18.785     6.184
     3   8 O        1.700    -0.269    18.463     5.801
     4   6 C        2.704     0.365    20.811     7.467
     5   8 O        0.856    -0.345    20.611     6.087
     6   6 C        3.761    -0.070    21.894     6.670
     7   7 N        2.749     0.128    19.067     6.485
     8   6 C        2.893     0.035    27.218     8.554
     9   6 C        2.915    -0.007    28.199     8.708
    10   6 C        2.925     0.015    27.686     8.629
    11   6 C        2.915    -0.007    28.203     8.709
    12   6 C        2.894     0.034    27.250     8.559
    13   6 C        3.753    -0.124    22.942     6.830
    14   1 H        0.925     0.056     2.244     2.343
    15   1 H        0.925     0.075     2.030     2.228
    16   1 H        0.925     0.061     2.182     2.310
    17   1 H        0.924     0.068     2.106     2.269
    18   1 H        0.924     0.121     1.607     1.982
    19   1 H        0.924     0.122     1.599     1.978
    20   1 H        0.926     0.112     1.681     2.028
    21   1 H        0.926     0.112     1.678     2.026
    22   1 H        0.926     0.111     1.690     2.033
    23   1 H        0.926     0.112     1.680     2.027
    24   1 H        0.926     0.111     1.684     2.029
    25   1 H        0.925     0.077     2.012     2.218
    26   1 H        0.925     0.059     2.214     2.327
    27   1 H        0.925     0.060     2.201     2.320

Wiberg/Mayer (AO) data.
largest (>0.10) Wiberg bond orders for each atom

     #   Z sym  total        # sym  WBO       # sym  WBO       # sym  WBO
 ---------------------------------------------------------------------------
     1   6 C    3.988 --     2 C    1.006    14 H    0.984    16 H    0.983
                            15 H    0.977
     2   6 C    3.893 --    13 C    1.010     1 C    1.006    17 H    0.961
                             3 O    0.870
     3   8 O    2.327 --     4 C    1.192     2 C    0.870     5 O    0.194
     4   6 C    3.941 --     5 O    1.789     3 O    1.192     6 C    0.888
     5   8 O    2.119 --     4 C    1.789     3 O    0.194
     6   6 C    3.938 --     7 N    0.995    19 H    0.948    18 H    0.946
                             4 C    0.888
     7   7 N    3.773 --     8 C    1.317    12 C    1.315     6 C    0.995
     8   6 C    3.955 --     9 C    1.465     7 N    1.317    20 H    0.954
     9   6 C    3.980 --     8 C    1.465    10 C    1.420    21 H    0.958
    10   6 C    3.961 --     9 C    1.420    11 C    1.418    22 H    0.961
    11   6 C    3.980 --    12 C    1.468    10 C    1.418    23 H    0.958
    12   6 C    3.956 --    11 C    1.468     7 N    1.315    24 H    0.954
    13   6 C    3.988 --     2 C    1.010    26 H    0.984    27 H    0.983
                            25 H    0.977
    14   1 H    0.997 --     1 C    0.984
    15   1 H    0.994 --     1 C    0.977
    16   1 H    0.996 --     1 C    0.983
    17   1 H    0.995 --     2 C    0.961
    18   1 H    0.985 --     6 C    0.946
    19   1 H    0.985 --     6 C    0.948
    20   1 H    0.988 --     8 C    0.954
    21   1 H    0.987 --     9 C    0.958
    22   1 H    0.988 --    10 C    0.961
    23   1 H    0.987 --    11 C    0.958
    24   1 H    0.988 --    12 C    0.954
    25   1 H    0.993 --    13 C    0.977
    26   1 H    0.997 --    13 C    0.984
    27   1 H    0.996 --    13 C    0.983
 ---------------------------------------------------------------------------

molecular dipole:
                 x           y           z       tot (Debye)
 q only:        3.082      -8.080       0.737
   full:        3.168      -8.181       0.713      22.372

           -------------------------------------------------
          | TOTAL ENERGY              -39.208917285487 Eh   |
          | GRADIENT NORM               0.000578601643 Eh/α |
          | HOMO-LUMO GAP               2.540625371617 eV   |
           -------------------------------------------------

 * finished run on 2024/12/20 at 02:10:51.732
