   * xtb version 6.7.1 (edcfbbe) compiled by 'conda@3ef47c1a292c' on 2024-11-25

   ID    Z sym.   atoms
    1    6 C      1-6, 8, 10-29
    2    7 N      7, 9
    3    1 H      30-64

          program call               : xtb C0216.xyz --opt --namespace C0216 --charge +1
          :  Hamiltonian                  GFN2-xTB          :
 * total energy  :   -81.3142892 Eh     change       -0.1091564E-08 Eh
 * total energy  :   -81.3217990 Eh     change       -0.7509805E-02 Eh
 * total energy  :   -81.3237064 Eh     change       -0.1907395E-02 Eh
 * total energy  :   -81.3241420 Eh     change       -0.4356213E-03 Eh
 * total energy  :   -81.3243159 Eh     change       -0.1739095E-03 Eh
 * total energy  :   -81.3243609 Eh     change       -0.4491575E-04 Eh
 * total energy  :   -81.3243833 Eh     change       -0.2247368E-04 Eh
 * total energy  :   -81.3243909 Eh     change       -0.7609276E-05 Eh
 * total energy  :   -81.3243964 Eh     change       -0.5438271E-05 Eh
 * total energy  :   -81.3243998 Eh     change       -0.3395153E-05 Eh
   *** GEOMETRY OPTIMIZATION CONVERGED AFTER 10 ITERATIONS ***

 final structure:
================
64
 xtb: 6.7.1 (edcfbbe)
C           -2.31345888091572       -0.55728807018002       -0.00046604259890
C           -2.25769415843550        0.83557551169877       -0.00080423510302
C           -1.05087734418276        1.49739184084699       -0.00114348120496
C            0.11441723181919        0.73471113372763       -0.00112242550356
C            0.06300913122899       -0.68024034480309       -0.00103997720672
C           -1.17191723190391       -1.32843168403938       -0.00061848306070
N            1.37753305888101       -1.12119032802825       -0.00119282279908
C            2.14710593410359       -0.03550027794323       -0.00104559983806
N            1.45136870976888        1.09177809728235       -0.00112887385006
C            2.01188277324286        2.45567622448970       -0.00240043073911
C            1.55017192530256        3.18851448094816        1.26271329183169
C            2.09715352443971        4.61809388007136        1.24364164336718
C            3.62301871212926        4.57818469543170        1.24261719648585
C            4.10006269137687        3.83703228017941       -0.00387443084255
C            3.54242044125292        2.40800341236186       -0.00218763216851
C            3.62330197542476        4.57501083365094       -1.25236327223082
C            2.09743333298570        4.61498967192997       -1.25383052623196
C            1.55035706750433        3.18542352655513       -1.26939118067849
C            1.59731954871436        5.34175693936442       -0.00605711262962
C            1.98502987182949       -2.47413340422603       -0.00241980784065
C            2.85177861470024       -2.61854444584764        1.25559838058606
C            3.54135500069341       -3.98593858900721        1.24416492820488
C            2.48871222696440       -5.09088847772998        1.24375611608283
C            1.62390835000105       -4.95090175755867       -0.00593046316302
C            0.93459228857301       -3.58128811995379       -0.00430493015155
C            2.48987422934626       -5.08760428080849       -1.25516357937136
C            3.54255983924414       -3.98272727082575       -1.25156759697090
C            2.85296628618917       -2.61535008720214       -1.26002327369195
C            4.41542150654887       -4.10691080206005       -0.00343631915779
H           -3.27456860133012       -1.04583874013240       -0.00007817595872
H           -3.17411501778441        1.40327218563426       -0.00076801231988
H           -1.03193495207013        2.57324858275024       -0.00138944535802
H           -1.26616386078591       -2.39741423896404       -0.00033205216012
H            3.21654498410791       -0.07449190851554       -0.00079530398280
H            0.46383568250677        3.21537331911415        1.32662645412835
H            1.92222080576575        2.65903080178743        2.14333087445162
H            1.74314727666809        5.14087091440113        2.13667855492400
H            4.02101347925477        5.59295548763297        1.24240066328429
H            3.98655513053368        4.07858455392215        2.14281541979918
H            5.19264739485844        3.78296171545507       -0.00367869558402
H            3.90531811264918        1.88995245714437        0.88883691340543
H            3.90552733627854        1.88791368089502       -0.89193836496791
H            3.98701227530697        4.07308233621786       -2.15119851839468
H            4.02133657655877        5.58976278182897       -1.25467923408695
H            1.74365795065195        5.13552599240917       -2.14826726602130
H            1.92245391215521        2.65369806452865       -2.14864272724101
H            0.46400734695230        3.21214316506352       -1.33341846608168
H            1.96474134649862        6.36808927735746       -0.00728936452023
H            0.50599913910355        5.38145264767665       -0.00624738144684
H            3.61249155657146       -1.83701552497662        1.29468590862024
H            2.22428012754766       -2.52391258372311        2.14492437621982
H            4.16484557819717       -4.07112858669725        2.13879740902991
H            2.97519698673375       -6.06632434097829        1.25032416049126
H            1.86983181655125       -5.02151179553780        2.14052778643059
H            0.85230195769714       -5.72618123280233       -0.00732200816097
H            0.31273055733074       -3.50471752967992        0.88880887664239
H            0.31309527974571       -3.50210056357764       -0.89745539249346
H            1.87186220113388       -5.01572976947443       -2.15233957971510
H            2.97627769151321       -6.06306320280762       -1.26390935118189
H            4.16693362828997       -4.06550891018698       -2.14581221264043
H            2.22627744969360       -2.51836465487874       -2.14967210180939
H            3.61380289443409       -1.83382720259196       -1.29640926826851
H            4.92096570857459       -5.07264434283390       -0.00443452876379
H            5.18399359127920       -3.33099742378442       -0.00206900579453

          :  Hamiltonian                  GFN2-xTB          :
         :: total energy             -81.324399778493 Eh    ::
         :: gradient norm              0.000618370909 Eh/a0 ::
         :: HOMO-LUMO gap              2.967328037025 eV    ::
         :: SCC energy               -82.550644082861 Eh    ::
         :: -> dispersion             -0.077112280120 Eh    ::
         :: repulsion energy           1.226244304368 Eh    ::

    * Orbital Energies and Occupations

         #    Occupation            Energy/Eh            Energy/eV
      -------------------------------------------------------------
         1        2.0000           -0.8577190             -23.3397
       ...           ...                  ...                  ...
        64        2.0000           -0.5460426             -14.8586
        65        2.0000           -0.5417109             -14.7407
        66        2.0000           -0.5380037             -14.6398
        67        2.0000           -0.5375004             -14.6261
        68        2.0000           -0.5373609             -14.6223
        69        2.0000           -0.5367061             -14.6045
        70        2.0000           -0.5269655             -14.3395
        71        2.0000           -0.5224209             -14.2158
        72        2.0000           -0.5220180             -14.2048
        73        2.0000           -0.5077994             -13.8179
        74        2.0000           -0.5069893             -13.7959
        75        2.0000           -0.5065895             -13.7850
        76        2.0000           -0.5056695             -13.7600 (HOMO)
        77                         -0.3966222             -10.7926 (LUMO)
        78                         -0.3501163              -9.5272
        79                         -0.3407467              -9.2722
        80                         -0.2249149              -6.1202
        81                         -0.1939164              -5.2767
        82                         -0.1541631              -4.1950
        83                         -0.0810787              -2.2063
        84                         -0.0620756              -1.6892
        85                         -0.0540368              -1.4704
        86                         -0.0485155              -1.3202
        87                         -0.0476315              -1.2961
       ...                                ...                  ...
       151                          0.5502663              14.9735
      -------------------------------------------------------------
                  HL-Gap            0.1090473 Eh            2.9673 eV

     #   Z          covCN         q      C6AA      α(0)
     1   6 C        2.922    -0.022    28.546     8.762
     2   6 C        2.922    -0.022    28.547     8.762
     3   6 C        2.910    -0.035    28.872     8.811
     4   6 C        3.128     0.042    26.856     8.485
     5   6 C        3.109     0.045    26.856     8.490
     6   6 C        2.911    -0.038    28.955     8.823
     7   7 N        2.815     0.001    21.240     6.845
     8   6 C        3.100     0.073    26.251     8.396
     9   7 N        2.813     0.008    21.112     6.824
    10   6 C        3.847     0.070    19.375     6.261
    11   6 C        3.816    -0.066    21.749     6.637
    12   6 C        3.862    -0.014    20.787     6.484
    13   6 C        3.815    -0.069    21.809     6.647
    14   6 C        3.862    -0.013    20.769     6.481
    15   6 C        3.816    -0.067    21.775     6.641
    16   6 C        3.815    -0.069    21.809     6.647
    17   6 C        3.862    -0.014    20.787     6.484
    18   6 C        3.816    -0.066    21.748     6.637
    19   6 C        3.814    -0.068    21.798     6.645
    20   6 C        3.849     0.070    19.375     6.261
    21   6 C        3.816    -0.065    21.740     6.636
    22   6 C        3.861    -0.014    20.780     6.483
    23   6 C        3.815    -0.069    21.811     6.647
    24   6 C        3.862    -0.014    20.791     6.484
    25   6 C        3.817    -0.067    21.771     6.641
    26   6 C        3.815    -0.069    21.811     6.647
    27   6 C        3.861    -0.014    20.780     6.483
    28   6 C        3.816    -0.065    21.740     6.636
    29   6 C        3.815    -0.069    21.804     6.646
    30   1 H        0.926     0.074     2.046     2.237
    31   1 H        0.926     0.073     2.053     2.240
    32   1 H        0.926     0.067     2.123     2.279
    33   1 H        0.926     0.074     2.041     2.234
    34   1 H        0.927     0.096     1.817     2.108
    35   1 H        0.925     0.046     2.368     2.407
    36   1 H        0.924     0.041     2.439     2.442
    37   1 H        0.924     0.045     2.379     2.412
    38   1 H        0.925     0.053     2.287     2.365
    39   1 H        0.924     0.039     2.456     2.451
    40   1 H        0.924     0.044     2.398     2.422
    41   1 H        0.924     0.038     2.478     2.461
    42   1 H        0.924     0.038     2.478     2.462
    43   1 H        0.924     0.039     2.456     2.451
    44   1 H        0.925     0.053     2.287     2.365
    45   1 H        0.924     0.045     2.379     2.412
    46   1 H        0.924     0.041     2.440     2.443
    47   1 H        0.925     0.046     2.369     2.407
    48   1 H        0.925     0.052     2.289     2.366
    49   1 H        0.924     0.038     2.478     2.462
    50   1 H        0.924     0.034     2.527     2.486
    51   1 H        0.924     0.043     2.408     2.427
    52   1 H        0.924     0.045     2.386     2.416
    53   1 H        0.925     0.052     2.289     2.366
    54   1 H        0.924     0.040     2.444     2.445
    55   1 H        0.924     0.045     2.388     2.416
    56   1 H        0.924     0.047     2.363     2.404
    57   1 H        0.924     0.047     2.363     2.404
    58   1 H        0.924     0.040     2.444     2.445
    59   1 H        0.925     0.052     2.289     2.366
    60   1 H        0.924     0.045     2.386     2.416
    61   1 H        0.924     0.043     2.408     2.427
    62   1 H        0.924     0.034     2.527     2.486
    63   1 H        0.925     0.053     2.284     2.363
    64   1 H        0.924     0.037     2.490     2.468

Wiberg/Mayer (AO) data.
largest (>0.10) Wiberg bond orders for each atom

     #   Z sym  total        # sym  WBO       # sym  WBO       # sym  WBO
 ---------------------------------------------------------------------------
     1   6 C    3.985 --     6 C    1.498     2 C    1.376    30 H    0.967
     2   6 C    3.986 --     3 C    1.497     1 C    1.376    31 H    0.967
     3   6 C    3.986 --     2 C    1.497     4 C    1.337    32 H    0.955
                             6 C    0.119
     4   6 C    3.953 --     3 C    1.337     5 C    1.273     9 N    1.128
     5   6 C    3.952 --     6 C    1.335     4 C    1.273     7 N    1.131
     6   6 C    3.984 --     1 C    1.498     5 C    1.335    33 H    0.957
                             3 C    0.119
     7   7 N    3.658 --     8 C    1.367     5 C    1.131    20 C    0.912
                             9 N    0.104
     8   6 C    3.956 --     9 N    1.380     7 N    1.367    34 H    0.947
     9   7 N    3.670 --     8 C    1.380     4 C    1.128    10 C    0.918
                             7 N    0.104
    10   6 C    3.933 --    15 C    0.987    11 C    0.973    18 C    0.973
                             9 N    0.918
    11   6 C    3.990 --    12 C    0.991    36 H    0.974    10 C    0.973
                            35 H    0.968
    12   6 C    3.993 --    13 C    0.999    19 C    0.998    11 C    0.991
                            37 H    0.965
    13   6 C    3.996 --    12 C    0.999    14 C    0.999    39 H    0.975
                            38 H    0.973
    14   6 C    3.993 --    13 C    0.999    16 C    0.999    15 C    0.989
                            40 H    0.966
    15   6 C    3.993 --    14 C    0.989    10 C    0.987    41 H    0.972
                            42 H    0.972
    16   6 C    3.996 --    17 C    0.999    14 C    0.999    43 H    0.975
                            44 H    0.973
    17   6 C    3.993 --    16 C    0.999    19 C    0.998    18 C    0.991
                            45 H    0.965
    18   6 C    3.990 --    17 C    0.991    46 H    0.974    10 C    0.973
                            47 H    0.968
    19   6 C    3.996 --    17 C    0.998    12 C    0.998    49 H    0.975
                            48 H    0.974
    20   6 C    3.933 --    25 C    0.990    21 C    0.975    28 C    0.975
                             7 N    0.912
    21   6 C    3.991 --    22 C    0.991    20 C    0.975    51 H    0.974
                            50 H    0.971
    22   6 C    3.993 --    23 C    0.999    29 C    0.998    21 C    0.991
                            52 H    0.965
    23   6 C    3.996 --    24 C    0.999    22 C    0.999    54 H    0.975
                            53 H    0.973
    24   6 C    3.993 --    26 C    0.999    23 C    0.999    25 C    0.989
                            55 H    0.966
    25   6 C    3.992 --    20 C    0.990    24 C    0.989    57 H    0.970
                            56 H    0.970
    26   6 C    3.996 --    24 C    0.999    27 C    0.999    58 H    0.975
                            59 H    0.973
    27   6 C    3.993 --    26 C    0.999    29 C    0.998    28 C    0.991
                            60 H    0.965
    28   6 C    3.991 --    27 C    0.991    20 C    0.975    61 H    0.974
                            62 H    0.971
    29   6 C    3.996 --    22 C    0.998    27 C    0.998    64 H    0.975
                            63 H    0.974
    30   1 H    0.994 --     1 C    0.967
    31   1 H    0.994 --     2 C    0.967
    32   1 H    0.995 --     3 C    0.955
    33   1 H    0.994 --     6 C    0.957
    34   1 H    0.990 --     8 C    0.947
    35   1 H    0.998 --    11 C    0.968
    36   1 H    0.998 --    11 C    0.974
    37   1 H    0.997 --    12 C    0.965
    38   1 H    0.997 --    13 C    0.973
    39   1 H    0.998 --    13 C    0.975
    40   1 H    0.998 --    14 C    0.966
    41   1 H    0.998 --    15 C    0.972
    42   1 H    0.998 --    15 C    0.972
    43   1 H    0.998 --    16 C    0.975
    44   1 H    0.997 --    16 C    0.973
    45   1 H    0.997 --    17 C    0.965
    46   1 H    0.998 --    18 C    0.974
    47   1 H    0.998 --    18 C    0.968
    48   1 H    0.997 --    19 C    0.974
    49   1 H    0.999 --    19 C    0.975
    50   1 H    0.999 --    21 C    0.971
    51   1 H    0.998 --    21 C    0.974
    52   1 H    0.997 --    22 C    0.965
    53   1 H    0.997 --    23 C    0.973
    54   1 H    0.998 --    23 C    0.975
    55   1 H    0.998 --    24 C    0.966
    56   1 H    0.998 --    25 C    0.970
    57   1 H    0.998 --    25 C    0.970
    58   1 H    0.998 --    26 C    0.975
    59   1 H    0.997 --    26 C    0.973
    60   1 H    0.997 --    27 C    0.965
    61   1 H    0.998 --    28 C    0.974
    62   1 H    0.999 --    28 C    0.971
    63   1 H    0.997 --    29 C    0.974
    64   1 H    0.999 --    29 C    0.975
 ---------------------------------------------------------------------------

molecular dipole:
                 x           y           z       tot (Debye)
 q only:        2.802       0.024      -0.005
   full:        2.856       0.016      -0.004       7.259

           -------------------------------------------------
          | TOTAL ENERGY              -81.324399778493 Eh   |
          | GRADIENT NORM               0.000618370909 Eh/α |
          | HOMO-LUMO GAP               2.967328037025 eV   |
           -------------------------------------------------

 * finished run on 2024/12/20 at 02:10:43.548
