   * xtb version 6.7.1 (edcfbbe) compiled by 'conda@3ef47c1a292c' on 2024-11-25

   ID    Z sym.   atoms
    1    6 C      1-8, 10-26
    2   15 P      9
    3    1 H      27-80

          program call               : xtb C0213.xyz --opt --namespace C0213 --charge +1
          :  Hamiltonian                  GFN2-xTB          :
 * total energy  :   -83.2375142 Eh     change       -0.1324736E-09 Eh
 * total energy  :   -83.2432963 Eh     change       -0.5782064E-02 Eh
 * total energy  :   -83.2448792 Eh     change       -0.1582898E-02 Eh
 * total energy  :   -83.2451122 Eh     change       -0.2330358E-03 Eh
 * total energy  :   -83.2452619 Eh     change       -0.1496910E-03 Eh
 * total energy  :   -83.2453691 Eh     change       -0.1072264E-03 Eh
 * total energy  :   -83.2454837 Eh     change       -0.1145863E-03 Eh
 * total energy  :   -83.2456026 Eh     change       -0.1189219E-03 Eh
 * total energy  :   -83.2457026 Eh     change       -0.9992988E-04 Eh
 * total energy  :   -83.2458015 Eh     change       -0.9891490E-04 Eh
 * total energy  :   -83.2486877 Eh     change       -0.8068059E-05 Eh
 * total energy  :   -83.2486983 Eh     change       -0.1065196E-04 Eh
 * total energy  :   -83.2487132 Eh     change       -0.1491187E-04 Eh
 * total energy  :   -83.2487315 Eh     change       -0.1824072E-04 Eh
 * total energy  :   -83.2487513 Eh     change       -0.1982242E-04 Eh
 * total energy  :   -83.2487564 Eh     change       -0.5070306E-05 Eh
 * total energy  :   -83.2487637 Eh     change       -0.7370004E-05 Eh
 * total energy  :   -83.2487694 Eh     change       -0.5663952E-05 Eh
 * total energy  :   -83.2487743 Eh     change       -0.4913955E-05 Eh
   *** GEOMETRY OPTIMIZATION CONVERGED AFTER 71 ITERATIONS ***

 final structure:
================
80
 xtb: 6.7.1 (edcfbbe)
C            1.68557068002252       -0.20834304746019        0.63670660663402
C            1.50220247623364        0.57667327112440        1.92992038276284
C            1.40323483125156        2.08728617974018        1.71128156005024
C            0.22118805466102        2.54065741181139        0.85096211682644
C           -1.15490242512136        2.12097926156471        1.37253609847789
C           -1.48213894946698        2.60405731729400        2.78644886913460
C           -1.41641791155367        4.11748801865803        2.99453905056118
C           -2.26921925419626        4.95512310455860        2.03663750615142
P           -4.08063982618692        4.90652830943873        2.26589968774482
C           -4.53046280096573        5.29300694980625        3.99747130780127
C           -3.74891272597349        6.40678773986340        4.70038365086300
C           -3.96523592825252        7.81626153721477        4.15113144604969
C           -5.41329163295128        8.31021030450525        4.18726092364468
C           -6.04963326313505        8.32698395392132        5.57951634111063
C           -5.30843148045618        9.16879436227954        6.62050356272856
C           -5.14033417610358       10.64441052896180        6.25479333490252
C           -6.46589017818849       11.37908212635432        6.09515946918492
C           -4.87434064131399        6.10073320322522        1.12336661436332
C           -4.21008157168831        6.26651700619308       -0.24532022415810
C           -4.23622618152185        5.01955819531897       -1.12749078249007
C           -5.63465047763060        4.52407758361142       -1.50364087713591
C           -6.50541635127832        5.54842232951550       -2.23551980142292
C           -5.91180543493154        6.08921767091381       -3.53813671101797
C           -5.62496163165481        5.02972786631671       -4.60343159136110
C           -6.87724641792748        4.30432889145200       -5.08121153022005
C           -4.82505156193384        3.27540431460890        1.96531174620532
H            0.80308753343716       -0.14464011319476        0.00470943877543
H            1.86470779570770       -1.25732294996344        0.85832475070103
H            2.53794120336832        0.17214430794484        0.07878936504881
H            0.61688368568535        0.21293430187568        2.45534262524102
H            2.36050987846169        0.38927588410783        2.57853329078705
H            1.36005328932079        2.58032840766566        2.68518422361954
H            2.31866562646033        2.42562805133398        1.22099958629109
H            0.26488203236367        3.62871800118551        0.75589123723465
H            0.33827410693790        2.13094285997252       -0.15320924709647
H           -1.91528750893974        2.47594974666144        0.67046758161255
H           -1.21553742560422        1.03228106317025        1.37182795443142
H           -2.47261728149874        2.23647246152792        3.06141052267185
H           -0.77447972629536        2.15123193150628        3.48176272228791
H           -1.69143326643619        4.33251260333259        4.02879249755986
H           -0.38251987937770        4.44143410501483        2.86371489280916
H           -2.00372251707191        6.01225216445608        2.15112290263585
H           -2.05836918415339        4.67317663867878        1.00347723214222
H           -5.60140815488410        5.51419271804017        4.00474996389845
H           -4.38722536847499        4.35931668641030        4.55157320554364
H           -4.04248789468179        6.39175442972921        5.75111724495027
H           -2.68076665110830        6.18549872942726        4.66577780918790
H           -3.35245239039795        8.49626152147215        4.74374200191524
H           -3.58935591680243        7.86997791320233        3.12460827986363
H           -5.43232867187603        9.32101565999593        3.77790769935294
H           -6.03957589699041        7.69366411113142        3.53550722425384
H           -7.06661317275010        8.70778021821958        5.47718916228116
H           -6.13210082639257        7.30531442473245        5.95872826571676
H           -5.86794404948537        9.10676689631217        7.55635559032967
H           -4.32205269121427        8.73828048778681        6.80801899928022
H           -4.56810685054087       11.12310936935265        7.05211489046378
H           -4.55654516433099       10.74108761163232        5.33715150892371
H           -7.07825972195443       11.25508139573342        6.98513451809473
H           -6.28932841466031       12.44155080923745        5.94874903078813
H           -7.02410083978453       11.01036323367295        5.23809911877219
H           -5.91238370872752        5.77791124431992        1.00719785737587
H           -4.88743783115209        7.06906541053637        1.62634554906726
H           -4.72692342281849        7.07526982555614       -0.76338028521728
H           -3.17456856258271        6.58704417039289       -0.11184085836317
H           -3.68849799533670        5.24620174289279       -2.04269781797912
H           -3.69827880337005        4.20809045762758       -0.62711997879976
H           -5.51789771593106        3.64385849444671       -2.13698338334735
H           -6.16931563504886        4.19851547043345       -0.60723684709107
H           -7.46410304421945        5.07649112047958       -2.45411908502640
H           -6.71422669633038        6.39339863574611       -1.57470544532328
H           -6.61975196467862        6.81064900209752       -3.95174362170230
H           -4.98867489934742        6.63267990533117       -3.32407831720647
H           -5.16294483486718        5.53011556780502       -5.45703966967250
H           -4.90258740847604        4.30249090609997       -4.22708954950450
H           -7.62294437930188        5.01882116652173       -5.42190566618363
H           -6.63439798319831        3.64446912463842       -5.91013081056056
H           -7.31399519673693        3.70109573978518       -4.28899468687457
H           -4.47836284912230        2.85238612623753        1.02584344666423
H           -4.58236994859145        2.59124451672191        2.77527520995433
H           -5.90772802546720        3.39395130020942        1.92367911210232

          :  Hamiltonian                  GFN2-xTB          :
         :: total energy             -83.248774316881 Eh    ::
         :: gradient norm              0.000304705545 Eh/a0 ::
         :: HOMO-LUMO gap              5.833076189870 eV    ::
         :: SCC energy               -84.480550785662 Eh    ::
         :: -> dispersion             -0.072270887099 Eh    ::
         :: repulsion energy           1.231776468781 Eh    ::

    * Orbital Energies and Occupations

         #    Occupation            Energy/Eh            Energy/eV
      -------------------------------------------------------------
         1        2.0000           -0.8415304             -22.8992
       ...           ...                  ...                  ...
        67        2.0000           -0.5281000             -14.3703
        68        2.0000           -0.5240817             -14.2610
        69        2.0000           -0.5238534             -14.2548
        70        2.0000           -0.5234289             -14.2432
        71        2.0000           -0.5032504             -13.6941
        72        2.0000           -0.5032101             -13.6930
        73        2.0000           -0.5030469             -13.6886
        74        2.0000           -0.4995792             -13.5942
        75        2.0000           -0.4994182             -13.5899
        76        2.0000           -0.4993503             -13.5880
        77        2.0000           -0.4952228             -13.4757
        78        2.0000           -0.4951185             -13.4729
        79        2.0000           -0.4950670             -13.4715 (HOMO)
        80                         -0.2807054              -7.6384 (LUMO)
        81                         -0.2746863              -7.4746
        82                         -0.2640585              -7.1854
        83                         -0.1862795              -5.0689
        84                         -0.1011600              -2.7527
        85                         -0.0706741              -1.9231
        86                         -0.0512370              -1.3942
        87                         -0.0505736              -1.3762
        88                         -0.0462459              -1.2584
        89                         -0.0318493              -0.8667
        90                         -0.0279909              -0.7617
       ...                                ...                  ...
       163                          0.8047099              21.8973
      -------------------------------------------------------------
                  HL-Gap            0.2143616 Eh            5.8331 eV

     #   Z          covCN         q      C6AA      α(0)
     1   6 C        3.751    -0.105    22.566     6.774
     2   6 C        3.799    -0.054    21.552     6.610
     3   6 C        3.800    -0.060    21.660     6.626
     4   6 C        3.800    -0.060    21.662     6.627
     5   6 C        3.800    -0.060    21.653     6.625
     6   6 C        3.800    -0.065    21.754     6.641
     7   6 C        3.836    -0.062    21.670     6.623
     8   6 C        3.750    -0.069    21.888     6.672
     9  15 P        3.844     0.192   151.979    22.145
    10   6 C        3.749    -0.076    22.015     6.692
    11   6 C        3.835    -0.064    21.694     6.627
    12   6 C        3.800    -0.064    21.721     6.636
    13   6 C        3.800    -0.061    21.669     6.628
    14   6 C        3.800    -0.061    21.667     6.627
    15   6 C        3.801    -0.061    21.664     6.627
    16   6 C        3.799    -0.054    21.550     6.610
    17   6 C        3.751    -0.105    22.567     6.775
    18   6 C        3.750    -0.079    22.065     6.699
    19   6 C        3.842    -0.065    21.711     6.628
    20   6 C        3.800    -0.063    21.702     6.633
    21   6 C        3.800    -0.061    21.680     6.629
    22   6 C        3.800    -0.061    21.671     6.628
    23   6 C        3.801    -0.061    21.668     6.628
    24   6 C        3.799    -0.054    21.549     6.609
    25   6 C        3.751    -0.105    22.568     6.775
    26   6 C        3.701    -0.133    23.235     6.893
    27   1 H        0.925     0.032     2.552     2.498
    28   1 H        0.925     0.039     2.461     2.453
    29   1 H        0.925     0.039     2.459     2.452
    30   1 H        0.924     0.028     2.611     2.527
    31   1 H        0.924     0.036     2.509     2.477
    32   1 H        0.924     0.026     2.641     2.541
    33   1 H        0.924     0.039     2.462     2.454
    34   1 H        0.924     0.023     2.690     2.565
    35   1 H        0.924     0.044     2.402     2.424
    36   1 H        0.924     0.016     2.795     2.614
    37   1 H        0.924     0.049     2.329     2.386
    38   1 H        0.924     0.028     2.612     2.527
    39   1 H        0.924     0.059     2.212     2.326
    40   1 H        0.924     0.047     2.353     2.399
    41   1 H        0.924     0.068     2.113     2.273
    42   1 H        0.928     0.088     1.893     2.152
    43   1 H        0.927     0.099     1.794     2.095
    44   1 H        0.927     0.091     1.865     2.135
    45   1 H        0.928     0.084     1.937     2.177
    46   1 H        0.924     0.068     2.106     2.269
    47   1 H        0.924     0.048     2.341     2.393
    48   1 H        0.924     0.059     2.208     2.324
    49   1 H        0.924     0.025     2.660     2.551
    50   1 H        0.924     0.048     2.351     2.398
    51   1 H        0.924     0.018     2.770     2.603
    52   1 H        0.924     0.044     2.392     2.419
    53   1 H        0.924     0.024     2.667     2.554
    54   1 H        0.924     0.039     2.456     2.451
    55   1 H        0.924     0.026     2.638     2.540
    56   1 H        0.924     0.036     2.509     2.477
    57   1 H        0.924     0.028     2.618     2.531
    58   1 H        0.925     0.039     2.456     2.451
    59   1 H        0.925     0.039     2.462     2.454
    60   1 H        0.925     0.032     2.551     2.498
    61   1 H        0.927     0.089     1.884     2.146
    62   1 H        0.927     0.092     1.859     2.132
    63   1 H        0.924     0.071     2.079     2.255
    64   1 H        0.924     0.046     2.373     2.409
    65   1 H        0.924     0.058     2.218     2.329
    66   1 H        0.924     0.023     2.683     2.561
    67   1 H        0.924     0.047     2.351     2.398
    68   1 H        0.924     0.020     2.739     2.588
    69   1 H        0.924     0.045     2.390     2.417
    70   1 H        0.924     0.025     2.665     2.553
    71   1 H        0.924     0.039     2.457     2.451
    72   1 H        0.924     0.027     2.635     2.538
    73   1 H        0.924     0.035     2.511     2.478
    74   1 H        0.924     0.028     2.621     2.532
    75   1 H        0.925     0.039     2.457     2.451
    76   1 H        0.925     0.039     2.462     2.454
    77   1 H        0.925     0.033     2.549     2.497
    78   1 H        0.926     0.107     1.727     2.055
    79   1 H        0.926     0.098     1.799     2.097
    80   1 H        0.927     0.098     1.804     2.100

Wiberg/Mayer (AO) data.
largest (>0.10) Wiberg bond orders for each atom

     #   Z sym  total        # sym  WBO       # sym  WBO       # sym  WBO
 ---------------------------------------------------------------------------
     1   6 C    3.996 --     2 C    1.020    29 H    0.987    28 H    0.987
                            27 H    0.986
     2   6 C    3.997 --     1 C    1.020     3 C    1.008    31 H    0.978
                            30 H    0.976
     3   6 C    3.997 --     2 C    1.008     4 C    1.007    33 H    0.976
                            32 H    0.976
     4   6 C    3.996 --     3 C    1.007     5 C    1.007    34 H    0.976
                            35 H    0.974
     5   6 C    3.996 --     6 C    1.007     4 C    1.007    37 H    0.973
                            36 H    0.972
     6   6 C    3.994 --     5 C    1.007     7 C    1.006    39 H    0.970
                            38 H    0.968
     7   6 C    3.987 --     6 C    1.006     8 C    0.985    40 H    0.967
                            41 H    0.966
     8   6 C    3.985 --     9 P    1.006     7 C    0.985    42 H    0.928
                            43 H    0.927
     9  15 P    4.573 --    26 C    1.042    10 C    1.008     8 C    1.006
                            18 C    0.999
    10   6 C    3.987 --     9 P    1.008    11 C    0.989    45 H    0.934
                            44 H    0.931
    11   6 C    3.987 --    12 C    1.007    10 C    0.989    47 H    0.968
                            46 H    0.966
    12   6 C    3.994 --    11 C    1.007    13 C    1.007    48 H    0.970
                            49 H    0.964
    13   6 C    3.996 --    12 C    1.007    14 C    1.007    50 H    0.973
                            51 H    0.971
    14   6 C    3.996 --    15 C    1.007    13 C    1.007    53 H    0.976
                            52 H    0.974
    15   6 C    3.996 --    16 C    1.008    14 C    1.007    54 H    0.976
                            55 H    0.975
    16   6 C    3.998 --    17 C    1.020    15 C    1.008    56 H    0.978
                            57 H    0.976
    17   6 C    3.996 --    16 C    1.020    58 H    0.987    59 H    0.987
                            60 H    0.986
    18   6 C    3.985 --     9 P    0.999    19 C    0.989    61 H    0.932
                            62 H    0.931
    19   6 C    3.988 --    20 C    1.008    18 C    0.989    64 H    0.970
                            63 H    0.965
    20   6 C    3.994 --    19 C    1.008    21 C    1.007    65 H    0.971
                            66 H    0.961
    21   6 C    3.996 --    22 C    1.007    20 C    1.007    67 H    0.973
                            68 H    0.973
    22   6 C    3.996 --    23 C    1.008    21 C    1.007    70 H    0.975
                            69 H    0.974
    23   6 C    3.997 --    24 C    1.008    22 C    1.008    71 H    0.976
                            72 H    0.975
    24   6 C    3.998 --    25 C    1.020    23 C    1.008    73 H    0.978
                            74 H    0.976
    25   6 C    3.996 --    24 C    1.020    75 H    0.987    76 H    0.987
                            77 H    0.986
    26   6 C    3.988 --     9 P    1.042    78 H    0.942    79 H    0.941
                            80 H    0.941
    27   1 H    0.999 --     1 C    0.986
    28   1 H    0.998 --     1 C    0.987
    29   1 H    0.998 --     1 C    0.987
    30   1 H    0.999 --     2 C    0.976
    31   1 H    0.999 --     2 C    0.978
    32   1 H    0.999 --     3 C    0.976
    33   1 H    0.998 --     3 C    0.976
    34   1 H    0.999 --     4 C    0.976
    35   1 H    0.998 --     4 C    0.974
    36   1 H    1.000 --     5 C    0.972
    37   1 H    0.998 --     5 C    0.973
    38   1 H    0.999 --     6 C    0.968
    39   1 H    0.996 --     6 C    0.970
    40   1 H    0.998 --     7 C    0.967
    41   1 H    0.995 --     7 C    0.966
    42   1 H    0.992 --     8 C    0.928
    43   1 H    0.990 --     8 C    0.927
    44   1 H    0.992 --    10 C    0.931
    45   1 H    0.993 --    10 C    0.934
    46   1 H    0.995 --    11 C    0.966
    47   1 H    0.998 --    11 C    0.968
    48   1 H    0.996 --    12 C    0.970
    49   1 H    0.999 --    12 C    0.964
    50   1 H    0.998 --    13 C    0.973
    51   1 H    1.000 --    13 C    0.971
    52   1 H    0.998 --    14 C    0.974
    53   1 H    0.999 --    14 C    0.976
    54   1 H    0.998 --    15 C    0.976
    55   1 H    0.999 --    15 C    0.975
    56   1 H    0.999 --    16 C    0.978
    57   1 H    0.999 --    16 C    0.976
    58   1 H    0.998 --    17 C    0.987
    59   1 H    0.998 --    17 C    0.987
    60   1 H    0.999 --    17 C    0.986
    61   1 H    0.992 --    18 C    0.932
    62   1 H    0.991 --    18 C    0.931
    63   1 H    0.995 --    19 C    0.965
    64   1 H    0.998 --    19 C    0.970
    65   1 H    0.996 --    20 C    0.971
    66   1 H    0.999 --    20 C    0.961
    67   1 H    0.998 --    21 C    0.973
    68   1 H    1.000 --    21 C    0.973
    69   1 H    0.998 --    22 C    0.974
    70   1 H    0.999 --    22 C    0.975
    71   1 H    0.998 --    23 C    0.976
    72   1 H    0.999 --    23 C    0.975
    73   1 H    0.999 --    24 C    0.978
    74   1 H    0.999 --    24 C    0.976
    75   1 H    0.998 --    25 C    0.987
    76   1 H    0.998 --    25 C    0.987
    77   1 H    0.999 --    25 C    0.986
    78   1 H    0.988 --    26 C    0.942
    79   1 H    0.990 --    26 C    0.941
    80   1 H    0.990 --    26 C    0.941
 ---------------------------------------------------------------------------

molecular dipole:
                 x           y           z       tot (Debye)
 q only:       -7.408       9.453       4.045
   full:       -7.487       9.440       4.101      32.349

           -------------------------------------------------
          | TOTAL ENERGY              -83.248774316881 Eh   |
          | GRADIENT NORM               0.000304705545 Eh/α |
          | HOMO-LUMO GAP               5.833076189870 eV   |
           -------------------------------------------------

 * finished run on 2024/12/20 at 02:10:38.543
