   * xtb version 6.7.1 (edcfbbe) compiled by 'conda@3ef47c1a292c' on 2024-11-25

   ID    Z sym.   atoms
    1    7 N      1-3, 6, 9-11
    2    6 C      4, 5, 7, 8
    3    1 H      12-21

          program call               : xtb C0211.xyz --opt --namespace C0211 --charge +1
          :  Hamiltonian                  GFN2-xTB          :
 * total energy  :   -33.5561988 Eh     change       -0.4083986E-09 Eh
 * total energy  :   -33.5678585 Eh     change       -0.1165976E-01 Eh
 * total energy  :   -33.5656178 Eh     change        0.2240750E-02 Eh
 * total energy  :   -33.5722361 Eh     change       -0.6618311E-02 Eh
 * total energy  :   -33.5731031 Eh     change       -0.8669515E-03 Eh
 * total energy  :   -33.5724404 Eh     change        0.6626604E-03 Eh
 * total energy  :   -33.5740793 Eh     change       -0.1638883E-02 Eh
 * total energy  :   -33.5748760 Eh     change       -0.7967016E-03 Eh
 * total energy  :   -33.5752374 Eh     change       -0.3614549E-03 Eh
 * total energy  :   -33.5756778 Eh     change       -0.4403838E-03 Eh
 * total energy  :   -33.5794807 Eh     change       -0.6348245E-04 Eh
 * total energy  :   -33.5795267 Eh     change       -0.4595912E-04 Eh
 * total energy  :   -33.5795675 Eh     change       -0.4083908E-04 Eh
 * total energy  :   -33.5795805 Eh     change       -0.1300616E-04 Eh
 * total energy  :   -33.5795886 Eh     change       -0.8009967E-05 Eh
 * total energy  :   -33.5795921 Eh     change       -0.3573031E-05 Eh
 * total energy  :   -33.5795963 Eh     change       -0.4167139E-05 Eh
 * total energy  :   -33.5796005 Eh     change       -0.4241347E-05 Eh
 * total energy  :   -33.5796040 Eh     change       -0.3454239E-05 Eh
   *** GEOMETRY OPTIMIZATION CONVERGED AFTER 40 ITERATIONS ***

 final structure:
================
21
 xtb: 6.7.1 (edcfbbe)
N            0.72022492909322       -0.00316914627161        0.30986521854568
N           -0.30168991814465       -0.62849319605334        0.29364915809274
N           -1.33823670942881       -1.03825023619076        0.32950522771897
C            2.04266623377542       -0.51624546254002        0.05408887558257
C            2.88706565446102        0.68922191511244       -0.37189337429753
N            2.55471865603391        1.81592361683435        0.53287794577354
C            3.31752731464280        1.88428824336242        1.80219496288891
C            4.61283698326128        2.65497412506558        1.52821482937192
N            4.23731263307546        3.78689216687381        0.71741224718633
N            4.84897813423824        4.81121764801539        0.60554642386512
N            5.27243474265779        5.81637121259063        0.37383309781560
H            2.44412374649715       -0.97528148483683        0.96638099634452
H            2.04752523354379       -1.27278583067293       -0.73630566829883
H            3.95098191066968        0.46029746719950       -0.33279435885167
H            2.62406445064339        0.97637169649215       -1.39133094466341
H            2.74963322167949        2.73816204073840        0.09363760310776
H            1.53557167582829        1.68687886610495        0.69827911666318
H            2.71893877305821        2.42723813655349        2.53567756902160
H            3.52519557561850        0.88611236097676        2.18481669341150
H            5.07375505375027        2.95738556548724        2.47342510404472
H            5.33319170504365        2.03200029516168        0.98262927667537

          :  Hamiltonian                  GFN2-xTB          :
         :: total energy             -33.579603991969 Eh    ::
         :: gradient norm              0.000843601689 Eh/a0 ::
         :: HOMO-LUMO gap              4.007908993072 eV    ::
         :: SCC energy               -34.038937982090 Eh    ::
         :: -> dispersion             -0.013886827799 Eh    ::
         :: repulsion energy           0.459333990121 Eh    ::

    * Orbital Energies and Occupations

         #    Occupation            Energy/Eh            Energy/eV
      -------------------------------------------------------------
         1        2.0000           -0.8864492             -24.1215
       ...           ...                  ...                  ...
        18        2.0000           -0.7060698             -19.2131
        19        2.0000           -0.6872796             -18.7018
        20        2.0000           -0.6837477             -18.6057
        21        2.0000           -0.6729878             -18.3129
        22        2.0000           -0.6567819             -17.8719
        23        2.0000           -0.6467686             -17.5995
        24        2.0000           -0.6431594             -17.5013
        25        2.0000           -0.6038999             -16.4330
        26        2.0000           -0.6035590             -16.4237
        27        2.0000           -0.5780414             -15.7293
        28        2.0000           -0.5757324             -15.6665
        29        2.0000           -0.5448131             -14.8251
        30        2.0000           -0.5439062             -14.8004 (HOMO)
        31                         -0.3966183             -10.7925 (LUMO)
        32                         -0.3963852             -10.7862
        33                         -0.3561240              -9.6906
        34                         -0.3556136              -9.6767
        35                         -0.2499509              -6.8015
        36                         -0.1587531              -4.3199
        37                         -0.1442479              -3.9252
        38                         -0.1404962              -3.8231
        39                         -0.1122487              -3.0544
        40                         -0.0878116              -2.3895
        41                         -0.0810603              -2.2058
       ...                                ...                  ...
        54                          0.9626236              26.1943
      -------------------------------------------------------------
                  HL-Gap            0.1472879 Eh            4.0079 eV

     #   Z          covCN         q      C6AA      α(0)
     1   7 N        1.908    -0.237    27.050     7.711
     2   7 N        1.973     0.316    16.795     6.078
     3   7 N        0.991    -0.153    23.881     7.025
     4   6 C        3.745     0.004    20.580     6.471
     5   6 C        3.741    -0.035    21.269     6.580
     6   7 N        3.534    -0.063    22.451     7.037
     7   6 C        3.741    -0.034    21.268     6.580
     8   6 C        3.745     0.004    20.579     6.471
     9   7 N        1.908    -0.238    27.064     7.713
    10   7 N        1.973     0.316    16.793     6.077
    11   7 N        0.991    -0.153    23.882     7.025
    12   1 H        0.924     0.071     2.079     2.255
    13   1 H        0.924     0.083     1.953     2.186
    14   1 H        0.925     0.106     1.730     2.057
    15   1 H        0.924     0.107     1.725     2.054
    16   1 H        0.858     0.270     0.809     1.409
    17   1 H        0.858     0.271     0.808     1.409
    18   1 H        0.924     0.107     1.724     2.053
    19   1 H        0.925     0.106     1.731     2.057
    20   1 H        0.924     0.082     1.955     2.187
    21   1 H        0.924     0.070     2.081     2.256

Wiberg/Mayer (AO) data.
largest (>0.10) Wiberg bond orders for each atom

     #   Z sym  total        # sym  WBO       # sym  WBO       # sym  WBO
 ---------------------------------------------------------------------------
     1   7 N    3.179 --     2 N    1.527     4 C    0.975     3 N    0.597
     2   7 N    3.838 --     3 N    2.277     1 N    1.527
     3   7 N    2.969 --     2 N    2.277     1 N    0.597
     4   6 C    3.972 --     5 C    1.002     1 N    0.975    13 H    0.959
                            12 H    0.957
     5   6 C    3.927 --     4 C    1.002    15 H    0.966    14 H    0.965
                             6 N    0.951
     6   7 N    3.711 --     5 C    0.951     7 C    0.951    16 H    0.864
                            17 H    0.862
     7   6 C    3.927 --     8 C    1.002    18 H    0.966    19 H    0.965
                             6 N    0.951
     8   6 C    3.972 --     7 C    1.002     9 N    0.974    20 H    0.959
                            21 H    0.957
     9   7 N    3.177 --    10 N    1.527     8 C    0.974    11 N    0.597
    10   7 N    3.838 --    11 N    2.277     9 N    1.527
    11   7 N    2.969 --    10 N    2.277     9 N    0.597
    12   1 H    0.995 --     4 C    0.957
    13   1 H    0.993 --     4 C    0.959
    14   1 H    0.987 --     5 C    0.965
    15   1 H    0.989 --     5 C    0.966
    16   1 H    0.927 --     6 N    0.864
    17   1 H    0.927 --     6 N    0.862
    18   1 H    0.988 --     7 C    0.966
    19   1 H    0.987 --     7 C    0.965
    20   1 H    0.993 --     8 C    0.959
    21   1 H    0.995 --     8 C    0.957
 ---------------------------------------------------------------------------

molecular dipole:
                 x           y           z       tot (Debye)
 q only:        5.606       2.671       1.265
   full:        5.850       2.435       1.343      16.463

           -------------------------------------------------
          | TOTAL ENERGY              -33.579603991969 Eh   |
          | GRADIENT NORM               0.000843601689 Eh/α |
          | HOMO-LUMO GAP               4.007908993072 eV   |
           -------------------------------------------------

 * finished run on 2024/12/20 at 02:10:31.370
