   * xtb version 6.7.1 (edcfbbe) compiled by 'conda@3ef47c1a292c' on 2024-11-25

   ID    Z sym.   atoms
    1    6 C      1-3, 5-9
    2    7 N      4
    3    1 H      10-19

          program call               : xtb C0226.xyz --opt --namespace C0226 --charge +1
          :  Hamiltonian                  GFN2-xTB          :
 * total energy  :   -24.6977682 Eh     change       -0.8668621E-11 Eh
 * total energy  :   -24.7000929 Eh     change       -0.2324676E-02 Eh
 * total energy  :   -24.7004555 Eh     change       -0.3625496E-03 Eh
 * total energy  :   -24.7005429 Eh     change       -0.8740316E-04 Eh
 * total energy  :   -24.7005866 Eh     change       -0.4370525E-04 Eh
 * total energy  :   -24.7006090 Eh     change       -0.2240810E-04 Eh
 * total energy  :   -24.7006266 Eh     change       -0.1757508E-04 Eh
 * total energy  :   -24.7006515 Eh     change       -0.2496165E-04 Eh
 * total energy  :   -24.7006694 Eh     change       -0.1785185E-04 Eh
 * total energy  :   -24.7006930 Eh     change       -0.2359862E-04 Eh
 * total energy  :   -24.7007101 Eh     change       -0.1714158E-04 Eh
 * total energy  :   -24.7007218 Eh     change       -0.1165481E-04 Eh
 * total energy  :   -24.7007337 Eh     change       -0.1191025E-04 Eh
 * total energy  :   -24.7007399 Eh     change       -0.6220562E-05 Eh
 * total energy  :   -24.7007440 Eh     change       -0.4111923E-05 Eh
   *** GEOMETRY OPTIMIZATION CONVERGED AFTER 15 ITERATIONS ***

 final structure:
================
19
 xtb: 6.7.1 (edcfbbe)
C            0.66554723170748       -0.30645400467518        0.26891438396863
C            0.38436349188578        0.82346870041939       -0.34924655851367
C           -0.95718372240768        1.11949618331252       -0.97447633745101
N           -1.52230833975490        2.32156542777380       -0.37585073522058
C           -2.27538473785149        2.22087604404982        0.72477324421650
C           -2.76488918272620        3.34365329542173        1.35933679337901
C           -2.46263388471513        4.59939834564150        0.84747426839387
C           -1.67388687880759        4.68216889076659       -0.29280870836583
C           -1.21714452395896        3.52121032749147       -0.88231157407029
H           -0.05252160422734       -1.10296629349127        0.36985435428188
H            1.64130934742351       -0.49038008528086        0.68199842429464
H            1.12112815435239        1.60743410022637       -0.45038637473759
H           -0.83816446470664        1.28208682753307       -2.04905514206787
H           -1.63766043791025        0.28112854298743       -0.81705150838757
H           -2.48080093922022        1.22679457878720        1.09385436697744
H           -3.37415390891564        3.23407802838260        2.24225294066986
H           -2.83337481516961        5.49230649348304        1.32595934627888
H           -1.41526000053699        5.63630501081696       -0.72347126702818
H           -0.60301078446052        3.54266958635381       -1.77097991661805

          :  Hamiltonian                  GFN2-xTB          :
         :: total energy             -24.700744006350 Eh    ::
         :: gradient norm              0.000620029612 Eh/a0 ::
         :: HOMO-LUMO gap              2.693414361290 eV    ::
         :: SCC energy               -25.150817772588 Eh    ::
         :: -> dispersion             -0.013359474796 Eh    ::
         :: repulsion energy           0.450073766239 Eh    ::

    * Orbital Energies and Occupations

         #    Occupation            Energy/Eh            Energy/eV
      -------------------------------------------------------------
         1        2.0000           -0.8856254             -24.0991
       ...           ...                  ...                  ...
        11        2.0000           -0.7027125             -19.1218
        12        2.0000           -0.6970344             -18.9673
        13        2.0000           -0.6863538             -18.6766
        14        2.0000           -0.6838926             -18.6097
        15        2.0000           -0.6669114             -18.1476
        16        2.0000           -0.6486157             -17.6497
        17        2.0000           -0.6317420             -17.1906
        18        2.0000           -0.6279460             -17.0873
        19        2.0000           -0.6272014             -17.0670
        20        2.0000           -0.6205342             -16.8856
        21        2.0000           -0.6106698             -16.6172
        22        2.0000           -0.5809721             -15.8091
        23        2.0000           -0.5629860             -15.3196 (HOMO)
        24                         -0.4640049             -12.6262 (LUMO)
        25                         -0.4335550             -11.7976
        26                         -0.3602910              -9.8040
        27                         -0.3123178              -8.4986
        28                         -0.1697434              -4.6190
        29                         -0.0788831              -2.1465
        30                         -0.0506310              -1.3777
        31                         -0.0493990              -1.3442
        32                         -0.0332858              -0.9058
        33                         -0.0168454              -0.4584
        34                         -0.0072984              -0.1986
       ...                                ...                  ...
        46                          0.4738945              12.8953
      -------------------------------------------------------------
                  HL-Gap            0.0989812 Eh            2.6934 eV

     #   Z          covCN         q      C6AA      α(0)
     1   6 C        2.837    -0.075    29.873     8.957
     2   6 C        2.887    -0.040    28.990     8.827
     3   6 C        3.763    -0.036    21.264     6.573
     4   7 N        2.752     0.114    19.282     6.522
     5   6 C        2.892     0.034    27.249     8.558
     6   6 C        2.916    -0.009    28.235     8.713
     7   6 C        2.925     0.015    27.683     8.628
     8   6 C        2.915    -0.009    28.240     8.714
     9   6 C        2.891     0.034    27.246     8.558
    10   1 H        0.926     0.072     2.060     2.244
    11   1 H        0.926     0.087     1.904     2.158
    12   1 H        0.926     0.061     2.187     2.312
    13   1 H        0.924     0.099     1.796     2.096
    14   1 H        0.924     0.099     1.797     2.096
    15   1 H        0.926     0.111     1.685     2.030
    16   1 H        0.926     0.111     1.690     2.033
    17   1 H        0.926     0.110     1.697     2.037
    18   1 H        0.926     0.111     1.690     2.033
    19   1 H        0.926     0.112     1.683     2.029

Wiberg/Mayer (AO) data.
largest (>0.10) Wiberg bond orders for each atom

     #   Z sym  total        # sym  WBO       # sym  WBO       # sym  WBO
 ---------------------------------------------------------------------------
     1   6 C    3.979 --     2 C    1.987    10 H    0.970    11 H    0.967
     2   6 C    3.978 --     1 C    1.987     3 C    0.984    12 H    0.962
     3   6 C    3.933 --     2 C    0.984    14 H    0.960     4 N    0.954
                            13 H    0.952
     4   7 N    3.769 --     9 C    1.328     5 C    1.328     3 C    0.954
     5   6 C    3.957 --     6 C    1.463     4 N    1.328    15 H    0.954
     6   6 C    3.980 --     5 C    1.463     7 C    1.421    16 H    0.958
     7   6 C    3.967 --     8 C    1.423     6 C    1.421    17 H    0.961
     8   6 C    3.980 --     9 C    1.461     7 C    1.423    18 H    0.958
     9   6 C    3.957 --     8 C    1.461     4 N    1.328    19 H    0.954
    10   1 H    0.995 --     1 C    0.970
    11   1 H    0.991 --     1 C    0.967
    12   1 H    0.996 --     2 C    0.962
    13   1 H    0.990 --     3 C    0.952
    14   1 H    0.990 --     3 C    0.960
    15   1 H    0.988 --     5 C    0.954
    16   1 H    0.987 --     6 C    0.958
    17   1 H    0.988 --     7 C    0.961
    18   1 H    0.987 --     8 C    0.958
    19   1 H    0.988 --     9 C    0.954
 ---------------------------------------------------------------------------

molecular dipole:
                 x           y           z       tot (Debye)
 q only:       -2.913       5.015      -0.004
   full:       -2.957       5.028      -0.059      14.827

           -------------------------------------------------
          | TOTAL ENERGY              -24.700744006350 Eh   |
          | GRADIENT NORM               0.000620029612 Eh/α |
          | HOMO-LUMO GAP               2.693414361290 eV   |
           -------------------------------------------------

 * finished run on 2024/12/20 at 02:11:06.175
