   * xtb version 6.7.1 (edcfbbe) compiled by 'conda@3ef47c1a292c' on 2024-11-25

   ID    Z sym.   atoms
    1    6 C      1-12, 14, 15, 17-28
    2    7 N      13, 16
    3    1 H      29-71

          program call               : xtb C0220.xyz --opt --namespace C0220 --charge +1
          :  Hamiltonian                  GFN2-xTB          :
 * total energy  :   -83.1178617 Eh     change       -0.1199780E-08 Eh
 * total energy  :   -83.1247671 Eh     change       -0.6905396E-02 Eh
 * total energy  :   -83.1263409 Eh     change       -0.1573798E-02 Eh
 * total energy  :   -83.1267511 Eh     change       -0.4102299E-03 Eh
 * total energy  :   -83.1271585 Eh     change       -0.4074420E-03 Eh
 * total energy  :   -83.1273786 Eh     change       -0.2200597E-03 Eh
 * total energy  :   -83.1276081 Eh     change       -0.2295334E-03 Eh
 * total energy  :   -83.1278267 Eh     change       -0.2185902E-03 Eh
 * total energy  :   -83.1279817 Eh     change       -0.1549479E-03 Eh
 * total energy  :   -83.1280902 Eh     change       -0.1084788E-03 Eh
 * total energy  :   -83.1292641 Eh     change       -0.9297085E-05 Eh
 * total energy  :   -83.1292747 Eh     change       -0.1053612E-04 Eh
 * total energy  :   -83.1292851 Eh     change       -0.1041982E-04 Eh
 * total energy  :   -83.1292957 Eh     change       -0.1061233E-04 Eh
 * total energy  :   -83.1293071 Eh     change       -0.1138665E-04 Eh
 * total energy  :   -83.1293173 Eh     change       -0.1017751E-04 Eh
 * total energy  :   -83.1293245 Eh     change       -0.7223994E-05 Eh
 * total energy  :   -83.1293304 Eh     change       -0.5845537E-05 Eh
 * total energy  :   -83.1293353 Eh     change       -0.4988131E-05 Eh
   *** GEOMETRY OPTIMIZATION CONVERGED AFTER 38 ITERATIONS ***

 final structure:
================
71
 xtb: 6.7.1 (edcfbbe)
C            1.25804995942576        0.36646684208010        0.77095892127458
C            0.96638369078897        0.95361492398317       -0.60477785442350
C            1.43301373515542        0.05969587008648       -1.75470534969210
C            0.76075629162542       -1.31335158174748       -1.82075528841968
C           -0.76244389897121       -1.28361287327587       -1.96308120600007
C           -1.28302724058778       -0.53187250407789       -3.18973393277923
C           -0.77818392675063       -1.05851263231601       -4.53421553767479
C           -1.07943518233640       -2.53344984945305       -4.81356138398317
C           -2.56168078826148       -2.91231022661538       -4.75381513270929
C           -3.43731825597257       -2.23440167227834       -5.80716403180390
C           -3.25580581514362       -2.80171194186830       -7.23007890102359
C           -3.77634950871961       -4.18323221804274       -7.36108029559046
N           -5.07196039025182       -4.50382070112266       -7.50223084324861
C           -5.18304563820076       -5.86319828336099       -7.56336979343070
C           -3.93160945880319       -6.37379714120052       -7.46343071190956
N           -3.06984537952693       -5.32147373205577       -7.33550851634075
C           -1.63436527980131       -5.49672912946837       -7.27745354124845
C           -1.05843716410232       -5.83053039617378       -8.65852593804802
C           -1.11832427591048       -4.66512257913786       -9.64751003883195
C           -0.08009746046057       -3.57027376201079       -9.38617084582997
C            1.33484722806624       -3.99802568203823       -9.75683272518385
C           -6.20243559419087       -3.60462683066323       -7.53514446330537
C           -6.69125501081343       -3.22308574819609       -6.15184993467828
C           -6.69099311453382       -4.14305505501882       -5.11104488876287
C           -7.16045400421235       -3.77936537755590       -3.86069908969202
C           -7.64331904442351       -2.50014647482856       -3.64369512526583
C           -7.65492414543192       -1.58297080000423       -4.68110496479984
C           -7.17750376538108       -1.94077475391982       -5.92974923359795
H            0.67684681458758       -0.53541193991747        0.94645363507960
H            1.00618948650282        1.08548693302042        1.54695029226156
H            2.31358814637613        0.12030357643281        0.86343183121751
H           -0.10287206538855        1.15296820015618       -0.69668267557442
H            1.48280232899421        1.91229199269504       -0.69388691922834
H            1.27206322325491        0.58903525810855       -2.69645928329834
H            2.50961778331825       -0.09917910223091       -1.65460072908268
H            1.19380778716361       -1.86492592235968       -2.65873133867158
H            1.00398256945239       -1.87166762415568       -0.91509102750294
H           -1.12477988527390       -2.31455716485244       -1.98550224594368
H           -1.19341310919943       -0.81705150102207       -1.07581781927055
H           -2.37550553943610       -0.55829622141664       -3.17376601083756
H           -0.99244412051365        0.51675923102203       -3.11288792530654
H           -1.20579302163188       -0.44013408708784       -5.32732001366381
H            0.30367418785063       -0.92704783438580       -4.58307274890442
H           -0.66592232892271       -2.77373511838086       -5.79750051578799
H           -0.54596395647280       -3.14670732340463       -4.08627946670298
H           -2.66089781208040       -3.99840978485741       -4.83942987814260
H           -2.94677690658223       -2.63897876985669       -3.77175203955113
H           -4.48326413540606       -2.33095269167958       -5.51503071922444
H           -3.20348188001437       -1.17150071481457       -5.83991890521386
H           -3.79496256806125       -2.15785210623572       -7.92858807288700
H           -2.20279876759391       -2.77102640332893       -7.50315830536644
H           -6.12670854898400       -6.35529694244136       -7.67924121579434
H           -3.59485433965056       -7.38965624128097       -7.46660587873632
H           -1.17573598768000       -4.59548187820196       -6.87500445455659
H           -1.43044083380324       -6.32083171382219       -6.58956874508616
H           -0.02288573829099       -6.13926697212223       -8.52309550200194
H           -1.60376154524403       -6.68174913831418       -9.07043163972734
H           -0.94872334479875       -5.05888954048347      -10.65048669915062
H           -2.12312925332045       -4.23264110940253       -9.63984286191203
H           -0.34668337710406       -2.69514870951712       -9.98159095615626
H           -0.09450071902249       -3.26739194084869       -8.33623619005879
H            1.38198477752191       -4.28971287181885      -10.80268784076695
H            2.02631775786609       -3.17429166942240       -9.60191713037815
H            1.67063501321212       -4.83545729416739       -9.15072822592660
H           -5.93331130064234       -2.70366931975053       -8.09161965211404
H           -7.00757728764507       -4.11110540098410       -8.07682430995335
H           -6.32359451559038       -5.14742909262597       -5.26811623020862
H           -7.15311127435054       -4.50014462788896       -3.05808505186189
H           -8.01256371485614       -2.22028933622395       -2.66985251537662
H           -8.03447117915377       -0.58630888637884       -4.51995175222257
H           -7.18713738168177       -1.22227388547731       -6.73594161941345

          :  Hamiltonian                  GFN2-xTB          :
         :: total energy             -83.129335339023 Eh    ::
         :: gradient norm              0.000404811923 Eh/a0 ::
         :: HOMO-LUMO gap              2.457645310532 eV    ::
         :: SCC energy               -84.448050540694 Eh    ::
         :: -> dispersion             -0.069090623579 Eh    ::
         :: repulsion energy           1.318715201670 Eh    ::

    * Orbital Energies and Occupations

         #    Occupation            Energy/Eh            Energy/eV
      -------------------------------------------------------------
         1        2.0000           -0.8717641             -23.7219
       ...           ...                  ...                  ...
        66        2.0000           -0.5297799             -14.4160
        67        2.0000           -0.5262548             -14.3201
        68        2.0000           -0.5241404             -14.2626
        69        2.0000           -0.5204404             -14.1619
        70        2.0000           -0.5140954             -13.9892
        71        2.0000           -0.5129508             -13.9581
        72        2.0000           -0.5106054             -13.8943
        73        2.0000           -0.5022325             -13.6664
        74        2.0000           -0.4979637             -13.5503
        75        2.0000           -0.4942951             -13.4505
        76        2.0000           -0.4789066             -13.0317
        77        2.0000           -0.4752292             -12.9316
        78        2.0000           -0.4725692             -12.8593 (HOMO)
        79                         -0.3822524             -10.4016 (LUMO)
        80                         -0.3499499              -9.5226
        81                         -0.3359475              -9.1416
        82                         -0.3321876              -9.0393
        83                         -0.2064189              -5.6169
        84                         -0.1684650              -4.5842
        85                         -0.1145571              -3.1173
        86                         -0.0631368              -1.7180
        87                         -0.0572729              -1.5585
        88                         -0.0516836              -1.4064
        89                         -0.0397808              -1.0825
       ...                                ...                  ...
       155                          0.5539425              15.0735
      -------------------------------------------------------------
                  HL-Gap            0.0903168 Eh            2.4576 eV

     #   Z          covCN         q      C6AA      α(0)
     1   6 C        3.751    -0.103    22.526     6.768
     2   6 C        3.799    -0.053    21.524     6.606
     3   6 C        3.800    -0.058    21.621     6.620
     4   6 C        3.800    -0.058    21.611     6.619
     5   6 C        3.800    -0.058    21.614     6.619
     6   6 C        3.800    -0.060    21.649     6.625
     7   6 C        3.800    -0.060    21.654     6.626
     8   6 C        3.800    -0.057    21.606     6.618
     9   6 C        3.800    -0.063    21.701     6.633
    10   6 C        3.801    -0.065    21.751     6.640
    11   6 C        3.803    -0.073    21.902     6.663
    12   6 C        3.093     0.106    25.555     8.286
    13   7 N        2.874     0.036    20.609     6.742
    14   6 C        3.045    -0.009    28.188     8.708
    15   6 C        3.051    -0.011    28.236     8.715
    16   7 N        2.872     0.038    20.577     6.737
    17   6 C        3.742    -0.022    21.035     6.543
    18   6 C        3.802    -0.070    21.847     6.655
    19   6 C        3.801    -0.065    21.740     6.638
    20   6 C        3.799    -0.055    21.565     6.612
    21   6 C        3.752    -0.110    22.671     6.790
    22   6 C        3.747    -0.021    21.014     6.539
    23   6 C        2.970    -0.000    28.028     8.684
    24   6 C        2.922    -0.038    28.955     8.824
    25   6 C        2.920    -0.024    28.599     8.770
    26   6 C        2.920    -0.022    28.563     8.764
    27   6 C        2.920    -0.022    28.548     8.762
    28   6 C        2.923    -0.036    28.907     8.817
    29   1 H        0.925     0.033     2.542     2.493
    30   1 H        0.925     0.035     2.519     2.482
    31   1 H        0.925     0.036     2.504     2.474
    32   1 H        0.924     0.029     2.595     2.519
    33   1 H        0.924     0.030     2.581     2.512
    34   1 H        0.924     0.027     2.628     2.535
    35   1 H        0.924     0.032     2.554     2.499
    36   1 H        0.924     0.024     2.667     2.554
    37   1 H        0.924     0.036     2.503     2.474
    38   1 H        0.924     0.023     2.694     2.567
    39   1 H        0.924     0.038     2.479     2.462
    40   1 H        0.924     0.024     2.673     2.557
    41   1 H        0.924     0.042     2.427     2.436
    42   1 H        0.924     0.026     2.648     2.545
    43   1 H        0.924     0.044     2.399     2.422
    44   1 H        0.924     0.015     2.810     2.621
    45   1 H        0.924     0.045     2.389     2.417
    46   1 H        0.924     0.018     2.770     2.603
    47   1 H        0.925     0.055     2.253     2.347
    48   1 H        0.924     0.044     2.392     2.419
    49   1 H        0.925     0.068     2.107     2.270
    50   1 H        0.924     0.072     2.059     2.244
    51   1 H        0.925     0.084     1.936     2.176
    52   1 H        0.926     0.096     1.825     2.112
    53   1 H        0.927     0.096     1.824     2.112
    54   1 H        0.925     0.087     1.912     2.163
    55   1 H        0.924     0.078     1.997     2.210
    56   1 H        0.925     0.073     2.048     2.238
    57   1 H        0.924     0.050     2.324     2.384
    58   1 H        0.924     0.057     2.238     2.339
    59   1 H        0.924     0.021     2.720     2.579
    60   1 H        0.924     0.041     2.436     2.441
    61   1 H        0.924     0.023     2.690     2.565
    62   1 H        0.925     0.046     2.374     2.409
    63   1 H        0.925     0.048     2.348     2.396
    64   1 H        0.925     0.038     2.474     2.460
    65   1 H        0.924     0.079     1.992     2.207
    66   1 H        0.924     0.085     1.925     2.170
    67   1 H        0.926     0.028     2.618     2.530
    68   1 H        0.926     0.051     2.302     2.372
    69   1 H        0.926     0.057     2.237     2.339
    70   1 H        0.926     0.057     2.239     2.340
    71   1 H        0.926     0.042     2.420     2.433

Wiberg/Mayer (AO) data.
largest (>0.10) Wiberg bond orders for each atom

     #   Z sym  total        # sym  WBO       # sym  WBO       # sym  WBO
 ---------------------------------------------------------------------------
     1   6 C    3.997 --     2 C    1.020    31 H    0.987    30 H    0.987
                            29 H    0.986
     2   6 C    3.998 --     1 C    1.020     3 C    1.008    33 H    0.978
                            32 H    0.976
     3   6 C    3.997 --     2 C    1.008     4 C    1.008    35 H    0.977
                            34 H    0.976
     4   6 C    3.997 --     5 C    1.008     3 C    1.008    36 H    0.975
                            37 H    0.975
     5   6 C    3.997 --     4 C    1.008     6 C    1.008    38 H    0.976
                            39 H    0.974
     6   6 C    3.996 --     7 C    1.008     5 C    1.008    40 H    0.975
                            41 H    0.974
     7   6 C    3.996 --     6 C    1.008     8 C    1.007    42 H    0.974
                            43 H    0.973
     8   6 C    3.996 --     9 C    1.007     7 C    1.007    45 H    0.974
                            44 H    0.969
     9   6 C    3.994 --    10 C    1.009     8 C    1.007    46 H    0.976
                            47 H    0.970
    10   6 C    3.985 --     9 C    1.009    48 H    0.970    49 H    0.967
                            11 C    0.966
    11   6 C    3.980 --    12 C    1.031    10 C    0.966    51 H    0.955
                            50 H    0.952
    12   6 C    3.945 --    16 N    1.327    13 N    1.318    11 C    1.031
    13   7 N    3.689 --    12 C    1.318    14 C    1.208    22 C    0.973
    14   6 C    3.950 --    15 C    1.610    13 N    1.208    52 H    0.962
    15   6 C    3.950 --    14 C    1.610    16 N    1.208    53 H    0.963
    16   7 N    3.692 --    12 C    1.327    15 C    1.208    17 C    0.968
    17   6 C    3.940 --    18 C    0.987    16 N    0.968    55 H    0.963
                            54 H    0.955
    18   6 C    3.986 --    19 C    1.008    17 C    0.987    57 H    0.974
                            56 H    0.965
    19   6 C    3.994 --    18 C    1.008    20 C    1.007    59 H    0.976
                            58 H    0.973
    20   6 C    3.997 --    21 C    1.021    19 C    1.007    60 H    0.978
                            61 H    0.971
    21   6 C    3.994 --    20 C    1.021    62 H    0.986    63 H    0.986
                            64 H    0.984
    22   6 C    3.943 --    23 C    0.979    13 N    0.973    65 H    0.957
                            66 H    0.954
    23   6 C    3.980 --    24 C    1.414    28 C    1.409    22 C    0.979
                            26 C    0.109
    24   6 C    3.992 --    25 C    1.442    23 C    1.414    67 H    0.967
                            27 C    0.111
    25   6 C    3.991 --    24 C    1.442    26 C    1.440    68 H    0.970
                            28 C    0.111
    26   6 C    3.990 --    25 C    1.440    27 C    1.439    69 H    0.969
                            23 C    0.109
    27   6 C    3.989 --    28 C    1.443    26 C    1.439    70 H    0.969
                            24 C    0.111
    28   6 C    3.990 --    27 C    1.443    23 C    1.409    71 H    0.968
                            25 C    0.111
    29   1 H    0.999 --     1 C    0.986
    30   1 H    0.999 --     1 C    0.987
    31   1 H    0.999 --     1 C    0.987
    32   1 H    0.999 --     2 C    0.976
    33   1 H    0.999 --     2 C    0.978
    34   1 H    0.999 --     3 C    0.976
    35   1 H    0.999 --     3 C    0.977
    36   1 H    0.999 --     4 C    0.975
    37   1 H    0.999 --     4 C    0.975
    38   1 H    0.999 --     5 C    0.976
    39   1 H    0.999 --     5 C    0.974
    40   1 H    0.999 --     6 C    0.975
    41   1 H    0.998 --     6 C    0.974
    42   1 H    0.999 --     7 C    0.974
    43   1 H    0.998 --     7 C    0.973
    44   1 H    1.000 --     8 C    0.969
    45   1 H    0.998 --     8 C    0.974
    46   1 H    1.000 --     9 C    0.976
    47   1 H    0.997 --     9 C    0.970
    48   1 H    0.998 --    10 C    0.970
    49   1 H    0.994 --    10 C    0.967
    50   1 H    0.995 --    11 C    0.952
    51   1 H    0.993 --    11 C    0.955
    52   1 H    0.990 --    14 C    0.962
    53   1 H    0.991 --    15 C    0.963
    54   1 H    0.992 --    17 C    0.955
    55   1 H    0.993 --    17 C    0.963
    56   1 H    0.994 --    18 C    0.965
    57   1 H    0.997 --    18 C    0.974
    58   1 H    0.997 --    19 C    0.973
    59   1 H    1.000 --    19 C    0.976
    60   1 H    0.998 --    20 C    0.978
    61   1 H    0.999 --    20 C    0.971
    62   1 H    0.998 --    21 C    0.986
    63   1 H    0.998 --    21 C    0.986
    64   1 H    0.999 --    21 C    0.984
    65   1 H    0.993 --    22 C    0.957
    66   1 H    0.992 --    22 C    0.954
    67   1 H    0.999 --    24 C    0.967
    68   1 H    0.997 --    25 C    0.970
    69   1 H    0.996 --    26 C    0.969
    70   1 H    0.996 --    27 C    0.969
    71   1 H    0.998 --    28 C    0.968
 ---------------------------------------------------------------------------

molecular dipole:
                 x           y           z       tot (Debye)
 q only:       -7.098      -7.972     -13.218
   full:       -7.232      -8.128     -13.338      43.749

           -------------------------------------------------
          | TOTAL ENERGY              -83.129335339023 Eh   |
          | GRADIENT NORM               0.000404811923 Eh/α |
          | HOMO-LUMO GAP               2.457645310532 eV   |
           -------------------------------------------------

 * finished run on 2024/12/20 at 02:10:55.649
