   * xtb version 6.7.1 (edcfbbe) compiled by 'conda@3ef47c1a292c' on 2024-11-25

   ID    Z sym.   atoms
    1    6 C      1-3, 5, 8-20
    2    7 N      4, 6, 7
    3    1 H      21-40

          program call               : xtb C0227.xyz --opt --namespace C0227 --charge +1
          :  Hamiltonian                  GFN2-xTB          :
 * total energy  :   -55.0263120 Eh     change       -0.1334456E-08 Eh
 * total energy  :   -55.0305254 Eh     change       -0.4213399E-02 Eh
 * total energy  :   -55.0312111 Eh     change       -0.6856915E-03 Eh
 * total energy  :   -55.0314435 Eh     change       -0.2324118E-03 Eh
 * total energy  :   -55.0316850 Eh     change       -0.2414923E-03 Eh
 * total energy  :   -55.0318535 Eh     change       -0.1684698E-03 Eh
 * total energy  :   -55.0320225 Eh     change       -0.1690625E-03 Eh
 * total energy  :   -55.0321641 Eh     change       -0.1415492E-03 Eh
 * total energy  :   -55.0322614 Eh     change       -0.9729604E-04 Eh
 * total energy  :   -55.0323400 Eh     change       -0.7864974E-04 Eh
 * total energy  :   -55.0325261 Eh     change       -0.2623150E-04 Eh
 * total energy  :   -55.0325413 Eh     change       -0.1523910E-04 Eh
 * total energy  :   -55.0325590 Eh     change       -0.1764749E-04 Eh
 * total energy  :   -55.0325760 Eh     change       -0.1696347E-04 Eh
 * total energy  :   -55.0325856 Eh     change       -0.9634656E-05 Eh
 * total energy  :   -55.0325948 Eh     change       -0.9183529E-05 Eh
 * total energy  :   -55.0326013 Eh     change       -0.6481716E-05 Eh
 * total energy  :   -55.0326089 Eh     change       -0.7601522E-05 Eh
 * total energy  :   -55.0326133 Eh     change       -0.4442958E-05 Eh
   *** GEOMETRY OPTIMIZATION CONVERGED AFTER 22 ITERATIONS ***

 final structure:
================
40
 xtb: 6.7.1 (edcfbbe)
C            1.96743191253368       -0.09322563118229        0.16989626466790
C            0.66089267968106       -0.50611560644406        0.83633026730814
C            0.46644781971784        0.12766448488678        2.21719608921657
N            0.27944162102957        1.56093262563474        2.13725434153020
C            1.20914651076966        2.51824457227749        2.29455614681018
N            2.49436251229580        2.28597529329843        2.58943745597057
N            0.66279493353430        3.73626689080238        2.13875617986432
C           -0.69106190358205        3.56500384491415        1.86972453628189
C           -0.93135945867845        2.18375251849718        1.85873288171816
C           -2.19239846659332        1.67109061957228        1.60547289815645
C           -3.20389309111870        2.58268012449918        1.36265605230106
C           -2.96504684915719        3.95450546295158        1.36712710010643
C           -1.70725607169357        4.47132401051788        1.61966957872133
C            1.31347988773957        5.02066094418281        2.34088974758271
C            1.15260153444400        5.48818410579587        3.77000667611985
C            1.96439917651150        4.97771105625911        4.77592470581934
C            1.79243194391275        5.38275725821558        6.08767487899480
C            0.80581501083766        6.29978660327143        6.40789197882757
C           -0.00305413141179        6.81626989186377        5.41042750401625
C            0.16871484347182        6.41126457228120        4.09836212799458
H            2.00228591225294        0.98078103017934       -0.00328821266549
H            2.05922622297464       -0.58550689139457       -0.79372744860412
H            2.82348648260702       -0.38821858823837        0.77394536134576
H           -0.17798065042070       -0.22985017313313        0.19574641986665
H            0.64450191361734       -1.58894489756651        0.96038525618693
H           -0.42424909735891       -0.28832625358210        2.69337182526704
H            1.32108017595661       -0.08603285781823        2.86314862314928
H            2.86505462540448        1.35495291170540        2.50650852102562
H            3.14974521391258        3.04839035806815        2.60693246727614
H           -2.38400126714259        0.61091983172003        1.59356509396602
H           -4.19989528653317        2.22246725619060        1.16172735074653
H           -3.78071519253902        4.63074714694301        1.16812867300332
H           -1.53577854538664        5.53416276824663        1.61678381804709
H            2.37018386070804        4.93015934033072        2.07567173169223
H            0.85121553622542        5.73236626630571        1.65419756486136
H            2.74544481578026        4.26874633856378        4.54085231927578
H            2.43340263927752        4.98443567363311        6.85882942061101
H            0.67294222410276        6.61535094361104        7.43065568638357
H           -0.76796348027908        7.53764365851044        5.65166725817254
H           -0.45847651739977        6.83034249563665        3.32606085838574

          :  Hamiltonian                  GFN2-xTB          :
         :: total energy             -55.032613299052 Eh    ::
         :: gradient norm              0.000392101152 Eh/a0 ::
         :: HOMO-LUMO gap              3.620635731784 eV    ::
         :: SCC energy               -55.975101152735 Eh    ::
         :: -> dispersion             -0.041847022258 Eh    ::
         :: repulsion energy           0.942487853682 Eh    ::

    * Orbital Energies and Occupations

         #    Occupation            Energy/Eh            Energy/eV
      -------------------------------------------------------------
         1        2.0000           -0.8706214             -23.6908
       ...           ...                  ...                  ...
        39        2.0000           -0.5834210             -15.8757
        40        2.0000           -0.5771896             -15.7061
        41        2.0000           -0.5761463             -15.6777
        42        2.0000           -0.5656431             -15.3919
        43        2.0000           -0.5648065             -15.3692
        44        2.0000           -0.5631617             -15.3244
        45        2.0000           -0.5567925             -15.1511
        46        2.0000           -0.5356381             -14.5755
        47        2.0000           -0.5283394             -14.3768
        48        2.0000           -0.5247743             -14.2798
        49        2.0000           -0.5212902             -14.1850
        50        2.0000           -0.5121436             -13.9361
        51        2.0000           -0.5117190             -13.9246 (HOMO)
        52                         -0.3786630             -10.3039 (LUMO)
        53                         -0.3465767              -9.4308
        54                         -0.3389430              -9.2231
        55                         -0.3305327              -8.9943
        56                         -0.3302460              -8.9865
        57                         -0.2204861              -5.9997
        58                         -0.2093080              -5.6956
        59                         -0.1794200              -4.8823
        60                         -0.1376453              -3.7455
        61                         -0.1228199              -3.3421
        62                         -0.0589604              -1.6044
       ...                                ...                  ...
       100                          0.5614841              15.2788
      -------------------------------------------------------------
                  HL-Gap            0.1330559 Eh            3.6206 eV

     #   Z          covCN         q      C6AA      α(0)
     1   6 C        3.751    -0.112    22.712     6.796
     2   6 C        3.801    -0.068    21.794     6.647
     3   6 C        3.739    -0.015    20.914     6.525
     4   7 N        2.819    -0.026    21.750     6.927
     5   6 C        2.997     0.197    23.802     8.003
     6   7 N        2.638    -0.246    26.408     7.632
     7   7 N        2.820    -0.030    21.815     6.937
     8   6 C        3.089     0.039    27.032     8.522
     9   6 C        3.091     0.037    27.062     8.527
    10   6 C        2.910    -0.037    28.925     8.819
    11   6 C        2.926    -0.023    28.585     8.768
    12   6 C        2.926    -0.023    28.590     8.769
    13   6 C        2.911    -0.036    28.883     8.813
    14   6 C        3.744    -0.014    20.888     6.520
    15   6 C        2.970    -0.003    28.107     8.696
    16   6 C        2.924    -0.039    28.961     8.825
    17   6 C        2.919    -0.024    28.598     8.770
    18   6 C        2.920    -0.021    28.525     8.758
    19   6 C        2.919    -0.022    28.553     8.763
    20   6 C        2.924    -0.033    28.823     8.804
    21   1 H        0.925     0.032     2.555     2.500
    22   1 H        0.925     0.065     2.145     2.291
    23   1 H        0.925     0.040     2.445     2.445
    24   1 H        0.924     0.058     2.222     2.331
    25   1 H        0.925     0.068     2.111     2.272
    26   1 H        0.924     0.081     1.967     2.194
    27   1 H        0.924     0.066     2.132     2.283
    28   1 H        0.860     0.221     1.004     1.569
    29   1 H        0.860     0.217     1.023     1.585
    30   1 H        0.926     0.064     2.150     2.293
    31   1 H        0.926     0.073     2.054     2.241
    32   1 H        0.926     0.073     2.055     2.242
    33   1 H        0.926     0.064     2.152     2.294
    34   1 H        0.924     0.062     2.178     2.308
    35   1 H        0.924     0.083     1.949     2.183
    36   1 H        0.926     0.027     2.635     2.539
    37   1 H        0.926     0.051     2.301     2.372
    38   1 H        0.926     0.057     2.236     2.338
    39   1 H        0.926     0.055     2.255     2.348
    40   1 H        0.926     0.040     2.444     2.445

Wiberg/Mayer (AO) data.
largest (>0.10) Wiberg bond orders for each atom

     #   Z sym  total        # sym  WBO       # sym  WBO       # sym  WBO
 ---------------------------------------------------------------------------
     1   6 C    3.994 --     2 C    1.021    21 H    0.987    23 H    0.985
                            22 H    0.983
     2   6 C    3.988 --     1 C    1.021     3 C    0.992    24 H    0.974
                            25 H    0.971
     3   6 C    3.948 --     2 C    0.992     4 N    0.970    27 H    0.964
                            26 H    0.963
     4   7 N    3.601 --     5 C    1.268     9 C    1.088     3 C    0.970
     5   6 C    3.971 --     7 N    1.269     4 N    1.268     6 N    1.261
     6   7 N    3.348 --     5 C    1.261    29 H    0.924    28 H    0.923
     7   7 N    3.598 --     5 C    1.269     8 C    1.087    14 C    0.959
     8   6 C    3.950 --    13 C    1.367     9 C    1.288     7 N    1.087
     9   6 C    3.951 --    10 C    1.367     8 C    1.288     4 N    1.088
    10   6 C    3.986 --    11 C    1.465     9 C    1.367    30 H    0.964
                            13 C    0.114
    11   6 C    3.982 --    10 C    1.465    12 C    1.407    31 H    0.967
    12   6 C    3.982 --    13 C    1.465    11 C    1.407    32 H    0.967
    13   6 C    3.986 --    12 C    1.465     8 C    1.367    33 H    0.962
                            10 C    0.114
    14   6 C    3.945 --    15 C    0.985    35 H    0.962    34 H    0.960
                             7 N    0.959
    15   6 C    3.981 --    20 C    1.417    16 C    1.413    14 C    0.985
                            18 C    0.110
    16   6 C    3.992 --    17 C    1.445    15 C    1.413    36 H    0.967
                            19 C    0.111
    17   6 C    3.991 --    16 C    1.445    18 C    1.437    37 H    0.969
                            20 C    0.111
    18   6 C    3.989 --    19 C    1.441    17 C    1.437    38 H    0.969
                            15 C    0.110
    19   6 C    3.990 --    20 C    1.442    18 C    1.441    39 H    0.969
                            16 C    0.111
    20   6 C    3.991 --    19 C    1.442    15 C    1.417    40 H    0.966
                            17 C    0.111
    21   1 H    0.999 --     1 C    0.987
    22   1 H    0.996 --     1 C    0.983
    23   1 H    0.998 --     1 C    0.985
    24   1 H    0.997 --     2 C    0.974
    25   1 H    0.995 --     2 C    0.971
    26   1 H    0.993 --     3 C    0.963
    27   1 H    0.995 --     3 C    0.964
    28   1 H    0.950 --     6 N    0.923
    29   1 H    0.952 --     6 N    0.924
    30   1 H    0.995 --    10 C    0.964
    31   1 H    0.994 --    11 C    0.967
    32   1 H    0.994 --    12 C    0.967
    33   1 H    0.995 --    13 C    0.962
    34   1 H    0.995 --    14 C    0.960
    35   1 H    0.992 --    14 C    0.962
    36   1 H    0.999 --    16 C    0.967
    37   1 H    0.997 --    17 C    0.969
    38   1 H    0.996 --    18 C    0.969
    39   1 H    0.996 --    19 C    0.969
    40   1 H    0.998 --    20 C    0.966
 ---------------------------------------------------------------------------

molecular dipole:
                 x           y           z       tot (Debye)
 q only:        1.253       5.052       4.453
   full:        1.549       5.009       4.408      17.409

           -------------------------------------------------
          | TOTAL ENERGY              -55.032613299052 Eh   |
          | GRADIENT NORM               0.000392101152 Eh/α |
          | HOMO-LUMO GAP               3.620635731784 eV   |
           -------------------------------------------------

 * finished run on 2024/12/20 at 02:11:07.515
