   * xtb version 6.7.1 (edcfbbe) compiled by 'conda@3ef47c1a292c' on 2024-11-25

   ID    Z sym.   atoms
    1    6 C      1-4, 6, 8, 10
    2   16 S      5
    3    7 N      7, 9
    4    1 H      11-27

          program call               : xtb C0224.xyz --opt --namespace C0224 --charge +1
          :  Hamiltonian                  GFN2-xTB          :
 * total energy  :   -32.3420432 Eh     change       -0.2473968E-09 Eh
 * total energy  :   -32.3454740 Eh     change       -0.3430859E-02 Eh
 * total energy  :   -32.3464557 Eh     change       -0.9816361E-03 Eh
 * total energy  :   -32.3468087 Eh     change       -0.3530222E-03 Eh
 * total energy  :   -32.3472830 Eh     change       -0.4743254E-03 Eh
 * total energy  :   -32.3477406 Eh     change       -0.4576057E-03 Eh
 * total energy  :   -32.3483368 Eh     change       -0.5961685E-03 Eh
 * total energy  :   -32.3490676 Eh     change       -0.7308365E-03 Eh
 * total energy  :   -32.3497824 Eh     change       -0.7148321E-03 Eh
 * total energy  :   -32.3504142 Eh     change       -0.6317219E-03 Eh
 * total energy  :   -32.3571321 Eh     change       -0.3430464E-04 Eh
 * total energy  :   -32.3571474 Eh     change       -0.1530411E-04 Eh
 * total energy  :   -32.3571517 Eh     change       -0.4357556E-05 Eh
 * total energy  :   -32.3571777 Eh     change       -0.2593012E-04 Eh
 * total energy  :   -32.3571842 Eh     change       -0.6561170E-05 Eh
 * total energy  :   -32.3571921 Eh     change       -0.7890414E-05 Eh
 * total energy  :   -32.3571911 Eh     change        0.9846466E-06 Eh
 * total energy  :   -32.3571971 Eh     change       -0.5951554E-05 Eh
 * total energy  :   -32.3572002 Eh     change       -0.3078147E-05 Eh
   *** GEOMETRY OPTIMIZATION CONVERGED AFTER 67 ITERATIONS ***

 final structure:
================
27
 xtb: 6.7.1 (edcfbbe)
C            0.92380469459166        0.07735943065756        0.57074546904521
C            0.01946226401214       -1.14540396399502        0.51865777156100
C            0.21445814489926       -2.14297713426577        1.65859160870292
C           -0.71377527925446       -3.34203271445095        1.49924401801668
S            0.51121650471748        1.24439609012830        1.92411211395076
C            1.49444112659728        0.80955149526190        3.28918691630631
N            2.31829541425349       -0.22895713006328        3.27624866595699
C            3.17125880940056       -0.61639277818016        4.38195523072924
N            1.39633827646705        1.59444918866357        4.35004130804519
C            0.54711975373084        2.76214733423673        4.40922392480050
H            0.76244884118801        0.69059367990511       -0.31743773736385
H            1.98419208297056       -0.16818142248593        0.62037002136980
H           -1.02123363198756       -0.81617138598422        0.50602687777295
H            0.21287949148084       -1.65022924385575       -0.43065937021437
H            1.24844221264222       -2.50346945538167        1.66374616982719
H            0.00274273275718       -1.65981483866803        2.61698888946576
H           -0.51497423094122       -3.85793350329835        0.56354240559023
H           -0.56835386415794       -4.04464393870461        2.31512562348998
H           -1.75293818932663       -3.02383245186793        1.50193391201664
H            2.28355380249193       -0.85447670484052        2.48397305048601
H            2.58213794156243       -0.91497620652599        5.25200778775097
H            3.77539962332186       -1.46352894218621        4.07082146227315
H            3.84238799416658        0.19869552445064        4.65785143219628
H            1.95320520309411        1.38219116405191        5.16526898283009
H            0.59641440515369        3.18634132398683        5.40764886297039
H            0.87114101311542        3.51286402513620        3.68552416712247
H           -0.48770513694154        2.49452255827613        4.18723043530088

          :  Hamiltonian                  GFN2-xTB          :
         :: total energy             -32.357200170186 Eh    ::
         :: gradient norm              0.000776391530 Eh/a0 ::
         :: HOMO-LUMO gap              3.700738188287 eV    ::
         :: SCC energy               -32.789001237582 Eh    ::
         :: -> dispersion             -0.019449522184 Eh    ::
         :: repulsion energy           0.431801067396 Eh    ::

    * Orbital Energies and Occupations

         #    Occupation            Energy/Eh            Energy/eV
      -------------------------------------------------------------
         1        2.0000           -0.8929851             -24.2994
       ...           ...                  ...                  ...
        18        2.0000           -0.6418246             -17.4649
        19        2.0000           -0.6392137             -17.3939
        20        2.0000           -0.6346152             -17.2688
        21        2.0000           -0.6280511             -17.0901
        22        2.0000           -0.6225260             -16.9398
        23        2.0000           -0.6101039             -16.6018
        24        2.0000           -0.5916626             -16.1000
        25        2.0000           -0.5746111             -15.6360
        26        2.0000           -0.5740167             -15.6198
        27        2.0000           -0.5674114             -15.4401
        28        2.0000           -0.5546165             -15.0919
        29        2.0000           -0.5487327             -14.9318
        30        2.0000           -0.5404022             -14.7051 (HOMO)
        31                         -0.4044026             -11.0044 (LUMO)
        32                         -0.3546193              -9.6497
        33                         -0.3171336              -8.6296
        34                         -0.1859768              -5.0607
        35                         -0.1768178              -4.8115
        36                         -0.1637303              -4.4553
        37                         -0.1203112              -3.2738
        38                         -0.1180055              -3.2111
        39                         -0.0627988              -1.7088
        40                         -0.0536060              -1.4587
        41                         -0.0408626              -1.1119
       ...                                ...                  ...
        62                          0.3579311               9.7398
      -------------------------------------------------------------
                  HL-Gap            0.1359996 Eh            3.7007 eV

     #   Z          covCN         q      C6AA      α(0)
     1   6 C        3.793    -0.031    21.129     6.546
     2   6 C        3.822    -0.071    21.850     6.652
     3   6 C        3.799    -0.054    21.552     6.610
     4   6 C        3.753    -0.112    22.711     6.796
     5  16 S        2.079    -0.009   141.416    20.015
     6   6 C        2.811     0.162    24.486     8.107
     7   7 N        2.722    -0.125    23.721     7.234
     8   6 C        3.689    -0.070    22.040     6.719
     9   7 N        2.765    -0.100    23.191     7.152
    10   6 C        3.697    -0.076    22.138     6.730
    11   1 H        0.925     0.091     1.868     2.137
    12   1 H        0.925     0.064     2.156     2.296
    13   1 H        0.924     0.067     2.121     2.277
    14   1 H        0.924     0.071     2.073     2.252
    15   1 H        0.924     0.027     2.630     2.536
    16   1 H        0.924     0.027     2.622     2.532
    17   1 H        0.925     0.051     2.310     2.377
    18   1 H        0.925     0.051     2.302     2.373
    19   1 H        0.925     0.050     2.319     2.381
    20   1 H        0.860     0.218     1.021     1.583
    21   1 H        0.924     0.082     1.957     2.188
    22   1 H        0.925     0.099     1.794     2.095
    23   1 H        0.924     0.083     1.945     2.181
    24   1 H        0.860     0.214     1.037     1.595
    25   1 H        0.925     0.100     1.788     2.091
    26   1 H        0.924     0.095     1.830     2.115
    27   1 H        0.924     0.096     1.820     2.110

Wiberg/Mayer (AO) data.
largest (>0.10) Wiberg bond orders for each atom

     #   Z sym  total        # sym  WBO       # sym  WBO       # sym  WBO
 ---------------------------------------------------------------------------
     1   6 C    3.953 --     2 C    1.011     5 S    0.967    12 H    0.961
                            11 H    0.959
     2   6 C    3.986 --     1 C    1.011     3 C    1.008    13 H    0.972
                            14 H    0.960
     3   6 C    3.998 --     4 C    1.016     2 C    1.008    16 H    0.977
                            15 H    0.971
     4   6 C    3.991 --     3 C    1.016    17 H    0.986    19 H    0.986
                            18 H    0.985
     5  16 S    2.438 --     6 C    1.165     1 C    0.967
     6   6 C    3.973 --     9 N    1.368     7 N    1.346     5 S    1.165
     7   7 N    3.499 --     6 C    1.346     8 C    0.989    20 H    0.904
                             9 N    0.125
     8   6 C    3.945 --     7 N    0.989    22 H    0.977    23 H    0.970
                            21 H    0.968
     9   7 N    3.529 --     6 C    1.368    10 C    0.995    24 H    0.916
                             7 N    0.125
    10   6 C    3.938 --     9 N    0.995    25 H    0.977    27 H    0.964
                            26 H    0.964
    11   1 H    0.991 --     1 C    0.959
    12   1 H    0.996 --     1 C    0.961
    13   1 H    0.995 --     2 C    0.972
    14   1 H    0.994 --     2 C    0.960
    15   1 H    0.999 --     3 C    0.971
    16   1 H    0.999 --     3 C    0.977
    17   1 H    0.997 --     4 C    0.986
    18   1 H    0.997 --     4 C    0.985
    19   1 H    0.997 --     4 C    0.986
    20   1 H    0.953 --     7 N    0.904
    21   1 H    0.993 --     8 C    0.968
    22   1 H    0.990 --     8 C    0.977
    23   1 H    0.993 --     8 C    0.970
    24   1 H    0.954 --     9 N    0.916
    25   1 H    0.990 --    10 C    0.977
    26   1 H    0.991 --    10 C    0.964
    27   1 H    0.991 --    10 C    0.964
 ---------------------------------------------------------------------------

molecular dipole:
                 x           y           z       tot (Debye)
 q only:        2.898       0.763       6.105
   full:        3.143       0.518       5.997      17.259

           -------------------------------------------------
          | TOTAL ENERGY              -32.357200170186 Eh   |
          | GRADIENT NORM               0.000776391530 Eh/α |
          | HOMO-LUMO GAP               3.700738188287 eV   |
           -------------------------------------------------

 * finished run on 2024/12/20 at 02:11:01.885
