   * xtb version 6.7.1 (edcfbbe) compiled by 'conda@3ef47c1a292c' on 2024-11-25

   ID    Z sym.   atoms
    1    6 C      1-3, 5, 7, 8, 10, 11, 13-16
    2    8 O      4, 12
    3    7 N      6, 9
    4    1 H      17-39

          program call               : xtb C0228.xyz --opt --namespace C0228 --charge +1
          :  Hamiltonian                  GFN2-xTB          :
 * total energy  :   -51.0109190 Eh     change       -0.2736442E-09 Eh
 * total energy  :   -51.0178741 Eh     change       -0.6955072E-02 Eh
 * total energy  :   -51.0195809 Eh     change       -0.1706801E-02 Eh
 * total energy  :   -51.0199224 Eh     change       -0.3414909E-03 Eh
 * total energy  :   -51.0201689 Eh     change       -0.2465000E-03 Eh
 * total energy  :   -51.0202878 Eh     change       -0.1188983E-03 Eh
 * total energy  :   -51.0204451 Eh     change       -0.1573744E-03 Eh
 * total energy  :   -51.0206649 Eh     change       -0.2197346E-03 Eh
 * total energy  :   -51.0209091 Eh     change       -0.2442015E-03 Eh
 * total energy  :   -51.0211415 Eh     change       -0.2324671E-03 Eh
 * total energy  :   -51.0253788 Eh     change       -0.1660028E-04 Eh
 * total energy  :   -51.0253940 Eh     change       -0.1517556E-04 Eh
 * total energy  :   -51.0254046 Eh     change       -0.1062912E-04 Eh
 * total energy  :   -51.0254122 Eh     change       -0.7640015E-05 Eh
 * total energy  :   -51.0254179 Eh     change       -0.5660251E-05 Eh
 * total energy  :   -51.0254236 Eh     change       -0.5720138E-05 Eh
 * total energy  :   -51.0254289 Eh     change       -0.5319892E-05 Eh
 * total energy  :   -51.0254342 Eh     change       -0.5282106E-05 Eh
 * total energy  :   -51.0254379 Eh     change       -0.3680822E-05 Eh
   *** GEOMETRY OPTIMIZATION CONVERGED AFTER 111 ITERATIONS ***

 final structure:
================
39
 xtb: 6.7.1 (edcfbbe)
C           -1.31836752653822       -0.71810160543755        1.80728603548706
C           -1.34189988672465        0.79438303613737        1.99657494333915
C            0.04632518248217        1.43124199109309        1.98412036527554
O            0.66351695788291        1.34883366245143        0.68780625119356
C            1.61814469227093        0.38960854558797        0.51041781482399
N            2.95272020636422        0.91391667839295        0.88110436446843
C            3.99272210998558        0.21886567998193        1.42222449647342
C            5.02402950384585        1.09448421396627        1.57743537328744
N            4.59218678044560        2.30899252273647        1.13592059248961
C            3.33781243647628        2.17447089413751        0.71588633841237
C            5.35932894307232        3.56818341651037        1.07863398808544
O            5.19833592604740        4.18288482925203       -0.13515261732686
C            5.95734056161466        3.65227708614709       -1.23074970041098
C            7.47300537395437        3.82820764751806       -1.07398587885956
C            8.23251769000660        2.53178440697439       -0.77355449066616
C            8.31801286115828        1.61449821258580       -1.98794097537457
H           -0.94710719613449       -0.98150113631728        0.81921766529602
H           -2.32530531025255       -1.11433046533076        1.89978246435339
H           -0.69862561300855       -1.19697842820193        2.56371917101907
H           -1.93660471373102        1.25138512108104        1.20553948800552
H           -1.80588252715932        1.03670072811670        2.95333316747488
H           -0.03953872308900        2.49897328319281        2.20155270134182
H            0.69205836507391        0.96792277337992        2.73828069171234
H            1.45943472960610       -0.52106225895653        1.10219861646120
H            1.64853370244650        0.13650280822782       -0.55770502195009
H            3.93406882272735       -0.82593139153374        1.64992544247374
H            6.00737882685308        0.93685479756065        1.97157164718726
H            2.73175722541382        2.95914957054345        0.30444297230926
H            4.95632783262194        4.24857205936746        1.83837949555873
H            6.40135205861292        3.32166987705667        1.31811886341078
H            5.69885967499429        2.59632978093966       -1.37866204831107
H            5.58571247358727        4.22120495530060       -2.08274919329860
H            7.87684016893316        4.25072286375604       -1.99359942603822
H            7.65059565455353        4.56225448560999       -0.28489828985435
H            9.24513648988462        2.79204979429307       -0.46160359280290
H            7.76466162514380        1.99041434146447        0.05405155290935
H            8.82281674406886        2.12033218086350       -2.80623808431429
H            8.88139667547165        0.71762097214246       -1.74399994862830
H            7.33101120105064        1.31378206950981       -2.33272523497707

          :  Hamiltonian                  GFN2-xTB          :
         :: total energy             -51.025437912721 Eh    ::
         :: gradient norm              0.000318648539 Eh/a0 ::
         :: HOMO-LUMO gap              3.193346832581 eV    ::
         :: SCC energy               -51.672983524750 Eh    ::
         :: -> dispersion             -0.029468847450 Eh    ::
         :: repulsion energy           0.647545612029 Eh    ::

    * Orbital Energies and Occupations

         #    Occupation            Energy/Eh            Energy/eV
      -------------------------------------------------------------
         1        2.0000           -0.8999315             -24.4884
       ...           ...                  ...                  ...
        34        2.0000           -0.6004023             -16.3378
        35        2.0000           -0.5924220             -16.1206
        36        2.0000           -0.5870491             -15.9744
        37        2.0000           -0.5797048             -15.7746
        38        2.0000           -0.5744712             -15.6322
        39        2.0000           -0.5685713             -15.4716
        40        2.0000           -0.5540401             -15.0762
        41        2.0000           -0.5523535             -15.0303
        42        2.0000           -0.5434301             -14.7875
        43        2.0000           -0.5386937             -14.6586
        44        2.0000           -0.5379023             -14.6371
        45        2.0000           -0.5348698             -14.5545
        46        2.0000           -0.5286113             -14.3842 (HOMO)
        47                         -0.4112579             -11.1909 (LUMO)
        48                         -0.3768151             -10.2537
        49                         -0.2091107              -5.6902
        50                         -0.1594683              -4.3394
        51                         -0.1276281              -3.4729
        52                         -0.1163396              -3.1658
        53                         -0.0529508              -1.4409
        54                         -0.0499905              -1.3603
        55                         -0.0455923              -1.2406
        56                         -0.0293306              -0.7981
        57                         -0.0271804              -0.7396
       ...                                ...                  ...
        87                          0.4545627              12.3693
      -------------------------------------------------------------
                  HL-Gap            0.1173533 Eh            3.1933 eV

     #   Z          covCN         q      C6AA      α(0)
     1   6 C        3.751    -0.109    22.649     6.787
     2   6 C        3.799    -0.070    21.836     6.653
     3   6 C        3.690     0.064    19.682     6.349
     4   8 O        1.700    -0.286    18.744     5.845
     5   6 C        3.630     0.125    18.924     6.264
     6   7 N        2.869     0.030    20.715     6.760
     7   6 C        3.067    -0.003    28.040     8.683
     8   6 C        3.067    -0.001    27.973     8.672
     9   7 N        2.869     0.034    20.653     6.750
    10   6 C        3.090     0.073    26.273     8.402
    11   6 C        3.633     0.122    18.953     6.267
    12   8 O        1.701    -0.289    18.802     5.854
    13   6 C        3.691     0.062    19.721     6.355
    14   6 C        3.800    -0.079    22.012     6.680
    15   6 C        3.799    -0.056    21.585     6.615
    16   6 C        3.752    -0.111    22.690     6.793
    17   1 H        0.925     0.039     2.465     2.455
    18   1 H        0.925     0.059     2.207     2.323
    19   1 H        0.925     0.036     2.504     2.474
    20   1 H        0.925     0.066     2.133     2.284
    21   1 H        0.924     0.058     2.218     2.329
    22   1 H        0.924     0.064     2.155     2.296
    23   1 H        0.924     0.032     2.557     2.500
    24   1 H        0.924     0.083     1.950     2.184
    25   1 H        0.923     0.098     1.799     2.098
    26   1 H        0.926     0.109     1.706     2.043
    27   1 H        0.926     0.109     1.704     2.041
    28   1 H        0.926     0.136     1.493     1.910
    29   1 H        0.924     0.099     1.798     2.097
    30   1 H        0.924     0.083     1.952     2.185
    31   1 H        0.924     0.031     2.566     2.505
    32   1 H        0.925     0.080     1.983     2.202
    33   1 H        0.925     0.065     2.140     2.287
    34   1 H        0.924     0.054     2.276     2.359
    35   1 H        0.924     0.050     2.315     2.379
    36   1 H        0.924     0.015     2.813     2.623
    37   1 H        0.925     0.051     2.306     2.375
    38   1 H        0.925     0.048     2.347     2.396
    39   1 H        0.925     0.030     2.583     2.513

Wiberg/Mayer (AO) data.
largest (>0.10) Wiberg bond orders for each atom

     #   Z sym  total        # sym  WBO       # sym  WBO       # sym  WBO
 ---------------------------------------------------------------------------
     1   6 C    3.994 --     2 C    1.021    17 H    0.987    19 H    0.987
                            18 H    0.984
     2   6 C    3.990 --     1 C    1.021     3 C    1.002    20 H    0.974
                            21 H    0.971
     3   6 C    3.924 --     2 C    1.002    23 H    0.973    22 H    0.971
                             4 O    0.935
     4   8 O    2.131 --     5 C    1.066     3 C    0.935
     5   6 C    3.929 --     4 O    1.066    24 H    0.951    25 H    0.944
                             6 N    0.911
     6   7 N    3.698 --    10 C    1.375     7 C    1.224     5 C    0.911
     7   6 C    3.946 --     8 C    1.595     6 N    1.224    26 H    0.961
     8   6 C    3.948 --     7 C    1.595     9 N    1.226    27 H    0.960
     9   7 N    3.699 --    10 C    1.369     8 C    1.226    11 C    0.917
    10   6 C    3.943 --     6 N    1.375     9 N    1.369    28 H    0.949
    11   6 C    3.928 --    12 O    1.056    30 H    0.950    29 H    0.947
                             9 N    0.917
    12   8 O    2.127 --    11 C    1.056    13 C    0.941
    13   6 C    3.924 --    14 C    0.999    31 H    0.970    32 H    0.970
                            12 O    0.941
    14   6 C    3.990 --    15 C    1.007    13 C    0.999    33 H    0.973
                            34 H    0.972
    15   6 C    3.996 --    16 C    1.021    14 C    1.007    35 H    0.977
                            36 H    0.975
    16   6 C    3.994 --    15 C    1.021    37 H    0.986    38 H    0.986
                            39 H    0.985
    17   1 H    0.998 --     1 C    0.987
    18   1 H    0.996 --     1 C    0.984
    19   1 H    0.999 --     1 C    0.987
    20   1 H    0.996 --     2 C    0.974
    21   1 H    0.996 --     2 C    0.971
    22   1 H    0.996 --     3 C    0.971
    23   1 H    0.999 --     3 C    0.973
    24   1 H    0.993 --     5 C    0.951
    25   1 H    0.990 --     5 C    0.944
    26   1 H    0.988 --     7 C    0.961
    27   1 H    0.987 --     8 C    0.960
    28   1 H    0.982 --    10 C    0.949
    29   1 H    0.990 --    11 C    0.947
    30   1 H    0.993 --    11 C    0.950
    31   1 H    0.999 --    13 C    0.970
    32   1 H    0.994 --    13 C    0.970
    33   1 H    0.996 --    14 C    0.973
    34   1 H    0.997 --    14 C    0.972
    35   1 H    0.997 --    15 C    0.977
    36   1 H    1.000 --    15 C    0.975
    37   1 H    0.997 --    16 C    0.986
    38   1 H    0.998 --    16 C    0.986
    39   1 H    0.999 --    16 C    0.985
 ---------------------------------------------------------------------------

molecular dipole:
                 x           y           z       tot (Debye)
 q only:        7.241       2.691       1.926
   full:        7.379       2.501       2.085      20.500

           -------------------------------------------------
          | TOTAL ENERGY              -51.025437912721 Eh   |
          | GRADIENT NORM               0.000318648539 Eh/α |
          | HOMO-LUMO GAP               3.193346832581 eV   |
           -------------------------------------------------

 * finished run on 2024/12/20 at 02:11:09.831
