   * xtb version 6.7.1 (edcfbbe) compiled by 'conda@3ef47c1a292c' on 2024-11-25

   ID    Z sym.   atoms
    1    8 O      1, 10, 11, 23, 24
    2    6 C      2-8, 12, 14, 16-21, 25
    3    7 N      9, 13, 15, 22
    4    1 H      26-38

          program call               : xtb C0223.xyz --opt --namespace C0223 --charge +1
          :  Hamiltonian                  GFN2-xTB          :
 * total energy  :   -72.3049059 Eh     change       -0.7796928E-09 Eh
 * total energy  :   -72.3181806 Eh     change       -0.1327473E-01 Eh
 * total energy  :   -72.3205484 Eh     change       -0.2367754E-02 Eh
 * total energy  :   -72.3206202 Eh     change       -0.7185777E-04 Eh
 * total energy  :   -72.3213641 Eh     change       -0.7438984E-03 Eh
 * total energy  :   -72.3215900 Eh     change       -0.2258900E-03 Eh
 * total energy  :   -72.3217747 Eh     change       -0.1847078E-03 Eh
 * total energy  :   -72.3218854 Eh     change       -0.1106432E-03 Eh
 * total energy  :   -72.3220070 Eh     change       -0.1216695E-03 Eh
 * total energy  :   -72.3221629 Eh     change       -0.1558940E-03 Eh
 * total energy  :   -72.3228035 Eh     change       -0.8997113E-05 Eh
 * total energy  :   -72.3228104 Eh     change       -0.6871876E-05 Eh
 * total energy  :   -72.3228190 Eh     change       -0.8593749E-05 Eh
 * total energy  :   -72.3228315 Eh     change       -0.1247451E-04 Eh
 * total energy  :   -72.3228473 Eh     change       -0.1586507E-04 Eh
 * total energy  :   -72.3228643 Eh     change       -0.1698047E-04 Eh
 * total energy  :   -72.3228775 Eh     change       -0.1315754E-04 Eh
 * total energy  :   -72.3228854 Eh     change       -0.7907055E-05 Eh
 * total energy  :   -72.3228902 Eh     change       -0.4848387E-05 Eh
   *** GEOMETRY OPTIMIZATION CONVERGED AFTER 41 ITERATIONS ***

 final structure:
================
38
 xtb: 6.7.1 (edcfbbe)
O            0.29741344967414       -1.69932181413889       -0.37414372915918
C            1.45348052021875       -1.39077870594740       -0.40837797928002
C            2.53003121557746       -2.14244140691947        0.27558722884945
C            3.66600429934258       -1.51782012994423        0.79499617862052
C            4.64072580477890       -2.27078368868565        1.41831210624642
C            4.47857450124118       -3.64658754349855        1.51497214966825
C            3.34207829272106       -4.28070588825735        1.03317752511120
C            2.36517920296257       -3.52304463348743        0.41704643542603
N            5.53457739376625       -4.43610965545567        2.13897736794174
O            6.57535328078575       -3.86400752284142        2.36176224640073
O            5.29455129950936       -5.59436121370441        2.36431729197637
C            1.89212038273577       -0.15329433293807       -1.23632106722343
N            3.14231714766027       -0.34485946717572       -1.92192294900382
C            4.18284969845226        0.48365967954820       -1.95568010234254
N            5.17981432109212       -0.01406662471591       -2.67921451733808
C            4.78180749500624       -1.24497014363707       -3.15249860717825
C            3.47376612909851       -1.45729476382157       -2.66739282593061
C            2.77746654742230       -2.62212448062111       -2.95571125925517
C            3.44645950673517       -3.54942518975969       -3.73166943563108
C            4.73811627855796       -3.34565556084276       -4.23047459094949
C            5.42851761889473       -2.18702490918168       -3.94851994174065
N            2.76751681648225       -4.81588608026297       -4.02874774467550
O            1.75956557843615       -5.03535122165775       -3.40600632853762
O            3.27858758416768       -5.52587919672263       -4.85186469627753
C            6.45270728051904        0.60449235006689       -2.93626426477982
H            3.77038058821162       -0.44400110254261        0.76279989088502
H            5.52363681815557       -1.81506234638443        1.84090799235934
H            3.23776785658516       -5.34872671874693        1.15148751619863
H            1.46889939746457       -3.98732199176356        0.03477249155300
H            1.09180974832573        0.04070942383919       -1.95917853932799
H            1.96302176369237        0.70933200413033       -0.56910901640407
H            4.21181779784350        1.44108413335094       -1.46701898074645
H            1.77323608819845       -2.82190313449598       -2.61517510370819
H            5.17704706040087       -4.12182400349539       -4.84040985271216
H            6.42324490154894       -2.02372025693450       -4.32803476080826
H            6.51249672423279        1.55953581076034       -2.41976474925166
H            7.25857228948568       -0.04231786946820       -2.58718399169447
H            6.57829732001593        0.77022819633687       -4.00722138728179

          :  Hamiltonian                  GFN2-xTB          :
         :: total energy             -72.322890219325 Eh    ::
         :: gradient norm              0.000466829997 Eh/a0 ::
         :: HOMO-LUMO gap              2.122751026022 eV    ::
         :: SCC energy               -73.241270556448 Eh    ::
         :: -> dispersion             -0.044438842312 Eh    ::
         :: repulsion energy           0.918380337123 Eh    ::

    * Orbital Energies and Occupations

         #    Occupation            Energy/Eh            Energy/eV
      -------------------------------------------------------------
         1        2.0000           -0.9219503             -25.0875
       ...           ...                  ...                  ...
        51        2.0000           -0.6158144             -16.7572
        52        2.0000           -0.6018222             -16.3764
        53        2.0000           -0.5937554             -16.1569
        54        2.0000           -0.5900231             -16.0553
        55        2.0000           -0.5775174             -15.7150
        56        2.0000           -0.5752398             -15.6531
        57        2.0000           -0.5729881             -15.5918
        58        2.0000           -0.5715544             -15.5528
        59        2.0000           -0.5660177             -15.4021
        60        2.0000           -0.5640473             -15.3485
        61        2.0000           -0.5555128             -15.1163
        62        2.0000           -0.5537779             -15.0691
        63        2.0000           -0.5412779             -14.7289 (HOMO)
        64                         -0.4632682             -12.6062 (LUMO)
        65                         -0.4452593             -12.1161
        66                         -0.4396505             -11.9635
        67                         -0.4063914             -11.0585
        68                         -0.4005809             -10.9004
        69                         -0.3837526             -10.4424
        70                         -0.3813670             -10.3775
        71                         -0.3439785              -9.3601
        72                         -0.2774536              -7.5499
        73                         -0.2450878              -6.6692
        74                         -0.2113268              -5.7505
       ...                                ...                  ...
       113                          0.5309383              14.4476
      -------------------------------------------------------------
                  HL-Gap            0.0780097 Eh            2.1228 eV

     #   Z          covCN         q      C6AA      α(0)
     1   8 O        0.857    -0.284    19.498     5.920
     2   6 C        2.817     0.232    23.150     7.883
     3   6 C        2.971    -0.011    28.278     8.723
     4   6 C        2.921    -0.031    28.785     8.798
     5   6 C        2.917    -0.022    28.544     8.761
     6   6 C        2.917     0.015    27.678     8.627
     7   6 C        2.915    -0.014    28.360     8.733
     8   6 C        2.926    -0.012    28.315     8.726
     9   7 N        2.758     0.554    13.434     5.444
    10   8 O        0.930    -0.366    20.974     6.142
    11   8 O        0.929    -0.347    20.615     6.089
    12   6 C        3.739    -0.053    21.615     6.634
    13   7 N        2.823     0.047    20.424     6.712
    14   6 C        3.075     0.063    26.513     8.442
    15   7 N        2.824     0.058    20.234     6.681
    16   6 C        3.120     0.043    26.870     8.490
    17   6 C        3.127     0.042    26.875     8.488
    18   6 C        2.908    -0.029    28.736     8.790
    19   6 C        2.923     0.013    27.713     8.633
    20   6 C        2.924    -0.014    28.374     8.735
    21   6 C        2.909    -0.026    28.649     8.777
    22   7 N        2.757     0.563    13.345     5.426
    23   8 O        0.930    -0.353    20.728     6.106
    24   8 O        0.929    -0.335    20.392     6.056
    25   6 C        3.691    -0.085    22.325     6.761
    26   1 H        0.926     0.047     2.353     2.399
    27   1 H        0.926     0.095     1.829     2.115
    28   1 H        0.926     0.109     1.709     2.044
    29   1 H        0.926     0.095     1.833     2.117
    30   1 H        0.924     0.121     1.604     1.981
    31   1 H        0.924     0.107     1.720     2.051
    32   1 H        0.926     0.119     1.624     1.993
    33   1 H        0.926     0.114     1.661     2.015
    34   1 H        0.926     0.125     1.574     1.962
    35   1 H        0.926     0.097     1.809     2.103
    36   1 H        0.925     0.103     1.756     2.072
    37   1 H        0.924     0.110     1.695     2.036
    38   1 H        0.924     0.111     1.688     2.032

Wiberg/Mayer (AO) data.
largest (>0.10) Wiberg bond orders for each atom

     #   Z sym  total        # sym  WBO       # sym  WBO       # sym  WBO
 ---------------------------------------------------------------------------
     1   8 O    2.138 --     2 C    1.892
     2   6 C    3.932 --     1 O    1.892     3 C    1.023    12 C    0.926
     3   6 C    3.988 --     8 C    1.377     4 C    1.375     2 C    1.023
     4   6 C    3.990 --     5 C    1.461     3 C    1.375    26 H    0.967
                             7 C    0.105
     5   6 C    3.984 --     4 C    1.461     6 C    1.388    27 H    0.957
                             8 C    0.106
     6   6 C    3.971 --     7 C    1.397     5 C    1.388     9 N    0.936
     7   6 C    3.979 --     8 C    1.450     6 C    1.397    28 H    0.954
                             4 C    0.105
     8   6 C    3.982 --     7 C    1.450     3 C    1.377    29 H    0.961
                             5 C    0.106
     9   7 N    3.916 --    11 O    1.480    10 O    1.462     6 C    0.936
    10   8 O    1.955 --     9 N    1.462    11 O    0.385
    11   8 O    1.975 --     9 N    1.480    10 O    0.385
    12   6 C    3.934 --    13 N    0.982    31 H    0.946    30 H    0.943
                             2 C    0.926
    13   7 N    3.689 --    14 C    1.363    17 C    1.130    12 C    0.982
                            15 N    0.100
    14   6 C    3.947 --    15 N    1.372    13 N    1.363    32 H    0.950
    15   7 N    3.697 --    14 C    1.372    16 C    1.139    25 C    0.988
                            13 N    0.100
    16   6 C    3.957 --    21 C    1.334    17 C    1.268    15 N    1.139
    17   6 C    3.958 --    18 C    1.345    16 C    1.268    13 N    1.130
    18   6 C    3.980 --    19 C    1.452    17 C    1.345    33 H    0.948
                            21 C    0.118
    19   6 C    3.975 --    18 C    1.452    20 C    1.346    22 N    0.928
    20   6 C    3.975 --    21 C    1.498    19 C    1.346    34 H    0.951
    21   6 C    3.982 --    20 C    1.498    16 C    1.334    35 H    0.959
                            18 C    0.118
    22   7 N    3.920 --    24 O    1.487    23 O    1.470    19 C    0.928
    23   8 O    1.968 --    22 N    1.470    24 O    0.391
    24   8 O    1.985 --    22 N    1.487    23 O    0.391
    25   6 C    3.928 --    15 N    0.988    36 H    0.974    37 H    0.961
                            38 H    0.960
    26   1 H    0.997 --     4 C    0.967
    27   1 H    0.990 --     5 C    0.957
    28   1 H    0.988 --     7 C    0.954
    29   1 H    0.990 --     8 C    0.961
    30   1 H    0.984 --    12 C    0.943
    31   1 H    0.988 --    12 C    0.946
    32   1 H    0.985 --    14 C    0.950
    33   1 H    0.986 --    18 C    0.948
    34   1 H    0.984 --    20 C    0.951
    35   1 H    0.989 --    21 C    0.959
    36   1 H    0.989 --    25 C    0.974
    37   1 H    0.987 --    25 C    0.961
    38   1 H    0.987 --    25 C    0.960
 ---------------------------------------------------------------------------

molecular dipole:
                 x           y           z       tot (Debye)
 q only:        8.585       0.826      -4.752
   full:        8.665       1.267      -4.643      25.194

           -------------------------------------------------
          | TOTAL ENERGY              -72.322890219325 Eh   |
          | GRADIENT NORM               0.000466829997 Eh/α |
          | HOMO-LUMO GAP               2.122751026022 eV   |
           -------------------------------------------------

 * finished run on 2024/12/20 at 02:11:00.920
