   * xtb version 6.7.1 (edcfbbe) compiled by 'conda@3ef47c1a292c' on 2024-11-25

   ID    Z sym.   atoms
    1   35 Br     1, 25
    2    6 C      2-8, 10, 12, 13, 15-17, 19-24
    3    8 O      9, 18
    4    7 N      11, 14
    5    1 H      26-40

          program call               : xtb C0225.xyz --opt --namespace C0225 --charge +1
          :  Hamiltonian                  GFN2-xTB          :
 * total energy  :   -70.0414288 Eh     change       -0.1309303E-08 Eh
 * total energy  :   -70.0515541 Eh     change       -0.1012528E-01 Eh
 * total energy  :   -70.0541590 Eh     change       -0.2604938E-02 Eh
 * total energy  :   -70.0546197 Eh     change       -0.4606983E-03 Eh
 * total energy  :   -70.0548505 Eh     change       -0.2308462E-03 Eh
 * total energy  :   -70.0549837 Eh     change       -0.1332081E-03 Eh
 * total energy  :   -70.0551093 Eh     change       -0.1255237E-03 Eh
 * total energy  :   -70.0552418 Eh     change       -0.1325134E-03 Eh
 * total energy  :   -70.0553873 Eh     change       -0.1455147E-03 Eh
 * total energy  :   -70.0555765 Eh     change       -0.1891869E-03 Eh
 * total energy  :   -70.0692123 Eh     change       -0.2206773E-04 Eh
 * total energy  :   -70.0692307 Eh     change       -0.1835740E-04 Eh
 * total energy  :   -70.0692430 Eh     change       -0.1228682E-04 Eh
 * total energy  :   -70.0692531 Eh     change       -0.1008915E-04 Eh
 * total energy  :   -70.0692612 Eh     change       -0.8100594E-05 Eh
 * total energy  :   -70.0692665 Eh     change       -0.5312145E-05 Eh
 * total energy  :   -70.0692748 Eh     change       -0.8283383E-05 Eh
 * total energy  :   -70.0692799 Eh     change       -0.5154467E-05 Eh
 * total energy  :   -70.0692845 Eh     change       -0.4567082E-05 Eh
   *** GEOMETRY OPTIMIZATION CONVERGED AFTER 99 ITERATIONS ***

 final structure:
================
40
 xtb: 6.7.1 (edcfbbe)
Br          -0.79099460376266       -1.96128454123836       -0.74952153561279
C            0.94563088468766       -1.22407778558985       -0.57531486007011
C            1.13822455240594       -0.10211140311163        0.21788792127733
C            2.41339765416320        0.39718747387570        0.37490745493628
C            3.50607165195233       -0.23060280762120       -0.23171569162861
C            3.28359463666482       -1.33271570598363       -1.06016482689840
C            2.00734484975866       -1.82359218458163       -1.23887310200758
C            4.84004181239559        0.30721504103053        0.07239339217613
O            5.06988715976062        1.45099613270493        0.35482160752422
C            5.98638459912628       -0.74960165516393        0.16001474854928
N            5.70565795184579       -1.60923278409255        1.27690153711304
C            5.92038464737498       -1.28089984311443        2.58395617623941
C            5.38288975713418       -2.27181687591577        3.34495381784726
N            4.85484571556877       -3.19664702168244        2.49338590347360
C            5.04700629939824       -2.76496546125582        1.24614448145454
C            3.99620242649605       -4.29402654698534        2.82841211601720
C            2.58550245310121       -3.99446584272765        2.24029905377710
O            2.46506366902912       -3.03782237637425        1.50481787521857
C            1.50716889134795       -4.90580260038082        2.59237186222704
C            1.67964518468923       -6.05055440388503        3.38258442114906
C            0.61012798127286       -6.87588779092648        3.65181955347634
C           -0.64880024391484       -6.57142776724140        3.13911285914252
C           -0.84112259573023       -5.43913211798343        2.35429728375075
C            0.23005456434836       -4.61815430189279        2.08579129701946
Br          -2.10643784158144       -7.71382564829428        3.51448898549725
H            0.30026098938115        0.36934934343546        0.70717299500997
H            2.58890781775806        1.26701745533573        0.98957261949850
H            4.09503267859673       -1.78767159485442       -1.60822843145630
H            1.83102426589898       -2.67175757210431       -1.88199715651233
H            6.05570191694352       -1.33120251239338       -0.75851055667557
H            6.92310970544028       -0.21481094834619        0.33119954050088
H            6.42620623074068       -0.38248976359049        2.87467639256859
H            5.34886977200826       -2.37935404779126        4.40980272150564
H            4.74167449851410       -3.28409250371720        0.36002358471854
H            4.36464726577848       -5.22274148573720        2.38317352292319
H            3.94991535697422       -4.40136382846063        3.91218736000450
H            2.64523948527883       -6.31140743113412        3.78610165166204
H            0.74150298473274       -7.75915229844848        4.25720508720521
H           -1.81804123696057       -5.21081179823886        1.95866618290389
H            0.09990621137001       -3.73705219555806        1.47735215450661

          :  Hamiltonian                  GFN2-xTB          :
         :: total energy             -70.069284494264 Eh    ::
         :: gradient norm              0.000528545863 Eh/a0 ::
         :: HOMO-LUMO gap              2.150334572467 eV    ::
         :: SCC energy               -71.062232369644 Eh    ::
         :: -> dispersion             -0.050424990536 Eh    ::
         :: repulsion energy           0.992947875379 Eh    ::

    * Orbital Energies and Occupations

         #    Occupation            Energy/Eh            Energy/eV
      -------------------------------------------------------------
         1        2.0000           -0.9331262             -25.3917
       ...           ...                  ...                  ...
        51        2.0000           -0.5701228             -15.5138
        52        2.0000           -0.5615370             -15.2802
        53        2.0000           -0.5588557             -15.2072
        54        2.0000           -0.5556177             -15.1191
        55        2.0000           -0.5542943             -15.0831
        56        2.0000           -0.5465331             -14.8719
        57        2.0000           -0.5435866             -14.7917
        58        2.0000           -0.5387726             -14.6607
        59        2.0000           -0.5293476             -14.4043
        60        2.0000           -0.5092537             -13.8575
        61        2.0000           -0.5080454             -13.8246
        62        2.0000           -0.5053391             -13.7510
        63        2.0000           -0.5040814             -13.7168 (HOMO)
        64                         -0.4250580             -11.5664 (LUMO)
        65                         -0.4139837             -11.2651
        66                         -0.4007348             -10.9045
        67                         -0.3682909             -10.0217
        68                         -0.3593290              -9.7778
        69                         -0.3558516              -9.6832
        70                         -0.3348492              -9.1117
        71                         -0.3336110              -9.0780
        72                         -0.3023628              -8.2277
        73                         -0.2994043              -8.1472
        74                         -0.2279683              -6.2033
       ...                                ...                  ...
       125                          0.5500126              14.9666
      -------------------------------------------------------------
                  HL-Gap            0.0790233 Eh            2.1503 eV

     #   Z          covCN         q      C6AA      α(0)
     1  35 Br       1.074    -0.116   188.241    22.122
     2   6 C        2.918     0.102    25.742     8.320
     3   6 C        2.990    -0.024    28.590     8.771
     4   6 C        2.930    -0.011    28.284     8.722
     5   6 C        2.970    -0.017    28.438     8.747
     6   6 C        2.922    -0.025    28.631     8.775
     7   6 C        2.994    -0.024    28.592     8.771
     8   6 C        2.820     0.230    23.184     7.889
     9   8 O        0.857    -0.303    19.841     5.972
    10   6 C        3.741    -0.054    21.621     6.634
    11   7 N        2.869     0.069    20.031     6.647
    12   6 C        3.069    -0.006    28.090     8.690
    13   6 C        3.064    -0.007    28.119     8.696
    14   7 N        2.871     0.072    19.985     6.640
    15   6 C        3.092     0.056    26.642     8.460
    16   6 C        3.744    -0.051    21.565     6.625
    17   6 C        2.823     0.228    23.221     7.896
    18   8 O        0.857    -0.373    21.155     6.167
    19   6 C        2.969    -0.019    28.490     8.755
    20   6 C        2.920    -0.026    28.641     8.776
    21   6 C        2.992    -0.027    28.673     8.784
    22   6 C        2.915     0.104    25.707     8.314
    23   6 C        2.988    -0.026    28.634     8.778
    24   6 C        2.929    -0.009    28.243     8.715
    25  35 Br       1.072    -0.083   187.317    22.067
    26   1 H        0.926     0.079     1.992     2.207
    27   1 H        0.926     0.078     2.002     2.213
    28   1 H        0.926     0.047     2.352     2.398
    29   1 H        0.926     0.072     2.063     2.246
    30   1 H        0.925     0.096     1.824     2.112
    31   1 H        0.924     0.112     1.678     2.026
    32   1 H        0.926     0.115     1.656     2.012
    33   1 H        0.926     0.106     1.730     2.057
    34   1 H        0.926     0.116     1.646     2.007
    35   1 H        0.924     0.103     1.762     2.076
    36   1 H        0.925     0.104     1.747     2.067
    37   1 H        0.926     0.055     2.260     2.351
    38   1 H        0.926     0.082     1.957     2.187
    39   1 H        0.926     0.089     1.891     2.150
    40   1 H        0.926     0.088     1.900     2.155

Wiberg/Mayer (AO) data.
largest (>0.10) Wiberg bond orders for each atom

     #   Z sym  total        # sym  WBO       # sym  WBO       # sym  WBO
 ---------------------------------------------------------------------------
     1  35 Br   1.170 --     2 C    1.018
     2   6 C    3.948 --     3 C    1.395     7 C    1.387     1 Br   1.018
     3   6 C    3.987 --     4 C    1.462     2 C    1.395    26 H    0.964
     4   6 C    3.985 --     3 C    1.462     5 C    1.358    27 H    0.963
     5   6 C    3.987 --     6 C    1.364     4 C    1.358     8 C    1.049
     6   6 C    3.990 --     7 C    1.468     5 C    1.364    28 H    0.963
     7   6 C    3.989 --     6 C    1.468     2 C    1.387    29 H    0.965
     8   6 C    3.926 --     9 O    1.870     5 C    1.049    10 C    0.904
     9   8 O    2.126 --     8 C    1.870
    10   6 C    3.935 --    11 N    0.983    31 H    0.960    30 H    0.955
                             8 C    0.904
    11   7 N    3.711 --    15 C    1.352    12 C    1.213    10 C    0.983
    12   6 C    3.946 --    13 C    1.602    11 N    1.213    32 H    0.960
    13   6 C    3.946 --    12 C    1.602    14 N    1.213    33 H    0.961
    14   7 N    3.707 --    15 C    1.339    13 C    1.213    16 C    0.996
    15   6 C    3.945 --    11 N    1.352    14 N    1.339    34 H    0.952
    16   6 C    3.947 --    14 N    0.996    36 H    0.955    35 H    0.943
                            17 C    0.923
    17   6 C    3.918 --    18 O    1.783    19 C    1.093    16 C    0.923
    18   8 O    2.075 --    17 C    1.783
    19   6 C    3.983 --    20 C    1.340    24 C    1.336    17 C    1.093
    20   6 C    3.990 --    21 C    1.488    19 C    1.340    37 H    0.964
    21   6 C    3.987 --    20 C    1.488    22 C    1.370    38 H    0.964
    22   6 C    3.950 --    23 C    1.380    21 C    1.370    25 Br   1.047
    23   6 C    3.985 --    24 C    1.478    22 C    1.380    39 H    0.962
    24   6 C    3.982 --    23 C    1.478    19 C    1.336    40 H    0.958
    25  35 Br   1.208 --    22 C    1.047
    26   1 H    0.993 --     3 C    0.964
    27   1 H    0.994 --     4 C    0.963
    28   1 H    0.998 --     6 C    0.963
    29   1 H    0.994 --     7 C    0.965
    30   1 H    0.990 --    10 C    0.955
    31   1 H    0.987 --    10 C    0.960
    32   1 H    0.987 --    12 C    0.960
    33   1 H    0.988 --    13 C    0.961
    34   1 H    0.987 --    15 C    0.952
    35   1 H    0.989 --    16 C    0.943
    36   1 H    0.988 --    16 C    0.955
    37   1 H    0.997 --    20 C    0.964
    38   1 H    0.993 --    21 C    0.964
    39   1 H    0.991 --    23 C    0.962
    40   1 H    0.992 --    24 C    0.958
 ---------------------------------------------------------------------------

molecular dipole:
                 x           y           z       tot (Debye)
 q only:        8.190      -6.316       3.855
   full:        8.713      -6.259       3.726      28.866

           -------------------------------------------------
          | TOTAL ENERGY              -70.069284494264 Eh   |
          | GRADIENT NORM               0.000528545863 Eh/α |
          | HOMO-LUMO GAP               2.150334572467 eV   |
           -------------------------------------------------

 * finished run on 2024/12/20 at 02:11:05.779
