   * xtb version 6.7.1 (edcfbbe) compiled by 'conda@3ef47c1a292c' on 2024-11-25

   ID    Z sym.   atoms
    1    8 O      1
    2    6 C      2-4, 6-13, 15-23
    3    7 N      5, 14
    4    1 H      24-46

          program call               : xtb C0229.xyz --opt --namespace C0229 --charge +1
          :  Hamiltonian                  GFN2-xTB          :
 * total energy  :   -64.0944125 Eh     change       -0.2171589E-08 Eh
 * total energy  :   -64.1006396 Eh     change       -0.6227085E-02 Eh
 * total energy  :   -64.1015633 Eh     change       -0.9237564E-03 Eh
 * total energy  :   -64.1017371 Eh     change       -0.1737419E-03 Eh
 * total energy  :   -64.1018947 Eh     change       -0.1576454E-03 Eh
 * total energy  :   -64.1019664 Eh     change       -0.7164486E-04 Eh
 * total energy  :   -64.1020569 Eh     change       -0.9058277E-04 Eh
 * total energy  :   -64.1021233 Eh     change       -0.6633125E-04 Eh
 * total energy  :   -64.1021705 Eh     change       -0.4721010E-04 Eh
 * total energy  :   -64.1022044 Eh     change       -0.3386638E-04 Eh
 * total energy  :   -64.1026585 Eh     change       -0.2548411E-04 Eh
 * total energy  :   -64.1026827 Eh     change       -0.2412794E-04 Eh
 * total energy  :   -64.1027060 Eh     change       -0.2336888E-04 Eh
 * total energy  :   -64.1027259 Eh     change       -0.1983093E-04 Eh
 * total energy  :   -64.1027342 Eh     change       -0.8304911E-05 Eh
 * total energy  :   -64.1027409 Eh     change       -0.6757911E-05 Eh
 * total energy  :   -64.1027547 Eh     change       -0.1375519E-04 Eh
 * total energy  :   -64.1027616 Eh     change       -0.6883824E-05 Eh
 * total energy  :   -64.1027662 Eh     change       -0.4622508E-05 Eh
   *** GEOMETRY OPTIMIZATION CONVERGED AFTER 45 ITERATIONS ***

 final structure:
================
46
 xtb: 6.7.1 (edcfbbe)
O            1.21173236739158       -0.92102270675721        0.15238438267592
C            0.71763587768903        0.28495736353185        0.68635652166933
C            1.15504699124979        0.35771437041495        2.15841358156172
C            2.63539292622811        0.25998449362337        2.27387736426001
N            3.49433325559578        1.32408444339877        2.19053523452439
C            3.17139554212554        2.73372619917052        2.08185883553532
C            3.58745526302147        3.46481469177377        3.33841685876030
C            3.03032702331961        3.10805254211119        4.56082390934391
C            3.41158866132428        3.76366197294975        5.71748971444505
C            4.35007208954440        4.78088939478939        5.66082620150965
C            4.90797876831259        5.13892572090541        4.44559098018935
C            4.53206960752867        4.47947940116817        3.28745524944693
C            4.73766459990099        0.86448968719380        2.29663536530571
N            4.71194830334511       -0.45839182888045        2.43371777831631
C            3.40642208355799       -0.87053618216903        2.40880160864449
C            2.98181066367920       -2.28577728068262        2.51302103695546
C            5.90214091536483       -1.28040590782505        2.52817453550543
C            6.74262882356472       -1.13834296743271        1.27956413218011
C            6.18827311097467       -1.42689871255669        0.03804496595370
C            6.94890847286698       -1.29654391489780       -1.10989595193251
C            8.26724189515011       -0.87955233801680       -1.02596305212032
C            8.82221818804127       -0.58975110743268        0.20828088885873
C            8.06098148721167       -0.71387666813965        1.35832840530617
H            0.83812154600941       -1.06267436729889       -0.72384856806853
H            1.11907922420905        1.14375861407513        0.12798742773917
H           -0.37727361294321        0.32132209275985        0.64095237680096
H            0.78091895289153        1.28049397298921        2.60083245305134
H            0.70928434043379       -0.48293481313428        2.68967566539942
H            3.69454528993601        3.14730114034854        1.21566384447556
H            2.09751526086844        2.83419869044788        1.91757098781059
H            2.29383352308880        2.31840439661935        4.60856736419525
H            2.97178803068108        3.48401676011099        6.66202447683326
H            4.64305549529706        5.29517521694437        6.56250810458978
H            5.63694855400416        5.93242878336383        4.39631648653526
H            4.96650116698659        4.76493120817282        2.34024718675421
H            5.62396419921123        1.46655822361217        2.27367061059556
H            3.62186175922555       -2.93087013662527        1.91571832250375
H            3.01315241366556       -2.62962990774857        3.54704582748916
H            1.96853093576044       -2.38328649579068        2.13683386218174
H            6.47615031928553       -0.97042219123373        3.40565172729886
H            5.59400549640925       -2.31797000825826        2.66725932472991
H            5.16117802968398       -1.75606359789105       -0.03221844195533
H            6.51366167345701       -1.52648525434096       -2.07009747489568
H            8.86115145963324       -0.78379425355852       -1.92130220205474
H            9.84862432129964       -0.26612462001142        0.27866333730754
H            8.49877470392015       -0.49070411979008        2.32040875378814

          :  Hamiltonian                  GFN2-xTB          :
         :: total energy             -64.102766185316 Eh    ::
         :: gradient norm              0.000759282189 Eh/a0 ::
         :: HOMO-LUMO gap              3.518266490501 eV    ::
         :: SCC energy               -65.160318691897 Eh    ::
         :: -> dispersion             -0.047020732922 Eh    ::
         :: repulsion energy           1.057552506581 Eh    ::

    * Orbital Energies and Occupations

         #    Occupation            Energy/Eh            Energy/eV
      -------------------------------------------------------------
         1        2.0000           -0.8656354             -23.5551
       ...           ...                  ...                  ...
        47        2.0000           -0.5805259             -15.7969
        48        2.0000           -0.5777058             -15.7202
        49        2.0000           -0.5691718             -15.4880
        50        2.0000           -0.5351043             -14.5609
        51        2.0000           -0.5318360             -14.4720
        52        2.0000           -0.5296657             -14.4129
        53        2.0000           -0.5282321             -14.3739
        54        2.0000           -0.5269095             -14.3379
        55        2.0000           -0.5256938             -14.3049
        56        2.0000           -0.5124790             -13.9453
        57        2.0000           -0.5112590             -13.9121
        58        2.0000           -0.5099048             -13.8752
        59        2.0000           -0.5085520             -13.8384 (HOMO)
        60                         -0.3792581             -10.3201 (LUMO)
        61                         -0.3399149              -9.2496
        62                         -0.3343764              -9.0988
        63                         -0.3314657              -9.0196
        64                         -0.3302713              -8.9871
        65                         -0.3278376              -8.9209
        66                         -0.2072938              -5.6408
        67                         -0.2033305              -5.5329
        68                         -0.1496471              -4.0721
        69                         -0.1174628              -3.1963
        70                         -0.0677436              -1.8434
       ...                                ...                  ...
       115                          0.5591627              15.2156
      -------------------------------------------------------------
                  HL-Gap            0.1292939 Eh            3.5183 eV

     #   Z          covCN         q      C6AA      α(0)
     1   8 O        1.656    -0.442    21.676     6.285
     2   6 C        3.676     0.084    19.402     6.311
     3   6 C        3.803    -0.070    21.831     6.652
     4   6 C        3.106     0.036    27.061     8.523
     5   7 N        2.861     0.039    20.560     6.735
     6   6 C        3.749    -0.024    21.066     6.546
     7   6 C        2.972    -0.004    28.122     8.699
     8   6 C        2.923    -0.038    28.947     8.823
     9   6 C        2.919    -0.024    28.595     8.769
    10   6 C        2.920    -0.022    28.546     8.762
    11   6 C        2.920    -0.022    28.562     8.764
    12   6 C        2.923    -0.037    28.909     8.817
    13   6 C        3.074     0.045    26.912     8.506
    14   7 N        2.864     0.039    20.563     6.735
    15   6 C        3.097     0.045    26.881     8.497
    16   6 C        3.754    -0.127    22.993     6.837
    17   6 C        3.749    -0.026    21.094     6.551
    18   6 C        2.972    -0.003    28.106     8.696
    19   6 C        2.923    -0.039    28.961     8.825
    20   6 C        2.919    -0.024    28.607     8.771
    21   6 C        2.920    -0.022    28.562     8.764
    22   6 C        2.920    -0.023    28.570     8.765
    23   6 C        2.923    -0.037    28.916     8.818
    24   1 H        0.805     0.304     0.710     1.323
    25   1 H        0.923     0.027     2.624     2.533
    26   1 H        0.924     0.044     2.398     2.422
    27   1 H        0.925     0.067     2.120     2.277
    28   1 H        0.925     0.087     1.908     2.160
    29   1 H        0.924     0.079     1.987     2.205
    30   1 H        0.924     0.085     1.926     2.171
    31   1 H        0.926     0.031     2.568     2.506
    32   1 H        0.926     0.052     2.289     2.366
    33   1 H        0.926     0.057     2.236     2.338
    34   1 H        0.926     0.056     2.251     2.346
    35   1 H        0.926     0.041     2.437     2.441
    36   1 H        0.926     0.099     1.792     2.093
    37   1 H        0.925     0.080     1.979     2.200
    38   1 H        0.925     0.079     1.988     2.205
    39   1 H        0.925     0.099     1.796     2.096
    40   1 H        0.924     0.079     1.989     2.206
    41   1 H        0.924     0.091     1.870     2.139
    42   1 H        0.926     0.035     2.513     2.479
    43   1 H        0.926     0.051     2.307     2.375
    44   1 H        0.926     0.056     2.252     2.347
    45   1 H        0.926     0.055     2.262     2.352
    46   1 H        0.926     0.041     2.438     2.442

Wiberg/Mayer (AO) data.
largest (>0.10) Wiberg bond orders for each atom

     #   Z sym  total        # sym  WBO       # sym  WBO       # sym  WBO
 ---------------------------------------------------------------------------
     1   8 O    1.953 --     2 C    1.004    24 H    0.893
     2   6 C    3.960 --     1 O    1.004     3 C    0.979    25 H    0.970
                            26 H    0.970
     3   6 C    3.989 --     4 C    1.025     2 C    0.979    28 H    0.962
                            27 H    0.961
     4   6 C    3.947 --    15 C    1.502     5 N    1.193     3 C    1.025
     5   7 N    3.695 --    13 C    1.354     4 C    1.193     6 C    0.961
     6   6 C    3.941 --     7 C    0.984     5 N    0.961    29 H    0.960
                            30 H    0.957
     7   6 C    3.979 --    12 C    1.419     8 C    1.411     6 C    0.984
                            10 C    0.109
     8   6 C    3.992 --     9 C    1.448     7 C    1.411    31 H    0.969
                            11 C    0.112
     9   6 C    3.991 --     8 C    1.448    10 C    1.435    32 H    0.969
                            12 C    0.110
    10   6 C    3.990 --    11 C    1.443     9 C    1.435    33 H    0.969
                             7 C    0.109
    11   6 C    3.990 --    10 C    1.443    12 C    1.438    34 H    0.969
                             8 C    0.112
    12   6 C    3.990 --    11 C    1.438     7 C    1.419    35 H    0.968
                             9 C    0.110
    13   6 C    3.948 --     5 N    1.354    14 N    1.350    36 H    0.957
    14   7 N    3.695 --    13 C    1.350    15 C    1.196    17 C    0.962
    15   6 C    3.949 --     4 C    1.502    14 N    1.196    16 C    1.041
    16   6 C    3.982 --    15 C    1.041    39 H    0.968    37 H    0.963
                            38 H    0.957
    17   6 C    3.940 --    18 C    0.985    14 N    0.962    40 H    0.958
                            41 H    0.955
    18   6 C    3.980 --    23 C    1.419    19 C    1.411    17 C    0.985
                            21 C    0.109
    19   6 C    3.992 --    20 C    1.448    18 C    1.411    42 H    0.969
                            22 C    0.112
    20   6 C    3.991 --    19 C    1.448    21 C    1.435    43 H    0.970
                            23 C    0.110
    21   6 C    3.990 --    22 C    1.443    20 C    1.435    44 H    0.969
                            18 C    0.109
    22   6 C    3.990 --    21 C    1.443    23 C    1.438    45 H    0.969
                            19 C    0.112
    23   6 C    3.990 --    22 C    1.438    18 C    1.419    46 H    0.968
                            20 C    0.110
    24   1 H    0.908 --     1 O    0.893
    25   1 H    0.999 --     2 C    0.970
    26   1 H    0.997 --     2 C    0.970
    27   1 H    0.995 --     3 C    0.961
    28   1 H    0.992 --     3 C    0.962
    29   1 H    0.993 --     6 C    0.960
    30   1 H    0.992 --     6 C    0.957
    31   1 H    0.999 --     8 C    0.969
    32   1 H    0.997 --     9 C    0.969
    33   1 H    0.996 --    10 C    0.969
    34   1 H    0.996 --    11 C    0.969
    35   1 H    0.998 --    12 C    0.968
    36   1 H    0.989 --    13 C    0.957
    37   1 H    0.993 --    16 C    0.963
    38   1 H    0.993 --    16 C    0.957
    39   1 H    0.990 --    16 C    0.968
    40   1 H    0.993 --    17 C    0.958
    41   1 H    0.991 --    17 C    0.955
    42   1 H    0.999 --    19 C    0.969
    43   1 H    0.997 --    20 C    0.970
    44   1 H    0.996 --    21 C    0.969
    45   1 H    0.996 --    22 C    0.969
    46   1 H    0.998 --    23 C    0.968
 ---------------------------------------------------------------------------

molecular dipole:
                 x           y           z       tot (Debye)
 q only:        7.525       1.045       4.099
   full:        7.411       1.193       3.930      21.537

           -------------------------------------------------
          | TOTAL ENERGY              -64.102766185316 Eh   |
          | GRADIENT NORM               0.000759282189 Eh/α |
          | HOMO-LUMO GAP               3.518266490501 eV   |
           -------------------------------------------------

 * finished run on 2024/12/20 at 02:11:11.929
