   * xtb version 6.7.1 (edcfbbe) compiled by 'conda@3ef47c1a292c' on 2024-11-25

   ID    Z sym.   atoms
    1    6 C      1-8, 10-19
    2    7 N      9
    3    1 H      20-43

          program call               : xtb C0221.xyz --opt --namespace C0221 --charge +1
          :  Hamiltonian                  GFN2-xTB          :
 * total energy  :   -53.2672872 Eh     change       -0.5553886E-09 Eh
 * total energy  :   -53.2764855 Eh     change       -0.9198244E-02 Eh
 * total energy  :   -53.2789370 Eh     change       -0.2451526E-02 Eh
 * total energy  :   -53.2795487 Eh     change       -0.6116738E-03 Eh
 * total energy  :   -53.2803087 Eh     change       -0.7600399E-03 Eh
 * total energy  :   -53.2809949 Eh     change       -0.6861512E-03 Eh
 * total energy  :   -53.2819147 Eh     change       -0.9198021E-03 Eh
 * total energy  :   -53.2831712 Eh     change       -0.1256541E-02 Eh
 * total energy  :   -53.2845975 Eh     change       -0.1426278E-02 Eh
 * total energy  :   -53.2860975 Eh     change       -0.1499991E-02 Eh
 * total energy  :   -53.3029229 Eh     change       -0.1489744E-04 Eh
 * total energy  :   -53.3029344 Eh     change       -0.1143160E-04 Eh
 * total energy  :   -53.3029449 Eh     change       -0.1047817E-04 Eh
 * total energy  :   -53.3029518 Eh     change       -0.6937236E-05 Eh
 * total energy  :   -53.3029604 Eh     change       -0.8601272E-05 Eh
 * total energy  :   -53.3029664 Eh     change       -0.5972830E-05 Eh
 * total energy  :   -53.3029725 Eh     change       -0.6098294E-05 Eh
 * total energy  :   -53.3029780 Eh     change       -0.5560859E-05 Eh
 * total energy  :   -53.3029828 Eh     change       -0.4724384E-05 Eh
   *** GEOMETRY OPTIMIZATION CONVERGED AFTER 117 ITERATIONS ***

 final structure:
================
43
 xtb: 6.7.1 (edcfbbe)
C            2.70617557147692        0.81728640731141        0.23307386689907
C            1.24340801194684        0.48054634986187        0.26072876179683
C            0.88950561531035       -0.81105188744306        0.64516171596332
C           -0.42890828139233       -1.20986201659646        0.73851048233397
C           -1.43915712442320       -0.30013638744733        0.47419815089849
C           -1.10922678130174        0.98348704134902        0.08899591476469
C            0.22067854564706        1.38283094495982       -0.05464429155638
C            0.48551863793077        2.80475048955546       -0.48090964374342
N            0.50105751783765        3.02947005463436       -1.96582304907185
C            0.80103607308743        4.47770629694547       -2.24698457781501
C           -0.18101185271369        5.45947028579697       -1.65736161208073
C           -1.31955754768341        5.76643412568973       -2.40486350114929
C           -2.27063766597974        6.65264794027488       -1.94132341236039
C           -2.08617530904518        7.26402998916369       -0.71252313442816
C           -0.94161471426559        7.00230086773482        0.01365966668398
C            0.03122459111271        6.11252720055404       -0.43742995891063
C            1.25186520715131        5.93512793780593        0.41826931620989
C            1.55032539205195        2.20991292019631       -2.59264275933656
C           -0.79489225175321        2.65459329938778       -2.55274137905897
H            2.90455090287124        1.86089507398599        0.46295583005477
H            3.22564786818526        0.21514012001390        0.97371496303311
H            3.14708245974026        0.58289242007601       -0.73518651563693
H            1.67386176628334       -1.51255753913909        0.88505585705553
H           -0.66813556238234       -2.21747167287234        1.03876986266773
H           -2.47405171016600       -0.58438760788670        0.57715092718119
H           -1.90012749674706        1.69905513341945       -0.08428250946830
H           -0.29628458745526        3.45208562667452       -0.07810031821805
H            1.44909060174906        3.14158055998288       -0.10024833150517
H            0.80755556587971        4.59320928099499       -3.33343502842201
H            1.80831252938574        4.67613944900974       -1.87912268688858
H           -1.45299353708768        5.32017337166546       -3.37972415515030
H           -3.14101927158856        6.87219375082766       -2.53844118972999
H           -2.81886211989660        7.95872004131777       -0.33398950592054
H           -0.78427159135530        7.50570524300313        0.95538118204339
H            2.14075240934446        5.68924700792758       -0.15616166034409
H            1.45295440700727        6.86128778034656        0.95047677802149
H            1.09376982891177        5.16191627128418        1.17010859071417
H            1.36211988496497        1.15754520952567       -2.38848060278051
H            1.55363418065693        2.36438163685292       -3.67040860098377
H            2.52736802735913        2.48094971372647       -2.19829904852878
H           -0.99421697866948        1.60201809086837       -2.36158805744030
H           -1.58966592227950        3.25509668631987       -2.11534967005185
H           -0.77687528970584        2.81970249234494       -3.62841666570592

          :  Hamiltonian                  GFN2-xTB          :
         :: total energy             -53.302982752468 Eh    ::
         :: gradient norm              0.000681649770 Eh/a0 ::
         :: HOMO-LUMO gap              4.335815604688 eV    ::
         :: SCC energy               -54.226055757957 Eh    ::
         :: -> dispersion             -0.043977432607 Eh    ::
         :: repulsion energy           0.923073005489 Eh    ::

    * Orbital Energies and Occupations

         #    Occupation            Energy/Eh            Energy/eV
      -------------------------------------------------------------
         1        2.0000           -0.8502025             -23.1352
       ...           ...                  ...                  ...
        38        2.0000           -0.5890415             -16.0286
        39        2.0000           -0.5821350             -15.8407
        40        2.0000           -0.5810863             -15.8122
        41        2.0000           -0.5746499             -15.6370
        42        2.0000           -0.5743908             -15.6300
        43        2.0000           -0.5389197             -14.6648
        44        2.0000           -0.5384983             -14.6533
        45        2.0000           -0.5381665             -14.6443
        46        2.0000           -0.5376570             -14.6304
        47        2.0000           -0.5232902             -14.2395
        48        2.0000           -0.5201789             -14.1548
        49        2.0000           -0.5130973             -13.9621
        50        2.0000           -0.5125550             -13.9473 (HOMO)
        51                         -0.3532168              -9.6115 (LUMO)
        52                         -0.3464786              -9.4282
        53                         -0.3386798              -9.2159
        54                         -0.3382607              -9.2045
        55                         -0.2320788              -6.3152
        56                         -0.2184771              -5.9451
        57                         -0.1872053              -5.0941
        58                         -0.1358671              -3.6971
        59                         -0.1324775              -3.6049
        60                         -0.1274747              -3.4688
        61                         -0.0554892              -1.5099
       ...                                ...                  ...
       100                          0.5386417              14.6572
      -------------------------------------------------------------
                  HL-Gap            0.1593383 Eh            4.3358 eV

     #   Z          covCN         q      C6AA      α(0)
     1   6 C        3.758    -0.121    22.862     6.817
     2   6 C        2.965     0.013    27.728     8.637
     3   6 C        2.928    -0.035    28.862     8.810
     4   6 C        2.918    -0.021    28.533     8.759
     5   6 C        2.918    -0.028    28.709     8.786
     6   6 C        2.925    -0.043    29.069     8.842
     7   6 C        2.968    -0.019    28.485     8.754
     8   6 C        3.763    -0.039    21.323     6.582
     9   7 N        3.620     0.127    19.076     6.487
    10   6 C        3.766    -0.039    21.309     6.579
    11   6 C        2.968    -0.018    28.463     8.751
    12   6 C        2.925    -0.043    29.061     8.841
    13   6 C        2.918    -0.028    28.705     8.786
    14   6 C        2.918    -0.021    28.523     8.758
    15   6 C        2.928    -0.034    28.847     8.808
    16   6 C        2.965     0.013    27.714     8.635
    17   6 C        3.758    -0.120    22.842     6.814
    18   6 C        3.724    -0.090    22.323     6.747
    19   6 C        3.719    -0.089    22.325     6.749
    20   1 H        0.925     0.042     2.426     2.436
    21   1 H        0.925     0.067     2.114     2.273
    22   1 H        0.925     0.054     2.276     2.359
    23   1 H        0.926     0.056     2.251     2.346
    24   1 H        0.926     0.059     2.213     2.327
    25   1 H        0.926     0.054     2.267     2.354
    26   1 H        0.926     0.037     2.487     2.466
    27   1 H        0.924     0.085     1.929     2.172
    28   1 H        0.925     0.084     1.943     2.180
    29   1 H        0.924     0.080     1.980     2.201
    30   1 H        0.924     0.079     1.986     2.204
    31   1 H        0.926     0.038     2.476     2.461
    32   1 H        0.926     0.055     2.260     2.351
    33   1 H        0.926     0.059     2.208     2.324
    34   1 H        0.926     0.056     2.244     2.343
    35   1 H        0.925     0.040     2.442     2.444
    36   1 H        0.925     0.068     2.107     2.270
    37   1 H        0.925     0.054     2.268     2.355
    38   1 H        0.925     0.099     1.793     2.094
    39   1 H        0.925     0.090     1.879     2.144
    40   1 H        0.925     0.093     1.847     2.125
    41   1 H        0.925     0.098     1.805     2.101
    42   1 H        0.925     0.098     1.800     2.098
    43   1 H        0.925     0.089     1.888     2.149

Wiberg/Mayer (AO) data.
largest (>0.10) Wiberg bond orders for each atom

     #   Z sym  total        # sym  WBO       # sym  WBO       # sym  WBO
 ---------------------------------------------------------------------------
     1   6 C    3.993 --     2 C    1.028    21 H    0.976    20 H    0.973
                            22 H    0.964
     2   6 C    3.988 --     3 C    1.403     7 C    1.388     1 C    1.028
                             5 C    0.105
     3   6 C    3.990 --     4 C    1.457     2 C    1.403    23 H    0.967
                             6 C    0.109
     4   6 C    3.989 --     3 C    1.457     5 C    1.422    24 H    0.969
                             7 C    0.105
     5   6 C    3.991 --     6 C    1.456     4 C    1.422    25 H    0.969
                             2 C    0.105
     6   6 C    3.991 --     5 C    1.456     7 C    1.396    26 H    0.967
                             3 C    0.109
     7   6 C    3.975 --     6 C    1.396     2 C    1.388     8 C    1.006
                             4 C    0.105
     8   6 C    3.928 --     7 C    1.006    27 H    0.961    28 H    0.956
                             9 N    0.910
     9   7 N    3.807 --    18 C    0.963    19 C    0.963    10 C    0.911
                             8 C    0.910
    10   6 C    3.930 --    11 C    1.006    29 H    0.964    30 H    0.959
                             9 N    0.911
    11   6 C    3.975 --    12 C    1.396    16 C    1.388    10 C    1.006
                            14 C    0.105
    12   6 C    3.991 --    13 C    1.456    11 C    1.396    31 H    0.967
                            15 C    0.109
    13   6 C    3.991 --    12 C    1.456    14 C    1.422    32 H    0.969
                            16 C    0.105
    14   6 C    3.989 --    15 C    1.457    13 C    1.422    33 H    0.968
                            11 C    0.105
    15   6 C    3.990 --    14 C    1.457    16 C    1.403    34 H    0.967
                            12 C    0.109
    16   6 C    3.988 --    15 C    1.403    11 C    1.388    17 C    1.028
                            13 C    0.105
    17   6 C    3.993 --    16 C    1.028    36 H    0.976    35 H    0.974
                            37 H    0.964
    18   6 C    3.933 --    39 H    0.976    40 H    0.975    38 H    0.971
                             9 N    0.963
    19   6 C    3.931 --    43 H    0.975    42 H    0.970    41 H    0.970
                             9 N    0.963
    20   1 H    0.998 --     1 C    0.973
    21   1 H    0.995 --     1 C    0.976
    22   1 H    0.997 --     1 C    0.964
    23   1 H    0.997 --     3 C    0.967
    24   1 H    0.996 --     4 C    0.969
    25   1 H    0.996 --     5 C    0.969
    26   1 H    0.998 --     6 C    0.967
    27   1 H    0.993 --     8 C    0.961
    28   1 H    0.993 --     8 C    0.956
    29   1 H    0.993 --    10 C    0.964
    30   1 H    0.993 --    10 C    0.959
    31   1 H    0.998 --    12 C    0.967
    32   1 H    0.996 --    13 C    0.969
    33   1 H    0.996 --    14 C    0.968
    34   1 H    0.997 --    15 C    0.967
    35   1 H    0.998 --    17 C    0.974
    36   1 H    0.995 --    17 C    0.976
    37   1 H    0.997 --    17 C    0.964
    38   1 H    0.989 --    18 C    0.971
    39   1 H    0.992 --    18 C    0.976
    40   1 H    0.991 --    18 C    0.975
    41   1 H    0.990 --    19 C    0.970
    42   1 H    0.990 --    19 C    0.970
    43   1 H    0.992 --    19 C    0.975
 ---------------------------------------------------------------------------

molecular dipole:
                 x           y           z       tot (Debye)
 q only:        0.758       5.639      -2.850
   full:        0.843       5.690      -2.907      16.380

           -------------------------------------------------
          | TOTAL ENERGY              -53.302982752468 Eh   |
          | GRADIENT NORM               0.000681649770 Eh/α |
          | HOMO-LUMO GAP               4.335815604688 eV   |
           -------------------------------------------------

 * finished run on 2024/12/20 at 02:10:58.838
