   * xtb version 6.7.1 (edcfbbe) compiled by 'conda@3ef47c1a292c' on 2024-11-25

   ID    Z sym.   atoms
    1    6 C      1, 3-6
    2    7 N      2
    3    1 H      7-20

          program call               : xtb C0222.xyz --opt --namespace C0222 --charge +1
          :  Hamiltonian                  GFN2-xTB          :
 * total energy  :   -20.3531400 Eh     change       -0.2184919E-11 Eh
 * total energy  :   -20.3557240 Eh     change       -0.2584036E-02 Eh
 * total energy  :   -20.3561783 Eh     change       -0.4543060E-03 Eh
 * total energy  :   -20.3562020 Eh     change       -0.2373003E-04 Eh
 * total energy  :   -20.3562078 Eh     change       -0.5760496E-05 Eh
 * total energy  :   -20.3562111 Eh     change       -0.3339987E-05 Eh
   *** GEOMETRY OPTIMIZATION CONVERGED AFTER 6 ITERATIONS ***

 final structure:
================
20
 xtb: 6.7.1 (edcfbbe)
C            1.04469154877391        0.07876373599835        0.07523294381660
N            0.49344015574761        0.95803977598383       -0.97374119352754
C            1.04468668136160        0.56634756658402       -2.28525009015439
C           -1.01687249046956        0.99233019495476       -0.96665505122729
C           -1.52861901694178        1.43235073053232        0.39965644786505
C           -1.52862391869663        1.93769693911841       -2.04679478562763
H            0.64149988718727       -0.92598530201226       -0.04182711219085
H            0.79860621675882        0.45023983874334        1.06618101361002
H            2.12877279658811        0.03161134630764       -0.01031804336779
H            0.80425832377732        1.91680235547973       -0.77569885079383
H            0.64149455519723       -0.40255134524725       -2.57586713013634
H            0.79859794388620        1.30005089573395       -3.04791016687913
H            2.12876807038108        0.48915816957197       -2.22538778284293
H           -1.35190258292444       -0.02775983543934       -1.17736720254894
H           -1.09164278170817        2.38391604497374        0.69577290556230
H           -2.60471585311166        1.57014517445344        0.34506683436354
H           -1.34515634598545        0.69434949237491        1.17438932185304
H           -1.34516133510699        1.56706341234704       -3.05053166977427
H           -2.60472095318409        2.04258023739349       -1.94207439866608
H           -1.09165090153037        2.92871057214792       -1.94164598933354

          :  Hamiltonian                  GFN2-xTB          :
         :: total energy             -20.356211131980 Eh    ::
         :: gradient norm              0.000657487139 Eh/a0 ::
         :: HOMO-LUMO gap              9.797449324868 eV    ::
         :: SCC energy               -20.649884945095 Eh    ::
         :: -> dispersion             -0.010612258522 Eh    ::
         :: repulsion energy           0.293673813115 Eh    ::

    * Orbital Energies and Occupations

         #    Occupation            Energy/Eh            Energy/eV
      -------------------------------------------------------------
         1        2.0000           -0.8766500             -23.8549
       ...           ...                  ...                  ...
         7        2.0000           -0.7415426             -20.1784
         8        2.0000           -0.7242574             -19.7080
         9        2.0000           -0.7121383             -19.3783
        10        2.0000           -0.6852727             -18.6472
        11        2.0000           -0.6676035             -18.1664
        12        2.0000           -0.6582752             -17.9126
        13        2.0000           -0.6549670             -17.8226
        14        2.0000           -0.6534526             -17.7814
        15        2.0000           -0.6456408             -17.5688
        16        2.0000           -0.6252066             -17.0127
        17        2.0000           -0.6233647             -16.9626
        18        2.0000           -0.6090230             -16.5724
        19        2.0000           -0.6055709             -16.4784 (HOMO)
        20                         -0.2455213              -6.6810 (LUMO)
        21                         -0.1630291              -4.4362
        22                         -0.1509398              -4.1073
        23                         -0.1259184              -3.4264
        24                         -0.0784761              -2.1354
        25                         -0.0580568              -1.5798
        26                         -0.0270668              -0.7365
        27                         -0.0051259              -0.1395
        28                         -0.0011182              -0.0304
        29                          0.0200858               0.5466
        30                          0.0310431               0.8447
       ...                                ...                  ...
        38                          0.1276018               3.4722
      -------------------------------------------------------------
                  HL-Gap            0.3600496 Eh            9.7974 eV

     #   Z          covCN         q      C6AA      α(0)
     1   6 C        3.700    -0.097    22.527     6.788
     2   7 N        3.576     0.052    20.330     6.697
     3   6 C        3.700    -0.097    22.527     6.788
     4   6 C        3.787     0.020    20.245     6.409
     5   6 C        3.755    -0.139    23.237     6.873
     6   6 C        3.755    -0.139    23.237     6.873
     7   1 H        0.925     0.106     1.731     2.057
     8   1 H        0.925     0.107     1.720     2.051
     9   1 H        0.925     0.103     1.755     2.072
    10   1 H        0.859     0.229     0.970     1.543
    11   1 H        0.925     0.106     1.731     2.057
    12   1 H        0.925     0.107     1.720     2.051
    13   1 H        0.925     0.103     1.755     2.072
    14   1 H        0.924     0.086     1.920     2.167
    15   1 H        0.925     0.064     2.151     2.294
    16   1 H        0.925     0.092     1.858     2.131
    17   1 H        0.925     0.070     2.088     2.260
    18   1 H        0.925     0.070     2.088     2.260
    19   1 H        0.925     0.092     1.858     2.131
    20   1 H        0.925     0.064     2.151     2.294

Wiberg/Mayer (AO) data.
largest (>0.10) Wiberg bond orders for each atom

     #   Z sym  total        # sym  WBO       # sym  WBO       # sym  WBO
 ---------------------------------------------------------------------------
     1   6 C    3.918 --     7 H    0.975     9 H    0.973     8 H    0.972
                             2 N    0.961
     2   7 N    3.773 --     3 C    0.961     1 C    0.961    10 H    0.912
                             4 C    0.898
     3   6 C    3.918 --    11 H    0.975    13 H    0.973    12 H    0.972
                             2 N    0.961
     4   6 C    3.922 --     6 C    1.012     5 C    1.012    14 H    0.960
                             2 N    0.898
     5   6 C    3.981 --     4 C    1.012    15 H    0.981    17 H    0.979
                            16 H    0.972
     6   6 C    3.981 --     4 C    1.012    20 H    0.981    18 H    0.979
                            19 H    0.972
     7   1 H    0.989 --     1 C    0.975
     8   1 H    0.988 --     1 C    0.972
     9   1 H    0.989 --     1 C    0.973
    10   1 H    0.948 --     2 N    0.912
    11   1 H    0.989 --     3 C    0.975
    12   1 H    0.988 --     3 C    0.972
    13   1 H    0.989 --     3 C    0.973
    14   1 H    0.993 --     4 C    0.960
    15   1 H    0.996 --     5 C    0.981
    16   1 H    0.991 --     5 C    0.972
    17   1 H    0.995 --     5 C    0.979
    18   1 H    0.995 --     6 C    0.979
    19   1 H    0.991 --     6 C    0.972
    20   1 H    0.996 --     6 C    0.981
 ---------------------------------------------------------------------------

molecular dipole:
                 x           y           z       tot (Debye)
 q only:        0.444       1.714      -1.860
   full:        0.551       1.831      -1.836       6.737

           -------------------------------------------------
          | TOTAL ENERGY              -20.356211131980 Eh   |
          | GRADIENT NORM               0.000657487139 Eh/α |
          | HOMO-LUMO GAP               9.797449324868 eV   |
           -------------------------------------------------

 * finished run on 2024/12/20 at 02:10:58.987
