   * xtb version 6.7.1 (edcfbbe) compiled by 'conda@3ef47c1a292c' on 2024-11-25

   ID    Z sym.   atoms
    1    8 O      1
    2    6 C      2-9, 11, 12, 14-18
    3    7 N      10, 13
    4    1 H      19-35

          program call               : xtb C0238.xyz --opt --namespace C0238 --charge +1
          :  Hamiltonian                  GFN2-xTB          :
 * total energy  :   -50.2859611 Eh     change       -0.7970442E-09 Eh
 * total energy  :   -50.2943012 Eh     change       -0.8340169E-02 Eh
 * total energy  :   -50.2966200 Eh     change       -0.2318718E-02 Eh
 * total energy  :   -50.2970914 Eh     change       -0.4714605E-03 Eh
 * total energy  :   -50.2975874 Eh     change       -0.4960109E-03 Eh
 * total energy  :   -50.2978437 Eh     change       -0.2562545E-03 Eh
 * total energy  :   -50.2980924 Eh     change       -0.2486668E-03 Eh
 * total energy  :   -50.2983280 Eh     change       -0.2356211E-03 Eh
 * total energy  :   -50.2984657 Eh     change       -0.1376909E-03 Eh
 * total energy  :   -50.2985681 Eh     change       -0.1024802E-03 Eh
 * total energy  :   -50.2994467 Eh     change       -0.1335247E-04 Eh
 * total energy  :   -50.2994680 Eh     change       -0.2128574E-04 Eh
 * total energy  :   -50.2994874 Eh     change       -0.1940826E-04 Eh
 * total energy  :   -50.2995026 Eh     change       -0.1527120E-04 Eh
 * total energy  :   -50.2995317 Eh     change       -0.2905701E-04 Eh
 * total energy  :   -50.2995461 Eh     change       -0.1445682E-04 Eh
 * total energy  :   -50.2995545 Eh     change       -0.8360072E-05 Eh
 * total energy  :   -50.2995626 Eh     change       -0.8097528E-05 Eh
 * total energy  :   -50.2995668 Eh     change       -0.4150543E-05 Eh
   *** GEOMETRY OPTIMIZATION CONVERGED AFTER 39 ITERATIONS ***

 final structure:
================
35
 xtb: 6.7.1 (edcfbbe)
O            2.02825620624472        1.86742931789130        0.16116605795008
C            2.80983913559915        1.00501760808895       -0.16965126764449
C            3.04357478078691        0.58492831497683       -1.54843561515198
C            4.01552123193394       -0.35063935788459       -1.91883594843849
C            4.17607630634094       -0.68679116584002       -3.24850827651825
C            3.37688336230487       -0.10433010311051       -4.22232831878162
C            2.41051022410120        0.82446526613349       -3.86611808589425
C            2.24501943895745        1.16868634462705       -2.54049523381696
C            3.63743248227861        0.29694830857376        0.93667720288469
N            3.17271077303329        0.75376028463551        2.21728183217091
C            2.29586328911319        0.08155815433888        3.01820692296294
C            1.93929909602191        0.92271152721217        4.02178121909561
N            2.58674553635610        2.10454263753875        3.81140759303666
C            3.32445939922839        1.99692243853023        2.69994004482007
C            4.18327950452323        3.04447156372783        2.12341421693226
C            5.49867823578252        2.87210918947770        2.07566459154363
C            3.47458001085899        4.25178856416575        1.59102134562454
C            2.49053336019946        3.25658112607962        4.66880747022546
H            4.65323651359243       -0.81302962229327       -1.18160942287070
H            4.92827518300988       -1.40690338639512       -3.53136904868961
H            3.50916632052319       -0.37601696874909       -5.25819120246841
H            1.78904354955794        1.27732157088134       -4.62278971613348
H            1.49814139490869        1.88870073164229       -2.24235514661957
H            3.50523592099052       -0.78343653099405        0.87467132826328
H            4.69057097085775        0.55014076537220        0.80078081491139
H            1.99701181868106       -0.92745788897229        2.82261237775323
H            1.28360872099580        0.76909220648493        4.85392523681590
H            6.14065166042794        3.62536430347671        1.65508475612240
H            5.98555417456230        1.99809121704860        2.47550691755816
H            2.67804430239793        3.94228281855787        0.91624935803059
H            3.02564047320521        4.83587947982115        2.39123038865335
H            4.17272546076803        4.88429493289387        1.05143107754433
H            3.42123431155526        3.82065390549058        4.63978479582185
H            1.66777969840334        3.90011742204238        4.35199595219151
H            2.30250715188687        2.93038502452201        5.69012578211930

          :  Hamiltonian                  GFN2-xTB          :
         :: total energy             -50.299566754706 Eh    ::
         :: gradient norm              0.000830358299 Eh/a0 ::
         :: HOMO-LUMO gap              3.143576841922 eV    ::
         :: SCC energy               -51.121892263669 Eh    ::
         :: -> dispersion             -0.034460149168 Eh    ::
         :: repulsion energy           0.822325508963 Eh    ::

    * Orbital Energies and Occupations

         #    Occupation            Energy/Eh            Energy/eV
      -------------------------------------------------------------
         1        2.0000           -0.8741149             -23.7859
       ...           ...                  ...                  ...
        34        2.0000           -0.5971629             -16.2496
        35        2.0000           -0.5921235             -16.1125
        36        2.0000           -0.5912004             -16.0874
        37        2.0000           -0.5888963             -16.0247
        38        2.0000           -0.5821770             -15.8418
        39        2.0000           -0.5782911             -15.7361
        40        2.0000           -0.5633658             -15.3300
        41        2.0000           -0.5500079             -14.9665
        42        2.0000           -0.5410380             -14.7224
        43        2.0000           -0.5334891             -14.5170
        44        2.0000           -0.5247056             -14.2780
        45        2.0000           -0.5236402             -14.2490
        46        2.0000           -0.5206500             -14.1676 (HOMO)
        47                         -0.4051257             -11.0240 (LUMO)
        48                         -0.3936123             -10.7107
        49                         -0.3524771              -9.5914
        50                         -0.3443124              -9.3692
        51                         -0.3371250              -9.1736
        52                         -0.3088929              -8.4054
        53                         -0.1997296              -5.4349
        54                         -0.1701937              -4.6312
        55                         -0.1103214              -3.0020
        56                         -0.0712160              -1.9379
        57                         -0.0632024              -1.7198
       ...                                ...                  ...
        89                          0.5543035              15.0834
      -------------------------------------------------------------
                  HL-Gap            0.1155243 Eh            3.1436 eV

     #   Z          covCN         q      C6AA      α(0)
     1   8 O        0.857    -0.364    20.982     6.141
     2   6 C        2.823     0.227    23.229     7.897
     3   6 C        2.970    -0.019    28.472     8.752
     4   6 C        2.919    -0.027    28.680     8.782
     5   6 C        2.917    -0.019    28.490     8.753
     6   6 C        2.920    -0.007    28.203     8.709
     7   6 C        2.916    -0.018    28.461     8.748
     8   6 C        2.927    -0.010    28.257     8.717
     9   6 C        3.742    -0.045    21.458     6.609
    10   7 N        2.875     0.052    20.339     6.698
    11   6 C        3.049    -0.006    28.126     8.698
    12   6 C        3.051    -0.008    28.178     8.706
    13   7 N        2.871     0.055    20.283     6.689
    14   6 C        3.117     0.106    25.508     8.273
    15   6 C        2.938     0.016    27.652     8.624
    16   6 C        2.849    -0.094    30.343     9.028
    17   6 C        3.759    -0.127    22.991     6.836
    18   6 C        3.692    -0.077    22.163     6.736
    19   1 H        0.926     0.041     2.435     2.440
    20   1 H        0.926     0.061     2.190     2.314
    21   1 H        0.926     0.067     2.122     2.278
    22   1 H        0.926     0.065     2.140     2.288
    23   1 H        0.926     0.072     2.061     2.245
    24   1 H        0.924     0.098     1.807     2.102
    25   1 H        0.924     0.096     1.821     2.110
    26   1 H        0.926     0.098     1.800     2.098
    27   1 H        0.926     0.102     1.766     2.078
    28   1 H        0.926     0.082     1.954     2.186
    29   1 H        0.926     0.056     2.243     2.342
    30   1 H        0.925     0.089     1.888     2.149
    31   1 H        0.925     0.070     2.085     2.258
    32   1 H        0.925     0.076     2.023     2.224
    33   1 H        0.925     0.094     1.840     2.121
    34   1 H        0.924     0.100     1.785     2.089
    35   1 H        0.925     0.099     1.796     2.096

Wiberg/Mayer (AO) data.
largest (>0.10) Wiberg bond orders for each atom

     #   Z sym  total        # sym  WBO       # sym  WBO       # sym  WBO
 ---------------------------------------------------------------------------
     1   8 O    2.083 --     2 C    1.802
     2   6 C    3.931 --     1 O    1.802     3 C    1.078     9 C    0.926
     3   6 C    3.984 --     4 C    1.354     8 C    1.351     2 C    1.078
     4   6 C    3.991 --     5 C    1.472     3 C    1.354    19 H    0.967
                             7 C    0.102
     5   6 C    3.990 --     4 C    1.472     6 C    1.418    20 H    0.968
     6   6 C    3.986 --     7 C    1.427     5 C    1.418    21 H    0.968
     7   6 C    3.989 --     8 C    1.464     6 C    1.427    22 H    0.967
                             4 C    0.102
     8   6 C    3.983 --     7 C    1.464     3 C    1.351    23 H    0.964
     9   6 C    3.949 --    10 N    0.992    24 H    0.954    25 H    0.946
                             2 C    0.926
    10   7 N    3.693 --    14 C    1.308    11 C    1.208     9 C    0.992
    11   6 C    3.948 --    12 C    1.606    10 N    1.208    26 H    0.962
    12   6 C    3.949 --    11 C    1.606    13 N    1.212    27 H    0.962
    13   7 N    3.700 --    14 C    1.325    12 C    1.212    18 C    0.991
    14   6 C    3.942 --    13 N    1.325    10 N    1.308    15 C    1.015
    15   6 C    3.977 --    16 C    1.897    14 C    1.015    17 C    1.014
    16   6 C    3.985 --    15 C    1.897    29 H    0.974    28 H    0.969
    17   6 C    3.985 --    15 C    1.014    32 H    0.977    31 H    0.959
                            30 H    0.958
    18   6 C    3.939 --    13 N    0.991    35 H    0.972    33 H    0.972
                            34 H    0.961
    19   1 H    0.998 --     4 C    0.967
    20   1 H    0.996 --     5 C    0.968
    21   1 H    0.995 --     6 C    0.968
    22   1 H    0.995 --     7 C    0.967
    23   1 H    0.995 --     8 C    0.964
    24   1 H    0.990 --     9 C    0.954
    25   1 H    0.990 --     9 C    0.946
    26   1 H    0.990 --    11 C    0.962
    27   1 H    0.988 --    12 C    0.962
    28   1 H    0.992 --    16 C    0.969
    29   1 H    0.997 --    16 C    0.974
    30   1 H    0.992 --    17 C    0.958
    31   1 H    0.995 --    17 C    0.959
    32   1 H    0.993 --    17 C    0.977
    33   1 H    0.991 --    18 C    0.972
    34   1 H    0.989 --    18 C    0.961
    35   1 H    0.990 --    18 C    0.972
 ---------------------------------------------------------------------------

molecular dipole:
                 x           y           z       tot (Debye)
 q only:        6.311       2.677       3.518
   full:        6.409       2.438       3.600      19.686

           -------------------------------------------------
          | TOTAL ENERGY              -50.299566754706 Eh   |
          | GRADIENT NORM               0.000830358299 Eh/α |
          | HOMO-LUMO GAP               3.143576841922 eV   |
           -------------------------------------------------

 * finished run on 2024/12/20 at 02:11:34.954
