   * xtb version 6.7.1 (edcfbbe) compiled by 'conda@3ef47c1a292c' on 2024-11-25

   ID    Z sym.   atoms
    1    6 C      1-6, 8, 10-21
    2    7 N      7
    3    8 O      9
    4    1 H      22-61

          program call               : xtb C0236.xyz --opt --namespace C0236 --charge +1
          :  Hamiltonian                  GFN2-xTB          :
 * total energy  :   -66.7342057 Eh     change       -0.3629836E-08 Eh
 * total energy  :   -66.8887072 Eh     change       -0.1545015E+00 Eh
 * total energy  :   -67.0479756 Eh     change       -0.1592684E+00 Eh
 * total energy  :   -67.1506762 Eh     change       -0.1027006E+00 Eh
 * total energy  :   -67.2426093 Eh     change       -0.9193307E-01 Eh
 * total energy  :   -67.3148854 Eh     change       -0.7227611E-01 Eh
 * total energy  :   -67.3668813 Eh     change       -0.5199589E-01 Eh
 * total energy  :   -67.4081398 Eh     change       -0.4125855E-01 Eh
 * total energy  :   -67.4379103 Eh     change       -0.2977048E-01 Eh
 * total energy  :   -67.4620896 Eh     change       -0.2417932E-01 Eh
 * total energy  :   -67.7091839 Eh     change       -0.3174570E-05 Eh
 * total energy  :   -67.7092039 Eh     change       -0.1996064E-04 Eh
 * total energy  :   -67.7092203 Eh     change       -0.1638858E-04 Eh
 * total energy  :   -67.7092337 Eh     change       -0.1342097E-04 Eh
 * total energy  :   -67.7092461 Eh     change       -0.1243974E-04 Eh
 * total energy  :   -67.7092527 Eh     change       -0.6607591E-05 Eh
 * total energy  :   -67.7092598 Eh     change       -0.7057244E-05 Eh
 * total energy  :   -67.7092688 Eh     change       -0.9015751E-05 Eh
 * total energy  :   -67.7092727 Eh     change       -0.3872575E-05 Eh
   *** GEOMETRY OPTIMIZATION CONVERGED AFTER 94 ITERATIONS ***

 final structure:
================
61
 xtb: 6.7.1 (edcfbbe)
C           -9.70019205945758       -3.38148164707350       -3.83675154451972
C           -8.18436885044293       -3.22640106608913       -3.86044058683554
C           -7.71049714553778       -1.84857339401620       -3.39398416776894
C           -8.10652984568837       -1.47494399161926       -1.96247191593893
C           -7.66785967757895       -2.47388188106389       -0.88351854402574
C           -6.15893375162212       -2.73371308140310       -0.79478024700728
N           -5.40619567784906       -1.96550975737669        0.24853415576663
C           -5.79311793243943       -2.48529439121457        1.61600466540162
O           -4.95192111225202       -3.53777669902083        1.86764274813661
C           -3.65157125293073       -3.13739010673161        1.44702605445679
C           -3.93031053002414       -2.35102040775509        0.14142292467702
C           -2.82132366585213       -1.32578973991358       -0.13148751683058
C           -2.91652404568067       -0.61582166601286       -1.48224026970180
C           -2.52766541118961       -0.34562460148571        1.01271795432797
C           -2.97922545722178       -0.86082367562474        2.38071496869225
C           -2.85523718827317       -2.38148149787428        2.53518945878397
C           -1.39501263717533       -2.89479108034611        2.58857430287616
C           -0.48326882946065       -1.99850629144805        3.42627646784314
C           -1.35591329734423       -4.30351712570456        3.18450650689585
C           -0.01976478680738       -4.00878368076825       -1.15834465547140
C           -5.70181744848880       -0.53339359461894        0.13371218104388
H          -10.09040750562001       -3.35835308358766       -2.82214417371199
H           -9.98403988718789       -4.33076863146910       -4.28304661381091
H          -10.17175739644337       -2.58443291900277       -4.40607898951852
H           -7.72424201332192       -4.01104664579233       -3.25549073640896
H           -7.83550630374237       -3.36688391277998       -4.88514966494613
H           -6.62495639419921       -1.79066214917160       -3.51546159117025
H           -8.13900143054356       -1.09461455200572       -4.05664873046882
H           -7.72092685951397       -0.47660900244337       -1.75001236098382
H           -9.19350838865419       -1.40849587695705       -1.91274749143441
H           -8.06927490000821       -2.14871103286341        0.07761458483816
H           -8.14459467440565       -3.42868633948613       -1.10629501893277
H           -5.98587954920126       -3.78866893328339       -0.56999045131926
H           -5.70681334810946       -2.50372147006001       -1.76067315939825
H           -5.68205515159816       -1.66681260458931        2.33892673763022
H           -6.82179854756203       -2.84910175751614        1.62912762558103
H           -3.12956930593352       -4.06792584696441        1.21358775965276
H           -3.88468635756540       -3.05955446951394       -0.68929132045580
H           -1.03365216731480       -4.19122153455265       -1.49290422352570
H           -1.95272367442216       -1.99151440780562       -0.20391490522110
H           -1.93842993632028       -0.21611422442289       -1.73677132807066
H           -3.20333212146690       -1.30772976194340       -2.27107045611128
H           -3.60741237241043        0.22156975554608       -1.47313783929839
H           -1.45114159662398       -0.17624390777228        1.02768266836730
H           -2.98478412134695        0.62681160662933        0.81804470592427
H           -4.01350058228609       -0.56752270046150        2.57128521194571
H           -2.39164185540545       -0.37603414997226        3.15787161979465
H           -3.31753807545743       -2.65250610917541        3.49117284186062
H           -0.99585283699399       -2.93117407105051        1.57006879118874
H           -0.90903412366490       -1.83030814926322        4.41252326566784
H            0.47755966663891       -2.48904148475662        3.55712192914988
H           -0.29730363660379       -1.04013641626049        2.95026265008044
H           -2.02163059409199       -4.99389090285145        2.67315546386400
H           -0.34795147901153       -4.70496681872270        3.12416067124286
H           -1.64455259739647       -4.27239412557297        4.23233520265054
H            0.66714526435379       -4.53225088563859       -1.80917252715362
H            0.19810815473378       -2.94885282400107       -1.19618424905731
H            0.10421839787961       -4.37401140583762       -0.14701833159339
H           -5.57393547261459       -0.21656806610061       -0.89746512875792
H           -6.73166078612961       -0.34947684925195        0.43375030171113
H           -5.04450483711383        0.04598603782506        0.77369431931354

          :  Hamiltonian                  GFN2-xTB          :
         :: total energy             -67.709272673363 Eh    ::
         :: gradient norm              0.000382205047 Eh/a0 ::
         :: HOMO-LUMO gap              7.429865835434 eV    ::
         :: SCC energy               -68.632271490828 Eh    ::
         :: -> dispersion             -0.055855017997 Eh    ::
         :: repulsion energy           0.922998817466 Eh    ::

    * Orbital Energies and Occupations

         #    Occupation            Energy/Eh            Energy/eV
      -------------------------------------------------------------
         1        2.0000           -0.8743962             -23.7935
       ...           ...                  ...                  ...
        51        2.0000           -0.5590171             -15.2116
        52        2.0000           -0.5579377             -15.1823
        53        2.0000           -0.5572907             -15.1647
        54        2.0000           -0.5527299             -15.0405
        55        2.0000           -0.5515898             -15.0095
        56        2.0000           -0.5492297             -14.9453
        57        2.0000           -0.5464145             -14.8687
        58        2.0000           -0.5304786             -14.4351
        59        2.0000           -0.5293662             -14.4048
        60        2.0000           -0.5274241             -14.3519
        61        2.0000           -0.5253380             -14.2952
        62        2.0000           -0.5228971             -14.2288
        63        2.0000           -0.5181342             -14.0991 (HOMO)
        64                         -0.2450916              -6.6693 (LUMO)
        65                         -0.1975122              -5.3746
        66                         -0.1641123              -4.4657
        67                         -0.1496767              -4.0729
        68                         -0.1100362              -2.9942
        69                         -0.1039993              -2.8300
        70                         -0.0846716              -2.3040
        71                         -0.0756306              -2.0580
        72                         -0.0646113              -1.7582
        73                         -0.0551475              -1.5006
        74                         -0.0540439              -1.4706
       ...                                ...                  ...
       124                          0.2321375               6.3168
      -------------------------------------------------------------
                  HL-Gap            0.2730425 Eh            7.4299 eV

     #   Z          covCN         q      C6AA      α(0)
     1   6 C        3.752    -0.109    22.644     6.786
     2   6 C        3.799    -0.057    21.609     6.619
     3   6 C        3.800    -0.063    21.714     6.635
     4   6 C        3.799    -0.070    21.836     6.653
     5   6 C        3.799    -0.073    21.902     6.663
     6   6 C        3.755    -0.034    21.236     6.571
     7   7 N        3.618     0.087    19.735     6.598
     8   6 C        3.736     0.120    18.704     6.172
     9   8 O        1.704    -0.283    18.691     5.837
    10   6 C        3.823     0.090    19.074     6.215
    11   6 C        3.808     0.001    20.555     6.454
    12   6 C        3.850    -0.027    21.013     6.520
    13   6 C        3.752    -0.121    22.888     6.822
    14   6 C        3.802    -0.072    21.881     6.660
    15   6 C        3.802    -0.069    21.828     6.652
    16   6 C        3.850    -0.042    21.288     6.563
    17   6 C        3.849    -0.018    20.862     6.497
    18   6 C        3.757    -0.115    22.754     6.801
    19   6 C        3.758    -0.118    22.812     6.810
    20   6 C        3.701    -0.158    23.744     6.968
    21   6 C        3.702    -0.087    22.323     6.756
    22   1 H        0.925     0.034     2.533     2.489
    23   1 H        0.925     0.045     2.378     2.411
    24   1 H        0.925     0.044     2.391     2.418
    25   1 H        0.924     0.026     2.646     2.544
    26   1 H        0.924     0.043     2.413     2.429
    27   1 H        0.924     0.020     2.732     2.585
    28   1 H        0.924     0.051     2.306     2.375
    29   1 H        0.924     0.034     2.536     2.491
    30   1 H        0.925     0.061     2.182     2.310
    31   1 H        0.924     0.043     2.405     2.425
    32   1 H        0.924     0.078     2.005     2.214
    33   1 H        0.924     0.081     1.971     2.195
    34   1 H        0.924     0.088     1.895     2.153
    35   1 H        0.924     0.069     2.100     2.266
    36   1 H        0.924     0.093     1.847     2.125
    37   1 H        0.924     0.081     1.967     2.193
    38   1 H        0.924     0.069     2.092     2.262
    39   1 H        0.925     0.028     2.622     2.532
    40   1 H        0.924     0.075     2.034     2.230
    41   1 H        0.925     0.067     2.120     2.277
    42   1 H        0.925     0.044     2.402     2.423
    43   1 H        0.925     0.047     2.364     2.404
    44   1 H        0.925     0.060     2.201     2.320
    45   1 H        0.924     0.044     2.391     2.418
    46   1 H        0.924     0.023     2.693     2.566
    47   1 H        0.925     0.068     2.108     2.271
    48   1 H        0.924     0.064     2.151     2.294
    49   1 H        0.924     0.032     2.553     2.499
    50   1 H        0.925     0.046     2.372     2.408
    51   1 H        0.925     0.056     2.245     2.343
    52   1 H        0.925     0.041     2.435     2.440
    53   1 H        0.925     0.035     2.521     2.483
    54   1 H        0.925     0.053     2.286     2.364
    55   1 H        0.925     0.050     2.315     2.379
    56   1 H        0.925     0.054     2.268     2.355
    57   1 H        0.925     0.037     2.484     2.465
    58   1 H        0.925     0.042     2.423     2.434
    59   1 H        0.925     0.102     1.765     2.078
    60   1 H        0.925     0.090     1.879     2.143
    61   1 H        0.925     0.101     1.776     2.084

Wiberg/Mayer (AO) data.
largest (>0.10) Wiberg bond orders for each atom

     #   Z sym  total        # sym  WBO       # sym  WBO       # sym  WBO
 ---------------------------------------------------------------------------
     1   6 C    3.995 --     2 C    1.020    24 H    0.987    23 H    0.986
                            22 H    0.986
     2   6 C    3.997 --     1 C    1.020     3 C    1.008    26 H    0.977
                            25 H    0.976
     3   6 C    3.995 --     2 C    1.008     4 C    1.007    28 H    0.974
                            27 H    0.972
     4   6 C    3.992 --     3 C    1.007     5 C    1.005    29 H    0.974
                            30 H    0.971
     5   6 C    3.984 --     4 C    1.005     6 C    1.002    31 H    0.966
                            32 H    0.965
     6   6 C    3.928 --     5 C    1.002    33 H    0.970    34 H    0.959
                             7 N    0.928
     7   7 N    3.789 --    21 C    0.967     6 C    0.928     8 C    0.905
                            11 C    0.894
     8   6 C    3.929 --     9 O    1.047    36 H    0.955    35 H    0.949
                             7 N    0.905
     9   8 O    2.125 --     8 C    1.047    10 C    0.947
    10   6 C    3.925 --    16 C    0.973    11 C    0.969    37 H    0.951
                             9 O    0.947
    11   6 C    3.926 --    12 C    0.986    10 C    0.969    38 H    0.961
                             7 N    0.894
    12   6 C    3.982 --    13 C    1.007    14 C    0.993    11 C    0.986
                            40 H    0.946
    13   6 C    3.990 --    12 C    1.007    42 H    0.984    41 H    0.982
                            43 H    0.980
    14   6 C    3.993 --    15 C    1.005    12 C    0.993    44 H    0.974
                            45 H    0.971
    15   6 C    3.994 --    14 C    1.005    16 C    0.998    47 H    0.968
                            46 H    0.965
    16   6 C    3.985 --    15 C    0.998    17 C    0.978    10 C    0.973
                            48 H    0.960
    17   6 C    3.993 --    19 C    1.009    18 C    1.009    16 C    0.978
                            49 H    0.964
    18   6 C    3.993 --    17 C    1.009    50 H    0.985    52 H    0.983
                            51 H    0.982
    19   6 C    3.993 --    17 C    1.009    55 H    0.985    54 H    0.984
                            53 H    0.980
    20   6 C    3.993 --    39 H    0.998    57 H    0.997    58 H    0.996
                            56 H    0.996
    21   6 C    3.929 --    60 H    0.972    59 H    0.967     7 N    0.967
                            61 H    0.964
    22   1 H    0.999 --     1 C    0.986
    23   1 H    0.998 --     1 C    0.986
    24   1 H    0.998 --     1 C    0.987
    25   1 H    0.999 --     2 C    0.976
    26   1 H    0.998 --     2 C    0.977
    27   1 H    1.000 --     3 C    0.972
    28   1 H    0.997 --     3 C    0.974
    29   1 H    0.999 --     4 C    0.974
    30   1 H    0.996 --     4 C    0.971
    31   1 H    0.998 --     5 C    0.966
    32   1 H    0.994 --     5 C    0.965
    33   1 H    0.993 --     6 C    0.970
    34   1 H    0.992 --     6 C    0.959
    35   1 H    0.995 --     8 C    0.949
    36   1 H    0.991 --     8 C    0.955
    37   1 H    0.993 --    10 C    0.951
    38   1 H    0.995 --    11 C    0.961
    39   1 H    0.999 --    20 C    0.998
    40   1 H    0.994 --    12 C    0.946
    41   1 H    0.995 --    13 C    0.982
    42   1 H    0.998 --    13 C    0.984
    43   1 H    0.998 --    13 C    0.980
    44   1 H    0.996 --    14 C    0.974
    45   1 H    0.998 --    14 C    0.971
    46   1 H    0.999 --    15 C    0.965
    47   1 H    0.995 --    15 C    0.968
    48   1 H    0.996 --    16 C    0.960
    49   1 H    0.999 --    17 C    0.964
    50   1 H    0.998 --    18 C    0.985
    51   1 H    0.997 --    18 C    0.982
    52   1 H    0.998 --    18 C    0.983
    53   1 H    0.999 --    19 C    0.980
    54   1 H    0.997 --    19 C    0.984
    55   1 H    0.997 --    19 C    0.985
    56   1 H    0.997 --    20 C    0.996
    57   1 H    0.999 --    20 C    0.997
    58   1 H    0.998 --    20 C    0.996
    59   1 H    0.990 --    21 C    0.967
    60   1 H    0.992 --    21 C    0.972
    61   1 H    0.990 --    21 C    0.964
 ---------------------------------------------------------------------------

molecular dipole:
                 x           y           z       tot (Debye)
 q only:       -9.277      -3.250       0.221
   full:       -9.393      -3.227       0.189      25.249

           -------------------------------------------------
          | TOTAL ENERGY              -67.709272673363 Eh   |
          | GRADIENT NORM               0.000382205047 Eh/α |
          | HOMO-LUMO GAP               7.429865835434 eV   |
           -------------------------------------------------

 * finished run on 2024/12/20 at 02:11:32.428
