   * xtb version 6.7.1 (edcfbbe) compiled by 'conda@3ef47c1a292c' on 2024-11-25

   ID    Z sym.   atoms
    1    6 C      1-7, 9-20
    2   15 P      8
    3    1 H      21-62

          program call               : xtb C0231.xyz --opt --namespace C0231 --charge +1
          :  Hamiltonian                  GFN2-xTB          :
 * total energy  :   -64.2506326 Eh     change       -0.2152376E-09 Eh
 * total energy  :   -64.2563219 Eh     change       -0.5689286E-02 Eh
 * total energy  :   -64.2579321 Eh     change       -0.1610213E-02 Eh
 * total energy  :   -64.2582206 Eh     change       -0.2884548E-03 Eh
 * total energy  :   -64.2584371 Eh     change       -0.2164827E-03 Eh
 * total energy  :   -64.2586427 Eh     change       -0.2056276E-03 Eh
 * total energy  :   -64.2589453 Eh     change       -0.3025819E-03 Eh
 * total energy  :   -64.2593360 Eh     change       -0.3906717E-03 Eh
 * total energy  :   -64.2597485 Eh     change       -0.4125126E-03 Eh
 * total energy  :   -64.2601358 Eh     change       -0.3873556E-03 Eh
 * total energy  :   -64.2635567 Eh     change       -0.1940431E-04 Eh
 * total energy  :   -64.2635786 Eh     change       -0.2190668E-04 Eh
 * total energy  :   -64.2636015 Eh     change       -0.2293864E-04 Eh
 * total energy  :   -64.2636230 Eh     change       -0.2146264E-04 Eh
 * total energy  :   -64.2636410 Eh     change       -0.1799409E-04 Eh
 * total energy  :   -64.2636548 Eh     change       -0.1379069E-04 Eh
 * total energy  :   -64.2636655 Eh     change       -0.1069198E-04 Eh
 * total energy  :   -64.2636743 Eh     change       -0.8793586E-05 Eh
 * total energy  :   -64.2636786 Eh     change       -0.4289681E-05 Eh
   *** GEOMETRY OPTIMIZATION CONVERGED AFTER 68 ITERATIONS ***

 final structure:
================
62
 xtb: 6.7.1 (edcfbbe)
C            0.57359734891050       -2.04607159093029        0.08723250953692
C           -0.07958083564355       -2.45143252751566        1.40332618611361
C            0.61096782221601       -1.85510510333342        2.63150809694655
C            0.66992932107849       -0.32602057955073        2.66140474793427
C           -0.69108545193419        0.37203196097588        2.62208950491714
C           -1.56029702630955        0.14929679171353        3.86082721523339
C           -1.01936820915923        0.81370326801466        5.13694877028623
P           -1.74289613041886        2.45678368438027        5.49523819099078
C           -3.56920797802784        2.29085977900967        5.53825739024791
C           -4.13209375409456        1.01845653855242        6.17656074800555
C           -3.83398647008431        0.86053901287277        7.66741928532931
C           -4.56127602750540        1.87712816801466        8.53981336423606
C           -1.18806117039245        3.13137602180316        7.11629783886121
C           -0.00794260307675        2.41732968856001        7.77910875810386
C            1.33943655061675        2.73423929434863        7.12875515833892
C            1.88340527486424        4.09901364317139        7.53553007597792
C           -1.50220418075034        3.73506991620018        4.19723840592212
C           -0.15643384674537        4.46352503529473        4.14976563154319
C            0.94217572441491        3.71796097200231        3.38929118041236
C            0.79833403533669        3.84763018794354        1.87717277943120
H            0.44659933440725       -0.98433571842287       -0.11010178350854
H            0.12527784352055       -2.59523287886938       -0.73658871225517
H            1.63762556342807       -2.26965000933402        0.10601797444923
H           -1.13503481931135       -2.17113320422298        1.38954562128694
H           -0.03912099157547       -3.53855208322684        1.49486651231669
H            0.11073780904451       -2.22438550842817        3.53005779654163
H            1.63780471262788       -2.22518570992603        2.66302572264535
H            1.22274931090484       -0.02496017237398        3.55561562545628
H            1.24814572697232        0.01877668111071        1.80376079714743
H           -0.53057866761235        1.44008691832006        2.47878525878524
H           -1.24261228968094        0.01089559056689        1.75405018335077
H           -2.56852076394400        0.51155118627861        3.64608049146043
H           -1.63697024724121       -0.92376451394641        4.03894855894436
H           -1.26241344704844        0.20242940563370        6.01120121624007
H            0.06692457278365        0.90163833578652        5.09640782356837
H           -3.94914334308279        3.17707576122837        6.05476648057039
H           -3.91134209014547        2.35330783105228        4.50001568295256
H           -5.21555340235694        1.03443511072462        6.03990696213996
H           -3.75452127887062        0.14441317553651        5.64373983299812
H           -4.15468402257059       -0.13805536891293        7.96875178818930
H           -2.75538547075368        0.91860396389439        7.83914224488870
H           -5.63575753271916        1.79093422964256        8.40073846587080
H           -4.34204924629127        1.69441678287985        9.58823270423412
H           -4.27247191317900        2.90089704218361        8.31004847134648
H           -0.94974454162247        4.18648938149986        6.96094479581637
H           -2.05683076755229        3.09193785550550        7.77656910892592
H            0.02905959669380        2.72919609000482        8.82474336446496
H           -0.17743312223832        1.33887723407804        7.77386850777688
H            2.06108190647258        1.97342228113340        7.42935473343694
H            1.24094290090196        2.68760125387243        6.04129467539903
H            2.06483072303635        4.12932355186318        8.60665199295634
H            2.82403741474410        4.29422301792379        7.02810643590217
H            1.19426554673333        4.90360012036168        7.28788760414051
H           -1.72591557806374        3.27201379233287        3.23330247963404
H           -2.29729716771752        4.46209555324102        4.40206647165361
H           -0.31518940205770        5.42587403316560        3.65895598084418
H            0.18461007528271        4.67729481305060        5.16312915209495
H            1.90776961939633        4.13504892200813        3.67919262733670
H            0.94311805332787        2.66359532023685        3.67295084971962
H            0.90996575989750        4.88594438747066        1.57603151000219
H            1.56676846855775        3.26578960633695        1.37574767675285
H           -0.17146722633720        3.49904177714264        1.52835047519852

          :  Hamiltonian                  GFN2-xTB          :
         :: total energy             -64.263678568719 Eh    ::
         :: gradient norm              0.000181139120 Eh/a0 ::
         :: HOMO-LUMO gap              5.525059058262 eV    ::
         :: SCC energy               -65.214057356254 Eh    ::
         :: -> dispersion             -0.056888389496 Eh    ::
         :: repulsion energy           0.950378787535 Eh    ::

    * Orbital Energies and Occupations

         #    Occupation            Energy/Eh            Energy/eV
      -------------------------------------------------------------
         1        2.0000           -0.8404210             -22.8690
       ...           ...                  ...                  ...
        49        2.0000           -0.5518549             -15.0167
        50        2.0000           -0.5514089             -15.0046
        51        2.0000           -0.5493435             -14.9484
        52        2.0000           -0.5484795             -14.9249
        53        2.0000           -0.5454122             -14.8414
        54        2.0000           -0.5424280             -14.7602
        55        2.0000           -0.5422323             -14.7549
        56        2.0000           -0.5396195             -14.6838
        57        2.0000           -0.5377651             -14.6333
        58        2.0000           -0.5303011             -14.4302
        59        2.0000           -0.5100697             -13.8797
        60        2.0000           -0.5055841             -13.7576
        61        2.0000           -0.5011104             -13.6359 (HOMO)
        62                         -0.2980682              -8.1108 (LUMO)
        63                         -0.2812796              -7.6540
        64                         -0.2667013              -7.2573
        65                         -0.1940380              -5.2800
        66                         -0.1135043              -3.0886
        67                         -0.0738447              -2.0094
        68                         -0.0543211              -1.4782
        69                         -0.0486994              -1.3252
        70                         -0.0452208              -1.2305
        71                         -0.0399791              -1.0879
        72                         -0.0358473              -0.9755
       ...                                ...                  ...
       127                          0.8007783              21.7903
      -------------------------------------------------------------
                  HL-Gap            0.2030422 Eh            5.5251 eV

     #   Z          covCN         q      C6AA      α(0)
     1   6 C        3.751    -0.106    22.587     6.778
     2   6 C        3.799    -0.055    21.564     6.612
     3   6 C        3.800    -0.061    21.678     6.629
     4   6 C        3.800    -0.060    21.664     6.627
     5   6 C        3.801    -0.068    21.799     6.647
     6   6 C        3.852    -0.062    21.655     6.619
     7   6 C        3.749    -0.067    21.852     6.667
     8  15 P        3.889     0.177   152.597    22.190
     9   6 C        3.749    -0.078    22.058     6.698
    10   6 C        3.838    -0.066    21.738     6.633
    11   6 C        3.799    -0.060    21.657     6.626
    12   6 C        3.751    -0.111    22.680     6.792
    13   6 C        3.750    -0.076    22.021     6.693
    14   6 C        3.839    -0.064    21.701     6.627
    15   6 C        3.800    -0.061    21.669     6.628
    16   6 C        3.752    -0.110    22.669     6.790
    17   6 C        3.749    -0.074    21.981     6.687
    18   6 C        3.832    -0.065    21.728     6.632
    19   6 C        3.800    -0.058    21.618     6.620
    20   6 C        3.752    -0.110    22.669     6.790
    21   1 H        0.925     0.033     2.549     2.497
    22   1 H        0.925     0.041     2.439     2.442
    23   1 H        0.925     0.040     2.447     2.446
    24   1 H        0.924     0.028     2.622     2.532
    25   1 H        0.924     0.038     2.480     2.463
    26   1 H        0.924     0.025     2.653     2.547
    27   1 H        0.924     0.041     2.434     2.440
    28   1 H        0.924     0.021     2.718     2.578
    29   1 H        0.924     0.049     2.337     2.391
    30   1 H        0.925     0.038     2.471     2.458
    31   1 H        0.925     0.055     2.253     2.347
    32   1 H        0.924     0.046     2.376     2.411
    33   1 H        0.924     0.065     2.137     2.286
    34   1 H        0.928     0.088     1.895     2.152
    35   1 H        0.926     0.097     1.816     2.108
    36   1 H        0.927     0.086     1.918     2.165
    37   1 H        0.927     0.080     1.981     2.201
    38   1 H        0.924     0.066     2.129     2.282
    39   1 H        0.924     0.052     2.295     2.369
    40   1 H        0.924     0.055     2.263     2.353
    41   1 H        0.924     0.033     2.545     2.495
    42   1 H        0.925     0.052     2.296     2.370
    43   1 H        0.925     0.051     2.302     2.373
    44   1 H        0.925     0.029     2.599     2.521
    45   1 H        0.926     0.089     1.886     2.148
    46   1 H        0.927     0.093     1.848     2.126
    47   1 H        0.924     0.068     2.108     2.270
    48   1 H        0.924     0.046     2.374     2.410
    49   1 H        0.924     0.051     2.302     2.373
    50   1 H        0.924     0.037     2.489     2.467
    51   1 H        0.925     0.050     2.314     2.379
    52   1 H        0.925     0.051     2.312     2.378
    53   1 H        0.925     0.032     2.556     2.500
    54   1 H        0.926     0.093     1.854     2.129
    55   1 H        0.929     0.082     1.956     2.187
    56   1 H        0.924     0.065     2.144     2.290
    57   1 H        0.924     0.053     2.284     2.363
    58   1 H        0.924     0.050     2.315     2.379
    59   1 H        0.924     0.035     2.511     2.478
    60   1 H        0.925     0.048     2.339     2.392
    61   1 H        0.925     0.050     2.318     2.381
    62   1 H        0.925     0.033     2.538     2.491

Wiberg/Mayer (AO) data.
largest (>0.10) Wiberg bond orders for each atom

     #   Z sym  total        # sym  WBO       # sym  WBO       # sym  WBO
 ---------------------------------------------------------------------------
     1   6 C    3.996 --     2 C    1.020    23 H    0.987    22 H    0.987
                            21 H    0.986
     2   6 C    3.997 --     1 C    1.020     3 C    1.008    25 H    0.977
                            24 H    0.976
     3   6 C    3.996 --     2 C    1.008     4 C    1.007    27 H    0.976
                            26 H    0.975
     4   6 C    3.996 --     5 C    1.008     3 C    1.007    29 H    0.973
                            28 H    0.972
     5   6 C    3.993 --     4 C    1.008     6 C    1.006    31 H    0.970
                            30 H    0.965
     6   6 C    3.987 --     5 C    1.006     7 C    0.981    33 H    0.968
                            32 H    0.963
     7   6 C    3.984 --     8 P    1.002     6 C    0.981    35 H    0.928
                            34 H    0.927
     8  15 P    4.554 --     9 C    1.009    17 C    1.004     7 C    1.002
                            13 C    0.992
     9   6 C    3.989 --     8 P    1.009    10 C    0.991    37 H    0.936
                            36 H    0.933
    10   6 C    3.986 --    11 C    1.008     9 C    0.991    39 H    0.969
                            38 H    0.968
    11   6 C    3.995 --    12 C    1.021    10 C    1.008    40 H    0.975
                            41 H    0.962
    12   6 C    3.994 --    11 C    1.021    42 H    0.985    43 H    0.985
                            44 H    0.981
    13   6 C    3.985 --     8 P    0.992    14 C    0.991    46 H    0.931
                            45 H    0.930
    14   6 C    3.989 --    15 C    1.007    13 C    0.991    48 H    0.968
                            47 H    0.968
    15   6 C    3.995 --    16 C    1.021    14 C    1.007    49 H    0.976
                            50 H    0.961
    16   6 C    3.994 --    15 C    1.021    51 H    0.986    52 H    0.985
                            53 H    0.982
    17   6 C    3.987 --     8 P    1.004    18 C    0.991    54 H    0.931
                            55 H    0.930
    18   6 C    3.986 --    19 C    1.006    17 C    0.991    56 H    0.969
                            57 H    0.961
    19   6 C    3.995 --    20 C    1.020    18 C    1.006    58 H    0.976
                            59 H    0.965
    20   6 C    3.993 --    19 C    1.020    60 H    0.986    61 H    0.985
                            62 H    0.982
    21   1 H    0.999 --     1 C    0.986
    22   1 H    0.998 --     1 C    0.987
    23   1 H    0.998 --     1 C    0.987
    24   1 H    0.999 --     2 C    0.976
    25   1 H    0.999 --     2 C    0.977
    26   1 H    0.999 --     3 C    0.975
    27   1 H    0.998 --     3 C    0.976
    28   1 H    1.000 --     4 C    0.972
    29   1 H    0.998 --     4 C    0.973
    30   1 H    0.999 --     5 C    0.965
    31   1 H    0.997 --     5 C    0.970
    32   1 H    0.998 --     6 C    0.963
    33   1 H    0.995 --     6 C    0.968
    34   1 H    0.992 --     7 C    0.927
    35   1 H    0.991 --     7 C    0.928
    36   1 H    0.992 --     9 C    0.933
    37   1 H    0.993 --     9 C    0.936
    38   1 H    0.995 --    10 C    0.968
    39   1 H    0.997 --    10 C    0.969
    40   1 H    0.997 --    11 C    0.975
    41   1 H    0.999 --    11 C    0.962
    42   1 H    0.997 --    12 C    0.985
    43   1 H    0.997 --    12 C    0.985
    44   1 H    0.999 --    12 C    0.981
    45   1 H    0.992 --    13 C    0.930
    46   1 H    0.991 --    13 C    0.931
    47   1 H    0.995 --    14 C    0.968
    48   1 H    0.998 --    14 C    0.968
    49   1 H    0.997 --    15 C    0.976
    50   1 H    0.999 --    15 C    0.961
    51   1 H    0.997 --    16 C    0.986
    52   1 H    0.997 --    16 C    0.985
    53   1 H    0.999 --    16 C    0.982
    54   1 H    0.991 --    17 C    0.931
    55   1 H    0.993 --    17 C    0.930
    56   1 H    0.995 --    18 C    0.969
    57   1 H    0.997 --    18 C    0.961
    58   1 H    0.997 --    19 C    0.976
    59   1 H    0.999 --    19 C    0.965
    60   1 H    0.997 --    20 C    0.986
    61   1 H    0.997 --    20 C    0.985
    62   1 H    0.999 --    20 C    0.982
 ---------------------------------------------------------------------------

molecular dipole:
                 x           y           z       tot (Debye)
 q only:       -2.795       4.282      10.183
   full:       -2.962       4.368      10.228      29.254

           -------------------------------------------------
          | TOTAL ENERGY              -64.263678568719 Eh   |
          | GRADIENT NORM               0.000181139120 Eh/α |
          | HOMO-LUMO GAP               5.525059058262 eV   |
           -------------------------------------------------

 * finished run on 2024/12/20 at 02:11:16.324
