   * xtb version 6.7.1 (edcfbbe) compiled by 'conda@3ef47c1a292c' on 2024-11-25

   ID    Z sym.   atoms
    1    6 C      1, 3, 4, 6-8, 10-17
    2    7 N      2, 5
    3    8 O      9
    4    1 H      18-34

          program call               : xtb C0230.xyz --opt --namespace C0230 --charge +1
          :  Hamiltonian                  GFN2-xTB          :
 * total energy  :   -48.1614847 Eh     change       -0.6934258E-09 Eh
 * total energy  :   -48.1694036 Eh     change       -0.7918891E-02 Eh
 * total energy  :   -48.1709788 Eh     change       -0.1575216E-02 Eh
 * total energy  :   -48.1712683 Eh     change       -0.2894790E-03 Eh
 * total energy  :   -48.1714123 Eh     change       -0.1440168E-03 Eh
 * total energy  :   -48.1714855 Eh     change       -0.7317521E-04 Eh
 * total energy  :   -48.1715731 Eh     change       -0.8762949E-04 Eh
 * total energy  :   -48.1716544 Eh     change       -0.8129820E-04 Eh
 * total energy  :   -48.1717167 Eh     change       -0.6229699E-04 Eh
 * total energy  :   -48.1717615 Eh     change       -0.4479842E-04 Eh
 * total energy  :   -48.1719162 Eh     change       -0.3627417E-04 Eh
 * total energy  :   -48.1719351 Eh     change       -0.1896074E-04 Eh
 * total energy  :   -48.1719483 Eh     change       -0.1319674E-04 Eh
 * total energy  :   -48.1719556 Eh     change       -0.7230337E-05 Eh
 * total energy  :   -48.1719640 Eh     change       -0.8427368E-05 Eh
 * total energy  :   -48.1719723 Eh     change       -0.8363391E-05 Eh
 * total energy  :   -48.1719807 Eh     change       -0.8313526E-05 Eh
 * total energy  :   -48.1719864 Eh     change       -0.5756671E-05 Eh
 * total energy  :   -48.1719893 Eh     change       -0.2911310E-05 Eh
   *** GEOMETRY OPTIMIZATION CONVERGED AFTER 22 ITERATIONS ***

 final structure:
================
34
 xtb: 6.7.1 (edcfbbe)
C            0.32535910809215       -0.23683242643514        0.16997967819273
N            0.19024688404263        0.45343252797382       -1.08406919504475
C            0.31265035731627        1.79728800403013       -1.26472430075526
C            0.13053957987956        2.04773072723653       -2.59115221518657
N           -0.09856852747122        0.85174564893556       -3.20157034033430
C           -0.06001040729585       -0.09768462141569       -2.26687868793677
C           -0.36607568326598        0.58940790689168       -4.61849800970002
C            0.63284777114025       -0.55252189265008       -5.02588609432584
O            0.31661912877196       -1.69622916448585       -4.81370802279196
C            1.91679674036385       -0.17503308238894       -5.63268925535828
C            2.35664999479466       -0.91760613682589       -6.73032533105504
C            3.56689159163123       -0.62454449901508       -7.32868938100666
C            4.36571469056340        0.38655529343840       -6.81873492255383
C            3.95549476581721        1.09883139425258       -5.70195374882751
C            2.73545418308045        0.82871220995160       -5.11205124892376
C           -1.79451941757227        0.04775326062919       -4.73822766906802
C           -0.22074161290448        1.84631056752813       -5.46460798856971
H            0.04362164756598       -1.28033846933581        0.04998314941840
H           -0.31640247026993        0.22454445679933        0.92039662378218
H            1.35798329220714       -0.18574664073122        0.51860303908124
H            0.51394721408914        2.47185557715407       -0.45773847137562
H            0.14301404445731        2.98055902307671       -3.11441150454440
H           -0.19078649856834       -1.14697830848922       -2.45177414001686
H            1.72882039581691       -1.70870543647822       -7.11056300505692
H            3.89167474331213       -1.19196415887971       -8.18656134470680
H            5.31391420605902        0.61201938683728       -7.28104909294450
H            4.59083296314420        1.86663709067352       -5.28783031208158
H            2.44960441654054        1.36276499055402       -4.21644398568680
H           -2.50133420305931        0.73297683657591       -4.27635927339423
H           -2.05345499486324       -0.05940638268047       -5.78776381645084
H           -1.88251449580274       -0.93012282967640       -4.27217445548062
H           -1.01405947244230        2.55313871443482       -5.22993856512206
H            0.74281457443272        2.33047236080144       -5.34135724224270
H           -0.31887450960373        1.57342807171382       -6.51235086993193

          :  Hamiltonian                  GFN2-xTB          :
         :: total energy             -48.171989329233 Eh    ::
         :: gradient norm              0.000313677202 Eh/a0 ::
         :: HOMO-LUMO gap              3.121697942729 eV    ::
         :: SCC energy               -48.936590236399 Eh    ::
         :: -> dispersion             -0.033421138301 Eh    ::
         :: repulsion energy           0.764600907165 Eh    ::

    * Orbital Energies and Occupations

         #    Occupation            Energy/Eh            Energy/eV
      -------------------------------------------------------------
         1        2.0000           -0.8911959             -24.2507
       ...           ...                  ...                  ...
        32        2.0000           -0.6048294             -16.4582
        33        2.0000           -0.6011842             -16.3591
        34        2.0000           -0.5983531             -16.2820
        35        2.0000           -0.5945465             -16.1784
        36        2.0000           -0.5932966             -16.1444
        37        2.0000           -0.5925186             -16.1233
        38        2.0000           -0.5826358             -15.8543
        39        2.0000           -0.5819385             -15.8354
        40        2.0000           -0.5525357             -15.0353
        41        2.0000           -0.5375888             -14.6285
        42        2.0000           -0.5241817             -14.2637
        43        2.0000           -0.5227429             -14.2246
        44        2.0000           -0.5208413             -14.1728 (HOMO)
        45                         -0.4061210             -11.0511 (LUMO)
        46                         -0.3995327             -10.8718
        47                         -0.3670304              -9.9874
        48                         -0.3405537              -9.2669
        49                         -0.3294271              -8.9642
        50                         -0.2114431              -5.7537
        51                         -0.1832407              -4.9862
        52                         -0.1313980              -3.5755
        53                         -0.1059283              -2.8825
        54                         -0.0617920              -1.6814
        55                         -0.0442110              -1.2030
       ...                                ...                  ...
        85                          0.5497048              14.9582
      -------------------------------------------------------------
                  HL-Gap            0.1147203 Eh            3.1217 eV

     #   Z          covCN         q      C6AA      α(0)
     1   6 C        3.692    -0.085    22.322     6.760
     2   7 N        2.865     0.076    19.926     6.630
     3   6 C        3.074    -0.011    28.214     8.709
     4   6 C        3.068    -0.006    28.091     8.691
     5   7 N        2.875     0.052    20.332     6.697
     6   6 C        3.100     0.048    26.796     8.483
     7   6 C        3.835     0.046    19.778     6.327
     8   6 C        2.824     0.221    23.345     7.917
     9   8 O        0.857    -0.332    20.368     6.051
    10   6 C        2.971    -0.015    28.371     8.737
    11   6 C        2.926    -0.012    28.326     8.728
    12   6 C        2.918    -0.017    28.440     8.745
    13   6 C        2.920    -0.012    28.323     8.727
    14   6 C        2.918    -0.022    28.558     8.763
    15   6 C        2.920    -0.028    28.703     8.786
    16   6 C        3.760    -0.124    22.916     6.824
    17   6 C        3.757    -0.130    23.053     6.846
    18   1 H        0.925     0.101     1.777     2.085
    19   1 H        0.925     0.107     1.726     2.054
    20   1 H        0.924     0.105     1.738     2.061
    21   1 H        0.926     0.106     1.727     2.055
    22   1 H        0.927     0.109     1.706     2.043
    23   1 H        0.926     0.123     1.589     1.971
    24   1 H        0.926     0.065     2.146     2.291
    25   1 H        0.926     0.066     2.135     2.285
    26   1 H        0.926     0.064     2.152     2.294
    27   1 H        0.926     0.055     2.255     2.348
    28   1 H        0.925     0.023     2.688     2.564
    29   1 H        0.925     0.060     2.200     2.320
    30   1 H        0.925     0.081     1.972     2.196
    31   1 H        0.925     0.076     2.023     2.224
    32   1 H        0.925     0.070     2.087     2.259
    33   1 H        0.925     0.065     2.140     2.288
    34   1 H        0.925     0.077     2.010     2.217

Wiberg/Mayer (AO) data.
largest (>0.10) Wiberg bond orders for each atom

     #   Z sym  total        # sym  WBO       # sym  WBO       # sym  WBO
 ---------------------------------------------------------------------------
     1   6 C    3.934 --     2 N    0.991    18 H    0.975    19 H    0.965
                            20 H    0.961
     2   7 N    3.721 --     6 C    1.364     3 C    1.225     1 C    0.991
     3   6 C    3.947 --     4 C    1.588     2 N    1.225    21 H    0.962
     4   6 C    3.949 --     3 C    1.588     5 N    1.227    22 H    0.959
     5   7 N    3.707 --     6 C    1.357     4 C    1.227     7 C    0.927
     6   6 C    3.944 --     2 N    1.364     5 N    1.357    23 H    0.950
     7   6 C    3.932 --    17 C    1.004    16 C    0.981     5 N    0.927
                             8 C    0.889
     8   6 C    3.919 --     9 O    1.859    10 C    1.043     7 C    0.889
     9   8 O    2.109 --     8 C    1.859
    10   6 C    3.986 --    11 C    1.369    15 C    1.367     8 C    1.043
                            13 C    0.101
    11   6 C    3.986 --    12 C    1.452    10 C    1.369    24 H    0.967
                            14 C    0.104
    12   6 C    3.989 --    11 C    1.452    13 C    1.434    25 H    0.966
                            15 C    0.106
    13   6 C    3.987 --    12 C    1.434    14 C    1.426    26 H    0.968
                            10 C    0.101
    14   6 C    3.991 --    15 C    1.459    13 C    1.426    27 H    0.968
                            11 C    0.104
    15   6 C    3.991 --    14 C    1.459    10 C    1.367    28 H    0.967
                            12 C    0.106
    16   6 C    3.980 --    29 H    0.982     7 C    0.981    31 H    0.977
                            30 H    0.977
    17   6 C    3.983 --     7 C    1.004    32 H    0.978    34 H    0.976
                            33 H    0.974
    18   1 H    0.989 --     1 C    0.975
    19   1 H    0.988 --     1 C    0.965
    20   1 H    0.988 --     1 C    0.961
    21   1 H    0.988 --     3 C    0.962
    22   1 H    0.988 --     4 C    0.959
    23   1 H    0.985 --     6 C    0.950
    24   1 H    0.996 --    11 C    0.967
    25   1 H    0.995 --    12 C    0.966
    26   1 H    0.995 --    13 C    0.968
    27   1 H    0.996 --    14 C    0.968
    28   1 H    0.999 --    15 C    0.967
    29   1 H    0.996 --    16 C    0.982
    30   1 H    0.993 --    16 C    0.977
    31   1 H    0.994 --    16 C    0.977
    32   1 H    0.995 --    17 C    0.978
    33   1 H    0.996 --    17 C    0.974
    34   1 H    0.993 --    17 C    0.976
 ---------------------------------------------------------------------------

molecular dipole:
                 x           y           z       tot (Debye)
 q only:        1.092       1.858      -5.236
   full:        1.105       1.948      -5.180      14.345

           -------------------------------------------------
          | TOTAL ENERGY              -48.171989329233 Eh   |
          | GRADIENT NORM               0.000313677202 Eh/α |
          | HOMO-LUMO GAP               3.121697942729 eV   |
           -------------------------------------------------

 * finished run on 2024/12/20 at 02:11:12.501
