   * xtb version 6.7.1 (edcfbbe) compiled by 'conda@3ef47c1a292c' on 2024-11-25

   ID    Z sym.   atoms
    1    6 C      1-10, 12, 13, 15, 16
    2    7 N      11, 14
    3    1 H      17-43

          program call               : xtb C0237.xyz --opt --namespace C0237 --charge +1
          :  Hamiltonian                  GFN2-xTB          :
 * total energy  :   -49.2387905 Eh     change       -0.4576705E-08 Eh
 * total energy  :   -49.2423086 Eh     change       -0.3518046E-02 Eh
 * total energy  :   -49.2430579 Eh     change       -0.7493484E-03 Eh
 * total energy  :   -49.2431964 Eh     change       -0.1384736E-03 Eh
 * total energy  :   -49.2432961 Eh     change       -0.9966918E-04 Eh
 * total energy  :   -49.2433272 Eh     change       -0.3109974E-04 Eh
 * total energy  :   -49.2433646 Eh     change       -0.3744451E-04 Eh
 * total energy  :   -49.2433977 Eh     change       -0.3305385E-04 Eh
 * total energy  :   -49.2434139 Eh     change       -0.1619821E-04 Eh
 * total energy  :   -49.2434273 Eh     change       -0.1346523E-04 Eh
 * total energy  :   -49.2436806 Eh     change        0.9376723E-04 Eh
 * total energy  :   -49.2437968 Eh     change       -0.1161143E-03 Eh
 * total energy  :   -49.2438026 Eh     change       -0.5842101E-05 Eh
 * total energy  :   -49.2438103 Eh     change       -0.7668487E-05 Eh
 * total energy  :   -49.2438230 Eh     change       -0.1272686E-04 Eh
 * total energy  :   -49.2438280 Eh     change       -0.4996286E-05 Eh
 * total energy  :   -49.2438370 Eh     change       -0.8996681E-05 Eh
 * total energy  :   -49.2438471 Eh     change       -0.1013492E-04 Eh
 * total energy  :   -49.2438498 Eh     change       -0.2670277E-05 Eh
   *** GEOMETRY OPTIMIZATION CONVERGED AFTER 41 ITERATIONS ***

 final structure:
================
43
 xtb: 6.7.1 (edcfbbe)
C            1.00168970144907       -0.45765899567154       -0.06013415240264
C            0.69751132151644       -0.48938285677448        1.43266837917934
C            1.14514685851648        0.77573903258933        2.16659264400805
C            0.46376791226766        2.06552799104499        1.70383803689940
C           -1.06179264689001        2.06960872166966        1.82158211597861
C           -1.60021661056294        1.81915448641616        3.23146435009517
C           -1.13103029334438        2.82181968175208        4.28855527451997
C           -1.46014712818845        4.28501710728917        3.97994266789744
C           -2.94485167181251        4.58179728490780        3.76923847438463
C           -3.81198659470335        4.32487891898736        5.00770052135028
N           -3.47070851324517        5.23663047668852        6.07490789939961
C           -3.95414044129043        6.50047350868763        6.22079243670683
C           -3.32390963177009        7.05635988666903        7.29236743746208
N           -2.45856481087395        6.12446406506728        7.78027893581561
C           -2.56341240000731        5.03345473145846        7.02552114900706
C           -1.60606102216517        6.29595940197124        8.92575502165051
H            0.41747094235043        0.30656648729883       -0.56651331247257
H            0.76313940516218       -1.41749060320164       -0.51176101272383
H            2.05670640189523       -0.25397346297388       -0.22899272416589
H           -0.37148479677925       -0.65147282104864        1.58331743068334
H            1.21892789828072       -1.33906380942250        1.87951040682647
H            0.97762016324306        0.63726155228651        3.23738431117197
H            2.22156609972052        0.89630094102671        2.02307465874675
H            0.87798680938799        2.89742850541933        2.27894941491679
H            0.72032774280746        2.24609043686711        0.65902883061991
H           -1.43300893798371        3.02797665237865        1.45059302854866
H           -1.47032411900198        1.29901007687793        1.16665151796935
H           -2.69233691707560        1.81187751298979        3.18963723669944
H           -1.29170207301298        0.82461740385372        3.55611212492149
H           -1.56510459762948        2.53028105778051        5.24976666841015
H           -0.04870255665152        2.74082910833725        4.39507269494392
H           -1.06861571498504        4.91465501469688        4.78566636399491
H           -0.93297761698036        4.57579354627444        3.07176733687828
H           -3.06157962237539        5.62394013982761        3.46436356313036
H           -3.32870098987142        3.95848917094687        2.96335661624954
H           -4.86455082623362        4.47190481783792        4.75883623982852
H           -3.67199989596118        3.30270594468420        5.36091739208384
H           -4.70102983380104        6.91034145632058        5.57188138137858
H           -3.43076692747751        8.02808159824010        7.72950798364229
H           -2.00935492592833        4.12594954762766        7.16905032638527
H           -2.20381204317934        6.32856745934813        9.83919424186456
H           -0.90311928217469        5.46789102190430        8.99208602859936
H           -1.05252781463885        7.23155780106805        8.84154005891792

          :  Hamiltonian                  GFN2-xTB          :
         :: total energy             -49.243849797174 Eh    ::
         :: gradient norm              0.000947952739 Eh/a0 ::
         :: HOMO-LUMO gap              2.054337738665 eV    ::
         :: SCC energy               -49.987268348039 Eh    ::
         :: -> dispersion             -0.034442584847 Eh    ::
         :: repulsion energy           0.743418550866 Eh    ::

    * Orbital Energies and Occupations

         #    Occupation            Energy/Eh            Energy/eV
      -------------------------------------------------------------
         1        2.0000           -0.8962560             -24.3884
       ...           ...                  ...                  ...
        34        2.0000           -0.5699335             -15.5087
        35        2.0000           -0.5612300             -15.2718
        36        2.0000           -0.5560304             -15.1304
        37        2.0000           -0.5510367             -14.9945
        38        2.0000           -0.5411224             -14.7247
        39        2.0000           -0.5347926             -14.5524
        40        2.0000           -0.5276579             -14.3583
        41        2.0000           -0.5157106             -14.0332
        42        2.0000           -0.5095713             -13.8661
        43        2.0000           -0.5058089             -13.7638
        44        2.0000           -0.4884550             -13.2915
        45        2.0000           -0.4847744             -13.1914
        46        2.0000           -0.4814418             -13.1007 (HOMO)
        47                         -0.4059463             -11.0464 (LUMO)
        48                         -0.3707417             -10.0884
        49                         -0.1827085              -4.9718
        50                         -0.1279867              -3.4827
        51                         -0.0627461              -1.7074
        52                         -0.0584234              -1.5898
        53                         -0.0400401              -1.0895
        54                         -0.0301345              -0.8200
        55                         -0.0208863              -0.5683
        56                         -0.0166741              -0.4537
        57                         -0.0085843              -0.2336
       ...                                ...                  ...
        91                          0.4635733              12.6145
      -------------------------------------------------------------
                  HL-Gap            0.0754955 Eh            2.0543 eV

     #   Z          covCN         q      C6AA      α(0)
     1   6 C        3.751    -0.104    22.545     6.771
     2   6 C        3.799    -0.053    21.531     6.607
     3   6 C        3.800    -0.058    21.623     6.621
     4   6 C        3.800    -0.059    21.637     6.623
     5   6 C        3.800    -0.060    21.662     6.627
     6   6 C        3.800    -0.061    21.680     6.630
     7   6 C        3.800    -0.061    21.674     6.629
     8   6 C        3.800    -0.065    21.750     6.640
     9   6 C        3.802    -0.071    21.849     6.655
    10   6 C        3.742    -0.028    21.147     6.561
    11   7 N        2.869     0.072    19.984     6.639
    12   6 C        3.075    -0.006    28.090     8.690
    13   6 C        3.072    -0.009    28.167     8.702
    14   7 N        2.867     0.075    19.938     6.632
    15   6 C        3.100     0.047    26.835     8.489
    16   6 C        3.692    -0.086    22.328     6.761
    17   1 H        0.925     0.034     2.528     2.486
    18   1 H        0.925     0.037     2.495     2.470
    19   1 H        0.925     0.037     2.488     2.467
    20   1 H        0.924     0.029     2.598     2.521
    21   1 H        0.924     0.031     2.568     2.506
    22   1 H        0.924     0.024     2.671     2.556
    23   1 H        0.924     0.034     2.527     2.486
    24   1 H        0.924     0.024     2.678     2.559
    25   1 H        0.924     0.040     2.445     2.445
    26   1 H        0.924     0.025     2.653     2.547
    27   1 H        0.924     0.043     2.405     2.425
    28   1 H        0.924     0.025     2.666     2.553
    29   1 H        0.924     0.046     2.372     2.408
    30   1 H        0.924     0.013     2.837     2.634
    31   1 H        0.924     0.049     2.332     2.388
    32   1 H        0.924     0.018     2.758     2.597
    33   1 H        0.925     0.064     2.149     2.293
    34   1 H        0.924     0.052     2.301     2.372
    35   1 H        0.925     0.081     1.969     2.195
    36   1 H        0.924     0.087     1.910     2.161
    37   1 H        0.924     0.090     1.882     2.145
    38   1 H        0.926     0.108     1.710     2.045
    39   1 H        0.926     0.109     1.706     2.042
    40   1 H        0.926     0.114     1.661     2.016
    41   1 H        0.924     0.106     1.728     2.056
    42   1 H        0.925     0.099     1.792     2.094
    43   1 H        0.924     0.107     1.723     2.053

Wiberg/Mayer (AO) data.
largest (>0.10) Wiberg bond orders for each atom

     #   Z sym  total        # sym  WBO       # sym  WBO       # sym  WBO
 ---------------------------------------------------------------------------
     1   6 C    3.997 --     2 C    1.020    19 H    0.987    18 H    0.987
                            17 H    0.986
     2   6 C    3.998 --     1 C    1.020     3 C    1.008    21 H    0.978
                            20 H    0.976
     3   6 C    3.997 --     2 C    1.008     4 C    1.008    23 H    0.977
                            22 H    0.976
     4   6 C    3.997 --     5 C    1.008     3 C    1.008    24 H    0.975
                            25 H    0.975
     5   6 C    3.996 --     4 C    1.008     6 C    1.008    26 H    0.975
                            27 H    0.974
     6   6 C    3.996 --     5 C    1.008     7 C    1.007    28 H    0.975
                            29 H    0.973
     7   6 C    3.995 --     6 C    1.007     8 C    1.007    30 H    0.974
                            31 H    0.973
     8   6 C    3.993 --     9 C    1.009     7 C    1.007    32 H    0.974
                            33 H    0.968
     9   6 C    3.983 --     8 C    1.009    10 C    0.980    34 H    0.975
                            35 H    0.962
    10   6 C    3.934 --     9 C    0.980    11 N    0.967    36 H    0.964
                            37 H    0.961
    11   7 N    3.720 --    15 C    1.363    12 C    1.231    10 C    0.967
    12   6 C    3.951 --    13 C    1.591    11 N    1.231    38 H    0.961
    13   6 C    3.948 --    12 C    1.591    14 N    1.227    39 H    0.961
    14   7 N    3.719 --    15 C    1.357    13 C    1.227    16 C    0.991
    15   6 C    3.946 --    11 N    1.363    14 N    1.357    40 H    0.952
    16   6 C    3.934 --    14 N    0.991    42 H    0.975    43 H    0.965
                            41 H    0.960
    17   1 H    0.999 --     1 C    0.986
    18   1 H    0.999 --     1 C    0.987
    19   1 H    0.999 --     1 C    0.987
    20   1 H    0.999 --     2 C    0.976
    21   1 H    0.999 --     2 C    0.978
    22   1 H    0.999 --     3 C    0.976
    23   1 H    0.999 --     3 C    0.977
    24   1 H    0.999 --     4 C    0.975
    25   1 H    0.998 --     4 C    0.975
    26   1 H    0.999 --     5 C    0.975
    27   1 H    0.998 --     5 C    0.974
    28   1 H    0.999 --     6 C    0.975
    29   1 H    0.998 --     6 C    0.973
    30   1 H    1.000 --     7 C    0.974
    31   1 H    0.998 --     7 C    0.973
    32   1 H    1.000 --     8 C    0.974
    33   1 H    0.996 --     8 C    0.968
    34   1 H    0.997 --     9 C    0.975
    35   1 H    0.992 --     9 C    0.962
    36   1 H    0.992 --    10 C    0.964
    37   1 H    0.992 --    10 C    0.961
    38   1 H    0.988 --    12 C    0.961
    39   1 H    0.988 --    13 C    0.961
    40   1 H    0.987 --    15 C    0.952
    41   1 H    0.988 --    16 C    0.960
    42   1 H    0.990 --    16 C    0.975
    43   1 H    0.988 --    16 C    0.965
 ---------------------------------------------------------------------------

molecular dipole:
                 x           y           z       tot (Debye)
 q only:       -5.137      10.286      12.463
   full:       -5.175      10.295      12.575      43.353

           -------------------------------------------------
          | TOTAL ENERGY              -49.243849797174 Eh   |
          | GRADIENT NORM               0.000947952739 Eh/α |
          | HOMO-LUMO GAP               2.054337738665 eV   |
           -------------------------------------------------

 * finished run on 2024/12/20 at 02:11:33.938
