   * xtb version 6.7.1 (edcfbbe) compiled by 'conda@3ef47c1a292c' on 2024-11-25

   ID    Z sym.   atoms
    1    6 C      1-12, 14-19, 21-32
    2    8 O      13
    3    7 N      20
    4    1 H      33-88

          program call               : xtb C0235.xyz --opt --namespace C0235 --charge +1
          :  Hamiltonian                  GFN2-xTB          :
 * total energy  :   -99.4084921 Eh     change       -0.1082313E-08 Eh
 * total energy  :   -99.4180109 Eh     change       -0.9518796E-02 Eh
 * total energy  :   -99.4204654 Eh     change       -0.2454465E-02 Eh
 * total energy  :   -99.4209164 Eh     change       -0.4510217E-03 Eh
 * total energy  :   -99.4218807 Eh     change       -0.9643230E-03 Eh
 * total energy  :   -99.4227216 Eh     change       -0.8408252E-03 Eh
 * total energy  :   -99.4237255 Eh     change       -0.1003932E-02 Eh
 * total energy  :   -99.4250143 Eh     change       -0.1288831E-02 Eh
 * total energy  :   -99.4260108 Eh     change       -0.9965146E-03 Eh
 * total energy  :   -99.4268991 Eh     change       -0.8882761E-03 Eh
 * total energy  :   -99.4341386 Eh     change       -0.7961312E-05 Eh
 * total energy  :   -99.4341456 Eh     change       -0.6932080E-05 Eh
 * total energy  :   -99.4341519 Eh     change       -0.6333089E-05 Eh
 * total energy  :   -99.4341586 Eh     change       -0.6737518E-05 Eh
 * total energy  :   -99.4341666 Eh     change       -0.7979877E-05 Eh
 * total energy  :   -99.4341751 Eh     change       -0.8481084E-05 Eh
 * total energy  :   -99.4341823 Eh     change       -0.7244281E-05 Eh
 * total energy  :   -99.4341878 Eh     change       -0.5488041E-05 Eh
 * total energy  :   -99.4341924 Eh     change       -0.4621331E-05 Eh
   *** GEOMETRY OPTIMIZATION CONVERGED AFTER 90 ITERATIONS ***

 final structure:
================
88
 xtb: 6.7.1 (edcfbbe)
C            0.86439359270143        0.74167767651791       -0.48665733051893
C            0.37384103548652        2.14573455503239       -0.15514764490038
C            1.38193965073777        3.24117215831857       -0.50734039913764
C            1.74018944853108        3.34050610782951       -1.99236441602129
C            0.55113125126195        3.51555377413451       -2.93857512149090
C           -0.32564080413177        4.73615076269730       -2.65230042684808
C            0.36056957598515        6.08872401698731       -2.85170211968217
C            0.80822614707518        6.38101005442576       -4.28692596486129
C           -0.27324466412775        6.19423932084514       -5.35364489344481
C           -1.50600270855242        7.06743807870803       -5.12530531801343
C           -2.60008458123952        6.84996452357819       -6.17363663086493
C           -3.28640040754460        5.48927734393561       -6.04842730373132
O           -3.99761564952288        5.32504139819505       -4.82132872864537
C           -5.26834125703065        5.78178870370739       -4.67955779439494
C           -5.93841635487546        6.50195542580181       -5.66596597060149
C           -7.24342023539193        6.91697116222786       -5.49211415650702
C           -7.90882772074973        6.61810947895131       -4.31982726615055
C           -7.25864553825989        5.91143647765538       -3.32325697726923
C           -5.94727852928701        5.48532923232558       -3.47722188703706
N           -5.24331459265399        4.75464505443823       -2.38520671430334
C           -4.86280723683460        3.38594522935461       -2.88880688584578
C           -3.65095853795510        2.69764613882000       -2.25637418706189
C           -3.77071172489884        2.15615702805899       -0.82931951726980
C           -4.87786418203494        1.12147327578137       -0.61993471860132
C           -4.75135579075044       -0.12998499182033       -1.49301714694631
C           -3.42111931391159       -0.87645077605233       -1.36687702555848
C           -3.06852303847040       -1.33556193676418        0.04932475146901
C           -4.09508913376639       -2.26334188049447        0.70247706851459
C           -4.36999923780316       -3.56030249532569       -0.06034094229678
C           -3.13845807710723       -4.44622980526127       -0.20504794459758
C           -6.08804483981191        4.59662798254716       -1.18621312761571
C           -4.07317208510904        5.56734751535160       -1.98784642797982
H            0.98653637317240        0.61032514654880       -1.55870556755437
H            0.15272912381576       -0.00118653143144       -0.13219126069722
H            1.82123885362607        0.55278179990188       -0.00677580515166
H           -0.56946409484724        2.33267700514264       -0.67414146175915
H            0.17159709294034        2.20389688686817        0.91736820080270
H            0.98980107517709        4.20125731236782       -0.16329707454449
H            2.30349242837388        3.05541980645807        0.04813857590367
H            2.42939242753926        4.17711636435987       -2.12001751001878
H            2.27702943013941        2.43860497576371       -2.29079648188251
H            0.93318687485808        3.57901654759056       -3.95891611156513
H           -0.07683584454987        2.62234881232473       -2.88892282536708
H           -1.20036047719054        4.68477354767245       -3.30647178728423
H           -0.68217248504984        4.68529319677703       -1.62045787425227
H           -0.32523395547218        6.87396431832395       -2.52278055951271
H            1.23601808257325        6.14501939328477       -2.20413782412634
H            1.17035904899801        7.41046293284556       -4.32409566327844
H            1.64934833186611        5.73376749832632       -4.53992181949267
H            0.15694574946112        6.44538827887270       -6.32543959758279
H           -0.55631598522427        5.14152603302862       -5.39022116892580
H           -1.92421316391638        6.87536370426875       -4.13579687851738
H           -1.20235722577209        8.11519994040011       -5.15248275587672
H           -3.34550855049598        7.64228572721514       -6.07770770378473
H           -2.16797971773468        6.91246582849223       -7.17314115831376
H           -3.94903394466605        5.30102784298450       -6.89804801940591
H           -2.53789999810349        4.69407277649057       -6.02179909087864
H           -5.43345302421670        6.74708956639947       -6.58467228075206
H           -7.73364794059249        7.47346578018123       -6.27425383021919
H           -8.92785020229327        6.93315483856778       -4.16894495433588
H           -7.81436257718929        5.70712099478102       -2.42571672845651
H           -5.74649239181931        2.75430780780157       -2.79200486621235
H           -4.63717617827754        3.48844525737762       -3.94876857643716
H           -3.44235472848786        1.84759322975474       -2.90879230148335
H           -2.77994840093919        3.34890601502501       -2.31730866766595
H           -2.81668064079889        1.68463621015809       -0.59056421464285
H           -3.89178135443870        2.96615831714410       -0.10506954655444
H           -4.85918058212120        0.82213064761944        0.42856089319280
H           -5.85872454712084        1.56908907842186       -0.80222108105768
H           -5.56329763661845       -0.80670290088529       -1.22393325222561
H           -4.89838794908375        0.13672234193954       -2.54310359609238
H           -3.46449024082495       -1.74776443359626       -2.02183449414978
H           -2.60762261979901       -0.24663715678552       -1.73578933603837
H           -2.10590688341968       -1.84776414511482        0.00666196291969
H           -2.93510283698490       -0.46393243181712        0.69478559342548
H           -3.72784337330177       -2.51932867644786        1.69918630386190
H           -5.03852734238873       -1.72874404906893        0.83496870798558
H           -5.13840762123501       -4.11359524651165        0.48451000358172
H           -4.77489201625004       -3.33472847097932       -1.04883188744822
H           -2.69877811753491       -4.64804809543558        0.76903569153311
H           -3.41087954473471       -5.39558468303013       -0.65956394092929
H           -2.38534451074803       -3.97684703292963       -0.83296187357977
H           -5.52852399900298        4.05403677304611       -0.42944628826097
H           -6.36213399742034        5.56998468118878       -0.78317059403879
H           -6.98662888322909        4.02907125288635       -1.41844617272612
H           -3.35894541232717        5.61466931872807       -2.80503587766460
H           -4.40851943372597        6.57633011930452       -1.75118452422975
H           -3.59363892277414        5.13860535690814       -1.11178788001613

          :  Hamiltonian                  GFN2-xTB          :
         :: total energy             -99.434192446500 Eh    ::
         :: gradient norm              0.000217574568 Eh/a0 ::
         :: HOMO-LUMO gap              3.114715594667 eV    ::
         :: SCC energy              -100.903683954259 Eh    ::
         :: -> dispersion             -0.086001426895 Eh    ::
         :: repulsion energy           1.469491507759 Eh    ::

    * Orbital Energies and Occupations

         #    Occupation            Energy/Eh            Energy/eV
      -------------------------------------------------------------
         1        2.0000           -0.8510251             -23.1576
       ...           ...                  ...                  ...
        81        2.0000           -0.5123190             -13.9409
        82        2.0000           -0.5108033             -13.8997
        83        2.0000           -0.5069013             -13.7935
        84        2.0000           -0.5054997             -13.7553
        85        2.0000           -0.5030198             -13.6879
        86        2.0000           -0.5022630             -13.6673
        87        2.0000           -0.5005579             -13.6209
        88        2.0000           -0.4910665             -13.3626
        89        2.0000           -0.4867431             -13.2450
        90        2.0000           -0.4858881             -13.2217
        91        2.0000           -0.4854141             -13.2088
        92        2.0000           -0.4823479             -13.1254
        93        2.0000           -0.4792153             -13.0401 (HOMO)
        94                         -0.3647516              -9.9254 (LUMO)
        95                         -0.3504757              -9.5369
        96                         -0.2301661              -6.2631
        97                         -0.2161348              -5.8813
        98                         -0.1461893              -3.9780
        99                         -0.1319081              -3.5894
       100                         -0.1166114              -3.1732
       101                         -0.1122658              -3.0549
       102                         -0.0508537              -1.3838
       103                         -0.0494421              -1.3454
       104                         -0.0301496              -0.8204
       ...                                ...                  ...
       184                          0.5264911              14.3266
      -------------------------------------------------------------
                  HL-Gap            0.1144637 Eh            3.1147 eV

     #   Z          covCN         q      C6AA      α(0)
     1   6 C        3.751    -0.104    22.545     6.771
     2   6 C        3.799    -0.050    21.465     6.597
     3   6 C        3.800    -0.059    21.637     6.623
     4   6 C        3.800    -0.060    21.650     6.625
     5   6 C        3.800    -0.057    21.601     6.617
     6   6 C        3.800    -0.054    21.547     6.609
     7   6 C        3.800    -0.060    21.648     6.625
     8   6 C        3.800    -0.061    21.670     6.628
     9   6 C        3.801    -0.062    21.684     6.630
    10   6 C        3.801    -0.059    21.640     6.623
    11   6 C        3.800    -0.070    21.850     6.655
    12   6 C        3.684     0.070    19.605     6.339
    13   8 O        1.703    -0.279    18.637     5.829
    14   6 C        2.853     0.142    24.913     8.181
    15   6 C        2.920    -0.058    29.438     8.897
    16   6 C        2.918    -0.020    28.501     8.754
    17   6 C        2.919    -0.033    28.819     8.803
    18   6 C        2.921    -0.044    29.087     8.844
    19   6 C        2.928     0.001    28.003     8.678
    20   7 N        3.621     0.128    19.050     6.482
    21   6 C        3.754    -0.037    21.290     6.579
    22   6 C        3.799    -0.075    21.942     6.669
    23   6 C        3.799    -0.064    21.725     6.636
    24   6 C        3.800    -0.062    21.699     6.632
    25   6 C        3.800    -0.061    21.665     6.627
    26   6 C        3.800    -0.059    21.639     6.623
    27   6 C        3.800    -0.058    21.613     6.619
    28   6 C        3.800    -0.059    21.628     6.621
    29   6 C        3.799    -0.053    21.528     6.606
    30   6 C        3.751    -0.104    22.539     6.770
    31   6 C        3.722    -0.088    22.288     6.742
    32   6 C        3.725    -0.086    22.255     6.736
    33   1 H        0.925     0.035     2.511     2.478
    34   1 H        0.925     0.031     2.568     2.506
    35   1 H        0.925     0.041     2.441     2.443
    36   1 H        0.924     0.017     2.775     2.605
    37   1 H        0.924     0.027     2.632     2.537
    38   1 H        0.924     0.026     2.642     2.542
    39   1 H        0.924     0.036     2.496     2.471
    40   1 H        0.924     0.034     2.530     2.487
    41   1 H        0.924     0.038     2.480     2.463
    42   1 H        0.924     0.034     2.537     2.491
    43   1 H        0.924     0.026     2.645     2.543
    44   1 H        0.924     0.016     2.802     2.618
    45   1 H        0.924     0.022     2.699     2.569
    46   1 H        0.924     0.022     2.702     2.571
    47   1 H        0.924     0.042     2.422     2.434
    48   1 H        0.924     0.036     2.501     2.473
    49   1 H        0.924     0.041     2.435     2.440
    50   1 H        0.924     0.037     2.492     2.469
    51   1 H        0.924     0.032     2.555     2.500
    52   1 H        0.924     0.032     2.559     2.502
    53   1 H        0.924     0.044     2.393     2.419
    54   1 H        0.924     0.044     2.402     2.424
    55   1 H        0.924     0.053     2.277     2.360
    56   1 H        0.924     0.041     2.432     2.439
    57   1 H        0.924     0.066     2.132     2.283
    58   1 H        0.926     0.070     2.081     2.256
    59   1 H        0.926     0.072     2.061     2.245
    60   1 H        0.926     0.070     2.089     2.260
    61   1 H        0.926     0.065     2.138     2.287
    62   1 H        0.924     0.079     1.989     2.206
    63   1 H        0.925     0.092     1.861     2.134
    64   1 H        0.924     0.073     2.051     2.240
    65   1 H        0.925     0.060     2.202     2.321
    66   1 H        0.924     0.062     2.178     2.308
    67   1 H        0.924     0.020     2.734     2.586
    68   1 H        0.924     0.048     2.346     2.395
    69   1 H        0.924     0.018     2.764     2.600
    70   1 H        0.924     0.044     2.401     2.423
    71   1 H        0.924     0.021     2.712     2.576
    72   1 H        0.924     0.041     2.437     2.441
    73   1 H        0.924     0.025     2.662     2.552
    74   1 H        0.924     0.038     2.482     2.464
    75   1 H        0.924     0.025     2.656     2.549
    76   1 H        0.924     0.034     2.532     2.488
    77   1 H        0.924     0.026     2.649     2.545
    78   1 H        0.924     0.031     2.570     2.507
    79   1 H        0.924     0.029     2.606     2.524
    80   1 H        0.925     0.037     2.490     2.468
    81   1 H        0.925     0.036     2.506     2.475
    82   1 H        0.925     0.034     2.536     2.490
    83   1 H        0.925     0.103     1.755     2.072
    84   1 H        0.925     0.089     1.884     2.147
    85   1 H        0.925     0.089     1.893     2.152
    86   1 H        0.925     0.113     1.667     2.019
    87   1 H        0.925     0.083     1.945     2.181
    88   1 H        0.925     0.093     1.853     2.129

Wiberg/Mayer (AO) data.
largest (>0.10) Wiberg bond orders for each atom

     #   Z sym  total        # sym  WBO       # sym  WBO       # sym  WBO
 ---------------------------------------------------------------------------
     1   6 C    3.996 --     2 C    1.020    35 H    0.987    34 H    0.987
                            33 H    0.986
     2   6 C    3.999 --     1 C    1.020     3 C    1.007    37 H    0.979
                            36 H    0.973
     3   6 C    3.997 --     4 C    1.007     2 C    1.007    39 H    0.977
                            38 H    0.976
     4   6 C    3.996 --     5 C    1.008     3 C    1.007    41 H    0.975
                            40 H    0.975
     5   6 C    3.997 --     4 C    1.008     6 C    1.007    43 H    0.975
                            42 H    0.975
     6   6 C    3.999 --     7 C    1.007     5 C    1.007    45 H    0.974
                            44 H    0.969
     7   6 C    3.997 --     8 C    1.007     6 C    1.007    46 H    0.976
                            47 H    0.974
     8   6 C    3.996 --     7 C    1.007     9 C    1.006    48 H    0.977
                            49 H    0.975
     9   6 C    3.997 --    10 C    1.009     8 C    1.006    50 H    0.977
                            51 H    0.970
    10   6 C    3.995 --     9 C    1.009    11 C    1.006    53 H    0.976
                            52 H    0.971
    11   6 C    3.991 --    10 C    1.006    12 C    0.999    54 H    0.973
                            55 H    0.971
    12   6 C    3.924 --    11 C    0.999    56 H    0.966    57 H    0.962
                            13 O    0.940
    13   8 O    2.256 --    14 C    1.082    12 C    0.940
    14   6 C    3.944 --    15 C    1.368    19 C    1.318    13 O    1.082
    15   6 C    3.987 --    16 C    1.448    14 C    1.368    58 H    0.958
                            18 C    0.104
    16   6 C    3.986 --    15 C    1.448    17 C    1.433    59 H    0.967
                            19 C    0.101
    17   6 C    3.986 --    16 C    1.433    18 C    1.429    60 H    0.967
    18   6 C    3.987 --    19 C    1.430    17 C    1.429    61 H    0.960
                            15 C    0.104
    19   6 C    3.915 --    18 C    1.430    14 C    1.318    20 N    0.917
                            16 C    0.101
    20   7 N    3.807 --    31 C    0.965    32 C    0.952    19 C    0.917
                            21 C    0.912
    21   6 C    3.925 --    22 C    1.005    62 H    0.966    63 H    0.961
                            20 N    0.912
    22   6 C    3.983 --    23 C    1.006    21 C    1.005    65 H    0.965
                            64 H    0.960
    23   6 C    3.993 --    24 C    1.007    22 C    1.006    67 H    0.967
                            66 H    0.965
    24   6 C    3.996 --    23 C    1.007    25 C    1.007    69 H    0.975
                            68 H    0.973
    25   6 C    3.996 --    26 C    1.007    24 C    1.007    71 H    0.976
                            70 H    0.974
    26   6 C    3.997 --    27 C    1.008    25 C    1.007    73 H    0.975
                            72 H    0.974
    27   6 C    3.997 --    26 C    1.008    28 C    1.008    75 H    0.975
                            74 H    0.974
    28   6 C    3.997 --    29 C    1.008    27 C    1.008    76 H    0.977
                            77 H    0.976
    29   6 C    3.998 --    30 C    1.020    28 C    1.008    78 H    0.978
                            79 H    0.976
    30   6 C    3.997 --    29 C    1.020    80 H    0.987    81 H    0.987
                            82 H    0.986
    31   6 C    3.933 --    84 H    0.975    85 H    0.974    20 N    0.965
                            83 H    0.962
    32   6 C    3.927 --    87 H    0.978    88 H    0.972    86 H    0.959
                            20 N    0.952
    33   1 H    0.999 --     1 C    0.986
    34   1 H    0.999 --     1 C    0.987
    35   1 H    0.998 --     1 C    0.987
    36   1 H    1.000 --     2 C    0.973
    37   1 H    0.999 --     2 C    0.979
    38   1 H    0.999 --     3 C    0.976
    39   1 H    0.999 --     3 C    0.977
    40   1 H    0.999 --     4 C    0.975
    41   1 H    0.999 --     4 C    0.975
    42   1 H    0.999 --     5 C    0.975
    43   1 H    0.999 --     5 C    0.975
    44   1 H    1.000 --     6 C    0.969
    45   1 H    1.000 --     6 C    0.974
    46   1 H    0.999 --     7 C    0.976
    47   1 H    0.998 --     7 C    0.974
    48   1 H    0.999 --     8 C    0.977
    49   1 H    0.998 --     8 C    0.975
    50   1 H    0.999 --     9 C    0.977
    51   1 H    0.999 --     9 C    0.970
    52   1 H    0.999 --    10 C    0.971
    53   1 H    0.998 --    10 C    0.976
    54   1 H    0.998 --    11 C    0.973
    55   1 H    0.997 --    11 C    0.971
    56   1 H    0.998 --    12 C    0.966
    57   1 H    0.995 --    12 C    0.962
    58   1 H    0.995 --    15 C    0.958
    59   1 H    0.994 --    16 C    0.967
    60   1 H    0.995 --    17 C    0.967
    61   1 H    0.995 --    18 C    0.960
    62   1 H    0.994 --    21 C    0.966
    63   1 H    0.992 --    21 C    0.961
    64   1 H    0.994 --    22 C    0.960
    65   1 H    0.996 --    22 C    0.965
    66   1 H    0.996 --    23 C    0.965
    67   1 H    1.000 --    23 C    0.967
    68   1 H    0.998 --    24 C    0.973
    69   1 H    1.000 --    24 C    0.975
    70   1 H    0.998 --    25 C    0.974
    71   1 H    1.000 --    25 C    0.976
    72   1 H    0.998 --    26 C    0.974
    73   1 H    0.999 --    26 C    0.975
    74   1 H    0.999 --    27 C    0.974
    75   1 H    0.999 --    27 C    0.975
    76   1 H    0.999 --    28 C    0.977
    77   1 H    0.999 --    28 C    0.976
    78   1 H    0.999 --    29 C    0.978
    79   1 H    0.999 --    29 C    0.976
    80   1 H    0.999 --    30 C    0.987
    81   1 H    0.999 --    30 C    0.987
    82   1 H    0.999 --    30 C    0.986
    83   1 H    0.989 --    31 C    0.962
    84   1 H    0.992 --    31 C    0.975
    85   1 H    0.992 --    31 C    0.974
    86   1 H    0.987 --    32 C    0.959
    87   1 H    0.993 --    32 C    0.978
    88   1 H    0.990 --    32 C    0.972
 ---------------------------------------------------------------------------

molecular dipole:
                 x           y           z       tot (Debye)
 q only:       -8.995       8.942      -5.509
   full:       -9.120       9.028      -5.647      35.636

           -------------------------------------------------
          | TOTAL ENERGY              -99.434192446500 Eh   |
          | GRADIENT NORM               0.000217574568 Eh/α |
          | HOMO-LUMO GAP               3.114715594667 eV   |
           -------------------------------------------------

 * finished run on 2024/12/20 at 02:11:27.218
