   * xtb version 6.7.1 (edcfbbe) compiled by 'conda@3ef47c1a292c' on 2024-11-25

   ID    Z sym.   atoms
    1    6 C      1, 3, 5, 7, 8, 10-12, 15, 16, 19
    2    8 O      2, 4, 13, 14, 17, 18
    3    7 N      6, 9
    4    1 H      20-34

          program call               : xtb C0233.xyz --opt --namespace C0233 --charge +1
          :  Hamiltonian                  GFN2-xTB          :
 * total energy  :   -61.0748336 Eh     change       -0.3893987E-09 Eh
 * total energy  :   -61.0889894 Eh     change       -0.1415579E-01 Eh
 * total energy  :   -61.0928278 Eh     change       -0.3838423E-02 Eh
 * total energy  :   -61.0937084 Eh     change       -0.8805797E-03 Eh
 * total energy  :   -61.0942236 Eh     change       -0.5152441E-03 Eh
 * total energy  :   -61.0946523 Eh     change       -0.4287277E-03 Eh
 * total energy  :   -61.0952241 Eh     change       -0.5718048E-03 Eh
 * total energy  :   -61.0959080 Eh     change       -0.6838692E-03 Eh
 * total energy  :   -61.0965253 Eh     change       -0.6172741E-03 Eh
 * total energy  :   -61.0965840 Eh     change       -0.5873985E-04 Eh
 * total energy  :   -61.0993609 Eh     change       -0.1364977E-04 Eh
 * total energy  :   -61.0993699 Eh     change       -0.9026129E-05 Eh
 * total energy  :   -61.0993819 Eh     change       -0.1197688E-04 Eh
 * total energy  :   -61.0993913 Eh     change       -0.9450730E-05 Eh
 * total energy  :   -61.0993815 Eh     change        0.9802829E-05 Eh
 * total energy  :   -61.0993965 Eh     change       -0.1502620E-04 Eh
 * total energy  :   -61.0993757 Eh     change        0.2086162E-04 Eh
 * total energy  :   -61.0994036 Eh     change       -0.2792304E-04 Eh
 * total energy  :   -61.0994083 Eh     change       -0.4690656E-05 Eh
   *** GEOMETRY OPTIMIZATION CONVERGED AFTER 59 ITERATIONS ***

 final structure:
================
34
 xtb: 6.7.1 (edcfbbe)
C            1.54164823074382       -0.64221997764085        0.03898574091411
O            0.61902809952836       -1.03981932408806        1.05923853469446
C            0.88206678281228       -2.13994413014465        1.73041956603407
O            1.80928885738971       -2.87919731260153        1.59095981838012
C           -0.18606542017877       -2.33497814451355        2.84514981800217
N            0.35123366954004       -1.75007346323135        4.04425948337976
C            1.01592781281161       -2.40537875332483        5.02969359525203
C            1.49250852235744       -1.46210013511294        5.90302285950442
N            1.09641106498014       -0.23843730266716        5.42121645721570
C            0.42133079157102       -0.44122772373117        4.29355491493517
C            1.51753006427239        1.05886554983107        5.86687744078273
C            2.38289386279431        1.68758527784046        4.74703348749686
O            2.37167127616887        1.24960091589766        3.62576107858417
O            3.06176312169819        2.70012792438612        5.20860923226488
C            3.91735901775739        3.42695701465338        4.31980335662475
C            2.28602595426628       -1.65549521635315        7.15039513124856
O            2.68953178230736       -0.74562295762547        7.82759124666389
O            2.46983215857918       -2.93870366049717        7.38630541552738
C            3.22353987381497       -3.26935104976581        8.55622079588130
H            0.96391149599977       -0.10806780451627       -0.71147703030361
H            2.02718799032888       -1.51713330661687       -0.39388533902314
H            2.29189822294690        0.01619792568675        0.47927349157554
H           -1.10999204838850       -1.83325431683763        2.55502673094012
H           -0.35307544239898       -3.40175875198134        2.99770319637552
H            1.12381101824414       -3.47119437699217        5.05963703472581
H           -0.00632980588862        0.32508909734679        3.67580734197187
H            0.65747844963172        1.71120640406411        6.04087059558030
H            2.09533186458683        0.96903262439217        6.79061932224992
H            4.01729136916076        2.90022628199940        3.37079160198613
H            3.48599339883322        4.41471605665554        4.15972418320988
H            4.88417019976412        3.52191302115630        4.81052171114267
H            4.22653848206897       -2.84568214663396        8.49019639941859
H            2.72994538268598       -2.87551887588216        9.44575841962223
H            3.26584389921008       -4.35402936315291        8.58775436714113

          :  Hamiltonian                  GFN2-xTB          :
         :: total energy             -61.099408285388 Eh    ::
         :: gradient norm              0.000649858730 Eh/a0 ::
         :: HOMO-LUMO gap              3.552239194779 eV    ::
         :: SCC energy               -61.741376860407 Eh    ::
         :: -> dispersion             -0.028871763485 Eh    ::
         :: repulsion energy           0.641968575019 Eh    ::

    * Orbital Energies and Occupations

         #    Occupation            Energy/Eh            Energy/eV
      -------------------------------------------------------------
         1        2.0000           -0.9012356             -24.5239
       ...           ...                  ...                  ...
        40        2.0000           -0.6342429             -17.2586
        41        2.0000           -0.6324669             -17.2103
        42        2.0000           -0.6202241             -16.8772
        43        2.0000           -0.5939501             -16.1622
        44        2.0000           -0.5929399             -16.1347
        45        2.0000           -0.5917986             -16.1037
        46        2.0000           -0.5894656             -16.0402
        47        2.0000           -0.5738297             -15.6147
        48        2.0000           -0.5724300             -15.5766
        49        2.0000           -0.5709192             -15.5355
        50        2.0000           -0.5694360             -15.4951
        51        2.0000           -0.5628964             -15.3172
        52        2.0000           -0.5557781             -15.1235 (HOMO)
        53                         -0.4252358             -11.5713 (LUMO)
        54                         -0.4082162             -11.1081
        55                         -0.3701396             -10.0720
        56                         -0.3668849              -9.9834
        57                         -0.3120877              -8.4923
        58                         -0.1864956              -5.0748
        59                         -0.1541961              -4.1959
        60                         -0.1343867              -3.6568
        61                         -0.1329483              -3.6177
        62                         -0.1036650              -2.8209
        63                         -0.0588463              -1.6013
       ...                                ...                  ...
        91                          0.5529647              15.0469
      -------------------------------------------------------------
                  HL-Gap            0.1305424 Eh            3.5522 eV

     #   Z          covCN         q      C6AA      α(0)
     1   6 C        3.651     0.011    20.704     6.535
     2   8 O        1.704    -0.230    17.811     5.698
     3   6 C        2.717     0.360    20.898     7.483
     4   8 O        0.856    -0.355    20.812     6.116
     5   6 C        3.742    -0.063    21.783     6.659
     6   7 N        2.865     0.081    19.841     6.616
     7   6 C        3.062     0.001    27.932     8.667
     8   6 C        3.109     0.012    27.607     8.608
     9   7 N        2.863     0.078    19.882     6.622
    10   6 C        3.089     0.057    26.630     8.459
    11   6 C        3.744    -0.068    21.882     6.673
    12   6 C        2.716     0.363    20.839     7.473
    13   8 O        0.856    -0.407    21.814     6.262
    14   8 O        1.704    -0.211    17.502     5.648
    15   6 C        3.650     0.010    20.726     6.540
    16   6 C        2.726     0.361    20.870     7.479
    17   8 O        0.857    -0.383    21.349     6.195
    18   8 O        1.705    -0.227    17.771     5.692
    19   6 C        3.658     0.016    20.594     6.513
    20   1 H        0.925     0.095     1.832     2.116
    21   1 H        0.924     0.090     1.875     2.142
    22   1 H        0.924     0.086     1.915     2.164
    23   1 H        0.924     0.114     1.666     2.018
    24   1 H        0.924     0.121     1.603     1.980
    25   1 H        0.926     0.129     1.542     1.942
    26   1 H        0.926     0.136     1.493     1.911
    27   1 H        0.924     0.118     1.631     1.997
    28   1 H        0.924     0.153     1.369     1.830
    29   1 H        0.925     0.088     1.897     2.154
    30   1 H        0.925     0.093     1.855     2.130
    31   1 H        0.925     0.098     1.804     2.100
    32   1 H        0.924     0.088     1.903     2.157
    33   1 H        0.924     0.088     1.902     2.157
    34   1 H        0.925     0.098     1.802     2.099

Wiberg/Mayer (AO) data.
largest (>0.10) Wiberg bond orders for each atom

     #   Z sym  total        # sym  WBO       # sym  WBO       # sym  WBO
 ---------------------------------------------------------------------------
     1   6 C    3.892 --    20 H    0.976    21 H    0.975    22 H    0.972
                             2 O    0.929
     2   8 O    2.360 --     3 C    1.193     1 C    0.929     4 O    0.200
     3   6 C    3.938 --     4 O    1.784     2 O    1.193     5 C    0.896
     4   8 O    2.103 --     3 C    1.784     2 O    0.200
     5   6 C    3.935 --     6 N    0.981    24 H    0.959    23 H    0.959
                             3 C    0.896
     6   7 N    3.720 --    10 C    1.335     7 C    1.239     5 C    0.981
     7   6 C    3.946 --     8 C    1.530     6 N    1.239    25 H    0.955
     8   6 C    3.948 --     7 C    1.530     9 N    1.186    16 C    0.983
     9   7 N    3.716 --    10 C    1.366     8 C    1.186    11 C    0.993
    10   6 C    3.941 --     9 N    1.366     6 N    1.335    26 H    0.948
    11   6 C    3.932 --     9 N    0.993    27 H    0.938    28 H    0.934
                            12 C    0.914
    12   6 C    3.935 --    13 O    1.722    14 O    1.225    11 C    0.914
    13   8 O    2.060 --    12 C    1.722    14 O    0.192
    14   8 O    2.384 --    12 C    1.225    15 C    0.926    13 O    0.192
    15   6 C    3.887 --    29 H    0.976    31 H    0.972    30 H    0.971
                            14 O    0.926
    16   6 C    3.944 --    17 O    1.714    18 O    1.183     8 C    0.983
    17   8 O    2.064 --    16 C    1.714    18 O    0.194
    18   8 O    2.359 --    16 C    1.183    19 C    0.932    17 O    0.194
    19   6 C    3.890 --    34 H    0.977    33 H    0.972    32 H    0.972
                            18 O    0.932
    20   1 H    0.991 --     1 C    0.976
    21   1 H    0.992 --     1 C    0.975
    22   1 H    0.992 --     1 C    0.972
    23   1 H    0.987 --     5 C    0.959
    24   1 H    0.985 --     5 C    0.959
    25   1 H    0.983 --     7 C    0.955
    26   1 H    0.981 --    10 C    0.948
    27   1 H    0.986 --    11 C    0.938
    28   1 H    0.976 --    11 C    0.934
    29   1 H    0.992 --    15 C    0.976
    30   1 H    0.991 --    15 C    0.971
    31   1 H    0.990 --    15 C    0.972
    32   1 H    0.992 --    19 C    0.972
    33   1 H    0.992 --    19 C    0.972
    34   1 H    0.990 --    19 C    0.977
 ---------------------------------------------------------------------------

molecular dipole:
                 x           y           z       tot (Debye)
 q only:        2.128      -0.966       8.702
   full:        1.888      -0.916       8.710      22.772

           -------------------------------------------------
          | TOTAL ENERGY              -61.099408285388 Eh   |
          | GRADIENT NORM               0.000649858730 Eh/α |
          | HOMO-LUMO GAP               3.552239194779 eV   |
           -------------------------------------------------

 * finished run on 2024/12/20 at 02:11:17.871
