   * xtb version 6.7.1 (edcfbbe) compiled by 'conda@3ef47c1a292c' on 2024-11-25

   ID    Z sym.   atoms
    1    6 C      1, 3, 4, 6-14
    2    7 N      2, 5
    3    8 O      15
    4    1 H      16-30

          program call               : xtb C0239.xyz --opt --namespace C0239 --charge +1
          :  Hamiltonian                  GFN2-xTB          :
 * total energy  :   -42.8622523 Eh     change       -0.5349392E-09 Eh
 * total energy  :   -42.8685782 Eh     change       -0.6325923E-02 Eh
 * total energy  :   -42.8700898 Eh     change       -0.1511667E-02 Eh
 * total energy  :   -42.8703462 Eh     change       -0.2563398E-03 Eh
 * total energy  :   -42.8704610 Eh     change       -0.1147874E-03 Eh
 * total energy  :   -42.8705169 Eh     change       -0.5590484E-04 Eh
 * total energy  :   -42.8706063 Eh     change       -0.8942424E-04 Eh
 * total energy  :   -42.8707199 Eh     change       -0.1136220E-03 Eh
 * total energy  :   -42.8708459 Eh     change       -0.1259866E-03 Eh
 * total energy  :   -42.8709765 Eh     change       -0.1305829E-03 Eh
 * total energy  :   -42.8714245 Eh     change       -0.1238835E-04 Eh
 * total energy  :   -42.8714362 Eh     change       -0.1166636E-04 Eh
 * total energy  :   -42.8714434 Eh     change       -0.7214774E-05 Eh
 * total energy  :   -42.8714512 Eh     change       -0.7757345E-05 Eh
 * total energy  :   -42.8714581 Eh     change       -0.6867487E-05 Eh
 * total energy  :   -42.8714656 Eh     change       -0.7539231E-05 Eh
 * total energy  :   -42.8714728 Eh     change       -0.7204899E-05 Eh
 * total energy  :   -42.8714781 Eh     change       -0.5348586E-05 Eh
 * total energy  :   -42.8714824 Eh     change       -0.4260316E-05 Eh
   *** GEOMETRY OPTIMIZATION CONVERGED AFTER 28 ITERATIONS ***

 final structure:
================
30
 xtb: 6.7.1 (edcfbbe)
C            0.30999497870251       -0.10786917726939        0.17947418164732
N            0.17394235121031       -0.16444125249320       -1.25041288111550
C            0.53146207014277        0.82517407900186       -2.11627235936746
C            0.24519337659988        0.38642883676595       -3.37287847383180
N           -0.29050757831534       -0.86005166129437       -3.25511134333622
C           -0.31462990052642       -1.17629961736590       -1.96186424618056
C           -0.62257859804971       -1.74069526959239       -4.33741538499829
C            0.58822853761062       -2.63571109686879       -4.72431660371922
C            1.03667693110609       -3.42099307545879       -3.51137028161853
C            0.42029824339632       -4.62584161583012       -3.19689525261208
C            0.80235397520097       -5.32876787403380       -2.06794086246484
C            1.79384267251983       -4.82706405087331       -1.24022143655193
C            2.40906651583830       -3.62446749828029       -1.54722538436044
C            2.03279889498487       -2.92179441662720       -2.67944143316919
O            0.11182206297662       -3.42955931187343       -5.77398133707124
H           -0.02184452527153       -1.04528934198256        0.61951731447712
H           -0.28978857991271        0.70915622742650        0.58275264674503
H            1.35261405618841        0.06364974220049        0.44891978129495
H            0.95269052184310        1.75358142711471       -1.78771573616738
H            0.37603483158298        0.87057784083971       -4.31924578523471
H           -0.68376771108883       -2.09892319724755       -1.55821814471280
H           -1.44357344921812       -2.39958470339340       -4.04942151678369
H           -0.92359610166166       -1.16375550921145       -5.21257377395612
H            1.41148658719071       -1.98470653273992       -5.06524452120167
H           -0.34749674359135       -5.01167115180855       -3.85123312643117
H            0.32942632224496       -6.27044342945212       -1.83719799341812
H            2.09586730134595       -5.37856567516090       -0.36373002283868
H            3.19300954028654       -3.23981507812522       -0.91279584993300
H            2.53316488871408       -1.99668543969648       -2.93359599225140
H            0.80058852795004       -4.03696217666818       -6.06637418083609

          :  Hamiltonian                  GFN2-xTB          :
         :: total energy             -42.871482405715 Eh    ::
         :: gradient norm              0.000424163965 Eh/a0 ::
         :: HOMO-LUMO gap              3.078611940772 eV    ::
         :: SCC energy               -43.539727689863 Eh    ::
         :: -> dispersion             -0.028763667161 Eh    ::
         :: repulsion energy           0.668245284148 Eh    ::

    * Orbital Energies and Occupations

         #    Occupation            Energy/Eh            Energy/eV
      -------------------------------------------------------------
         1        2.0000           -0.8978117             -24.4307
       ...           ...                  ...                  ...
        27        2.0000           -0.6198339             -16.8665
        28        2.0000           -0.6135843             -16.6965
        29        2.0000           -0.6072868             -16.5251
        30        2.0000           -0.6020676             -16.3831
        31        2.0000           -0.5986533             -16.2902
        32        2.0000           -0.5942883             -16.1714
        33        2.0000           -0.5883749             -16.0105
        34        2.0000           -0.5817674             -15.8307
        35        2.0000           -0.5521602             -15.0250
        36        2.0000           -0.5386370             -14.6571
        37        2.0000           -0.5326451             -14.4940
        38        2.0000           -0.5244225             -14.2703
        39        2.0000           -0.5209343             -14.1753 (HOMO)
        40                         -0.4077974             -11.0967 (LUMO)
        41                         -0.3726883             -10.1414
        42                         -0.3464673              -9.4279
        43                         -0.3422444              -9.3129
        44                         -0.2165530              -5.8927
        45                         -0.1839924              -5.0067
        46                         -0.1311472              -3.5687
        47                         -0.0657593              -1.7894
        48                         -0.0546030              -1.4858
        49                         -0.0502637              -1.3677
        50                         -0.0464771              -1.2647
       ...                                ...                  ...
        75                          0.5427609              14.7693
      -------------------------------------------------------------
                  HL-Gap            0.1131369 Eh            3.0786 eV

     #   Z          covCN         q      C6AA      α(0)
     1   6 C        3.692    -0.087    22.359     6.766
     2   7 N        2.867     0.079    19.870     6.621
     3   6 C        3.071    -0.009    28.178     8.704
     4   6 C        3.071    -0.006    28.098     8.691
     5   7 N        2.869     0.068    20.060     6.652
     6   6 C        3.097     0.047    26.839     8.490
     7   6 C        3.746    -0.033    21.240     6.574
     8   6 C        3.730     0.114    18.811     6.192
     9   6 C        2.972    -0.025    28.619     8.775
    10   6 C        2.922    -0.035    28.883     8.813
    11   6 C        2.919    -0.025    28.629     8.774
    12   6 C        2.920    -0.026    28.645     8.777
    13   6 C        2.919    -0.030    28.760     8.794
    14   6 C        2.922    -0.048    29.187     8.859
    15   8 O        1.658    -0.426    21.351     6.238
    16   1 H        0.925     0.099     1.790     2.092
    17   1 H        0.924     0.109     1.705     2.042
    18   1 H        0.924     0.108     1.715     2.048
    19   1 H        0.926     0.112     1.678     2.026
    20   1 H        0.926     0.112     1.678     2.026
    21   1 H        0.926     0.114     1.661     2.016
    22   1 H        0.924     0.101     1.773     2.083
    23   1 H        0.924     0.107     1.726     2.054
    24   1 H        0.923     0.032     2.561     2.502
    25   1 H        0.926     0.058     2.222     2.331
    26   1 H        0.926     0.056     2.245     2.343
    27   1 H        0.926     0.055     2.262     2.352
    28   1 H        0.926     0.046     2.376     2.411
    29   1 H        0.925     0.021     2.719     2.578
    30   1 H        0.805     0.315     0.678     1.294

Wiberg/Mayer (AO) data.
largest (>0.10) Wiberg bond orders for each atom

     #   Z sym  total        # sym  WBO       # sym  WBO       # sym  WBO
 ---------------------------------------------------------------------------
     1   6 C    3.933 --     2 N    0.991    16 H    0.976    18 H    0.963
                            17 H    0.962
     2   7 N    3.720 --     6 C    1.362     3 C    1.223     1 C    0.991
     3   6 C    3.947 --     4 C    1.594     2 N    1.223    19 H    0.961
     4   6 C    3.947 --     3 C    1.594     5 N    1.224    20 H    0.960
     5   7 N    3.716 --     6 C    1.353     4 C    1.224     7 C    0.983
     6   6 C    3.947 --     2 N    1.362     5 N    1.353    21 H    0.953
     7   6 C    3.934 --     5 N    0.983    22 H    0.961    23 H    0.961
                             8 C    0.940
     8   6 C    3.957 --    15 O    1.007     9 C    0.985    24 H    0.955
                             7 C    0.940
     9   6 C    3.986 --    10 C    1.414    14 C    1.406     8 C    0.985
                            12 C    0.108
    10   6 C    3.990 --    11 C    1.444     9 C    1.414    25 H    0.966
                            13 C    0.111
    11   6 C    3.990 --    10 C    1.444    12 C    1.438    26 H    0.969
                            14 C    0.110
    12   6 C    3.990 --    13 C    1.439    11 C    1.438    27 H    0.969
                             9 C    0.108
    13   6 C    3.991 --    14 C    1.442    12 C    1.439    28 H    0.970
                            10 C    0.111
    14   6 C    3.992 --    13 C    1.442     9 C    1.406    29 H    0.969
                            11 C    0.110
    15   8 O    1.971 --     8 C    1.007    30 H    0.883
    16   1 H    0.990 --     1 C    0.976
    17   1 H    0.987 --     1 C    0.962
    18   1 H    0.988 --     1 C    0.963
    19   1 H    0.987 --     3 C    0.961
    20   1 H    0.987 --     4 C    0.960
    21   1 H    0.987 --     6 C    0.953
    22   1 H    0.989 --     7 C    0.961
    23   1 H    0.987 --     7 C    0.961
    24   1 H    0.999 --     8 C    0.955
    25   1 H    0.997 --    10 C    0.966
    26   1 H    0.997 --    11 C    0.969
    27   1 H    0.996 --    12 C    0.969
    28   1 H    0.998 --    13 C    0.970
    29   1 H    1.000 --    14 C    0.969
    30   1 H    0.901 --    15 O    0.883
 ---------------------------------------------------------------------------

molecular dipole:
                 x           y           z       tot (Debye)
 q only:        0.482      -1.783      -3.846
   full:        0.694      -1.856      -3.839      10.981

           -------------------------------------------------
          | TOTAL ENERGY              -42.871482405715 Eh   |
          | GRADIENT NORM               0.000424163965 Eh/α |
          | HOMO-LUMO GAP               3.078611940772 eV   |
           -------------------------------------------------

 * finished run on 2024/12/20 at 02:11:35.925
