   * xtb version 6.7.1 (edcfbbe) compiled by 'conda@3ef47c1a292c' on 2024-11-25

   ID    Z sym.   atoms
    1    6 C      1, 3, 4
    2    7 N      2, 5-7
    3    1 H      8-14

          program call               : xtb C0232.xyz --opt --namespace C0232 --charge +1
          :  Hamiltonian                  GFN2-xTB          :
 * total energy  :   -21.2156555 Eh     change       -0.4682477E-10 Eh
 * total energy  :   -21.2254687 Eh     change       -0.9813232E-02 Eh
 * total energy  :   -21.2276086 Eh     change       -0.2139900E-02 Eh
 * total energy  :   -21.2278964 Eh     change       -0.2877684E-03 Eh
 * total energy  :   -21.2280659 Eh     change       -0.1695148E-03 Eh
 * total energy  :   -21.2280810 Eh     change       -0.1513673E-04 Eh
 * total energy  :   -21.2280885 Eh     change       -0.7473074E-05 Eh
 * total energy  :   -21.2280921 Eh     change       -0.3580122E-05 Eh
   *** GEOMETRY OPTIMIZATION CONVERGED AFTER 8 ITERATIONS ***

 final structure:
================
14
 xtb: 6.7.1 (edcfbbe)
C            0.91990398824286        0.01116289255647       -0.09337320025552
N            0.55770768520884        1.39604753294576       -0.16469244782788
C            1.33172046134046        2.47513148933533        0.02733621074672
C            0.50819593560993        3.56768938344059       -0.12360921082975
N           -0.70991412441151        3.04816022970730       -0.40045826107016
N           -0.67585925038306        1.74911586728163       -0.43018776955147
N           -1.86538094661728        3.71074765507247       -0.53687589533941
H            0.49229567771817       -0.51985191778239       -0.94329172328176
H            0.52141304717030       -0.43216065148743        0.82079906380466
H            2.00270305605211       -0.08606221891910       -0.10083241946023
H            2.37714629180490        2.42390666876580        0.25309561796265
H            0.70679682151190        4.61640220677319       -0.05092228507206
H           -2.62915394303242        3.13373041616014       -0.86650194023159
H           -1.80362470021523        4.63881044615023       -0.93348573959419

          :  Hamiltonian                  GFN2-xTB          :
         :: total energy             -21.228092075081 Eh    ::
         :: gradient norm              0.000889673997 Eh/a0 ::
         :: HOMO-LUMO gap              3.901019316174 eV    ::
         :: SCC energy               -21.498553073906 Eh    ::
         :: -> dispersion             -0.007984010371 Eh    ::
         :: repulsion energy           0.270460998825 Eh    ::

    * Orbital Energies and Occupations

         #    Occupation            Energy/Eh            Energy/eV
      -------------------------------------------------------------
         1        2.0000           -0.9436511             -25.6781
       ...           ...                  ...                  ...
         7        2.0000           -0.8016555             -21.8142
         8        2.0000           -0.7790137             -21.1980
         9        2.0000           -0.7569104             -20.5966
        10        2.0000           -0.7276236             -19.7996
        11        2.0000           -0.7220028             -19.6467
        12        2.0000           -0.7137761             -19.4228
        13        2.0000           -0.6964633             -18.9517
        14        2.0000           -0.6827393             -18.5783
        15        2.0000           -0.6521052             -17.7447
        16        2.0000           -0.6458119             -17.5734
        17        2.0000           -0.6265294             -17.0487
        18        2.0000           -0.6250166             -17.0076
        19        2.0000           -0.5854372             -15.9306 (HOMO)
        20                         -0.4420774             -12.0295 (LUMO)
        21                         -0.3958921             -10.7728
        22                         -0.2293502              -6.2409
        23                         -0.1631377              -4.4392
        24                         -0.1147867              -3.1235
        25                         -0.0929374              -2.5290
        26                         -0.0439308              -1.1954
        27                         -0.0177823              -0.4839
        28                         -0.0063435              -0.1726
        29                          0.0131017               0.3565
        30                          0.0328815               0.8948
       ...                                ...                  ...
        35                          0.4428139              12.0496
      -------------------------------------------------------------
                  HL-Gap            0.1433598 Eh            3.9010 eV

     #   Z          covCN         q      C6AA      α(0)
     1   6 C        3.694    -0.097    22.548     6.794
     2   7 N        3.024     0.163    18.506     6.389
     3   6 C        3.019    -0.003    28.067     8.690
     4   6 C        3.004    -0.033    28.804     8.804
     5   7 N        3.105     0.260    17.051     6.133
     6   7 N        2.153    -0.142    24.612     7.361
     7   7 N        2.717    -0.211    25.602     7.515
     8   1 H        0.925     0.123     1.590     1.972
     9   1 H        0.924     0.121     1.602     1.980
    10   1 H        0.925     0.112     1.681     2.028
    11   1 H        0.926     0.122     1.595     1.975
    12   1 H        0.927     0.120     1.610     1.984
    13   1 H        0.860     0.237     0.935     1.515
    14   1 H        0.860     0.228     0.975     1.546

Wiberg/Mayer (AO) data.
largest (>0.10) Wiberg bond orders for each atom

     #   Z sym  total        # sym  WBO       # sym  WBO       # sym  WBO
 ---------------------------------------------------------------------------
     1   6 C    3.923 --     2 N    0.989    10 H    0.971     8 H    0.960
                             9 H    0.951
     2   7 N    3.748 --     3 C    1.320     6 N    1.269     1 C    0.989
     3   6 C    3.958 --     4 C    1.494     2 N    1.320    11 H    0.957
                             6 N    0.115
     4   6 C    3.941 --     3 C    1.494     5 N    1.252    12 H    0.958
     5   7 N    3.791 --     6 N    1.295     4 C    1.252     7 N    1.114
     6   7 N    2.966 --     5 N    1.295     2 N    1.269     3 C    0.115
                             7 N    0.114
     7   7 N    3.226 --     5 N    1.114    14 H    0.926    13 H    0.924
                             6 N    0.114
     8   1 H    0.985 --     1 C    0.960
     9   1 H    0.985 --     1 C    0.951
    10   1 H    0.987 --     1 C    0.971
    11   1 H    0.985 --     3 C    0.957
    12   1 H    0.986 --     4 C    0.958
    13   1 H    0.944 --     7 N    0.924
    14   1 H    0.947 --     7 N    0.926
 ---------------------------------------------------------------------------

molecular dipole:
                 x           y           z       tot (Debye)
 q only:       -0.046       4.513      -0.688
   full:        0.146       4.783      -0.842      12.350

           -------------------------------------------------
          | TOTAL ENERGY              -21.228092075081 Eh   |
          | GRADIENT NORM               0.000889673997 Eh/α |
          | HOMO-LUMO GAP               3.901019316174 eV   |
           -------------------------------------------------

 * finished run on 2024/12/20 at 02:11:16.425
