   * xtb version 6.7.1 (edcfbbe) compiled by 'conda@3ef47c1a292c' on 2024-11-25

   ID    Z sym.   atoms
    1    6 C      1, 3-12
    2    7 N      2, 13
    3    1 H      14-24

          program call               : xtb C0234.xyz --opt --namespace C0234 --charge +1
          :  Hamiltonian                  GFN2-xTB          :
 * total energy  :   -34.5865371 Eh     change       -0.1953438E-08 Eh
 * total energy  :   -34.5900434 Eh     change       -0.3506263E-02 Eh
 * total energy  :   -34.5907054 Eh     change       -0.6619912E-03 Eh
 * total energy  :   -34.5908672 Eh     change       -0.1618330E-03 Eh
 * total energy  :   -34.5911026 Eh     change       -0.2353785E-03 Eh
 * total energy  :   -34.5912876 Eh     change       -0.1850333E-03 Eh
 * total energy  :   -34.5914824 Eh     change       -0.1948276E-03 Eh
 * total energy  :   -34.5917332 Eh     change       -0.2507903E-03 Eh
 * total energy  :   -34.5919572 Eh     change       -0.2239953E-03 Eh
 * total energy  :   -34.5921323 Eh     change       -0.1750753E-03 Eh
 * total energy  :   -34.5923646 Eh     change       -0.9552628E-04 Eh
 * total energy  :   -34.5924213 Eh     change       -0.5666533E-04 Eh
 * total energy  :   -34.5924233 Eh     change       -0.2012280E-05 Eh
 * total energy  :   -34.5924645 Eh     change       -0.4117795E-04 Eh
 * total energy  :   -34.5924795 Eh     change       -0.1503649E-04 Eh
 * total energy  :   -34.5925047 Eh     change       -0.2521692E-04 Eh
 * total energy  :   -34.5925170 Eh     change       -0.1233436E-04 Eh
 * total energy  :   -34.5925200 Eh     change       -0.3000966E-05 Eh
 * total energy  :   -34.5925225 Eh     change       -0.2491204E-05 Eh
   *** GEOMETRY OPTIMIZATION CONVERGED AFTER 20 ITERATIONS ***

 final structure:
================
24
 xtb: 6.7.1 (edcfbbe)
C           -2.36302104435092       -0.12037438088317        0.33076839166028
N           -0.93397025772717       -0.02336921579486        0.12310924318791
C           -0.24761923177640       -1.14282997079330       -0.13724111759410
C            1.11512906769473       -1.09915483049684       -0.35584936300254
C            1.77314865121968        0.11589629624407       -0.29700669939058
C            1.05127994587596        1.28289217403885       -0.01000274658257
C           -0.31921393046845        1.16013569917557        0.18856962203612
C            1.75880341074469        2.56908339557607        0.04250297944280
C            1.22406678993527        3.72320850696529        0.61305178004273
C            1.98786560670202        4.88151444518741        0.59616850903547
C            3.24545555017669        4.85212644561224        0.01696461064550
C            3.69654215886368        3.64557522691344       -0.51080737563250
N            2.97986599954918        2.54371785661882       -0.49575622519446
H           -2.83740145010474       -0.58222682836561       -0.53575072113036
H           -2.57326992644403       -0.73675320762126        1.20613028157230
H           -2.79727562462892        0.86474048077654        0.48403846496728
H           -0.80426049222116       -2.06708497931528       -0.17221549974845
H            1.64945258442189       -2.01056422505892       -0.57060252589586
H            2.83401028901617        0.20266748203459       -0.47332507192823
H           -0.93869998306420        2.02104488323386        0.38821292754799
H            0.25359149544102        3.72737835708816        1.08256776856592
H            1.60261836224311        5.79059994353196        1.03220004294074
H            3.86403522699089        5.73367501161873       -0.02071076513112
H            4.67341680191144        3.55989143371369       -0.96532651041456

          :  Hamiltonian                  GFN2-xTB          :
         :: total energy             -34.592522540430 Eh    ::
         :: gradient norm              0.000713189501 Eh/a0 ::
         :: HOMO-LUMO gap              1.229615836012 eV    ::
         :: SCC energy               -35.200727237282 Eh    ::
         :: -> dispersion             -0.020946083731 Eh    ::
         :: repulsion energy           0.608204696853 Eh    ::

    * Orbital Energies and Occupations

         #    Occupation            Energy/Eh            Energy/eV
      -------------------------------------------------------------
         1        2.0000           -0.8748042             -23.8046
       ...           ...                  ...                  ...
        20        2.0000           -0.6402016             -17.4208
        21        2.0000           -0.6390942             -17.3906
        22        2.0000           -0.6367093             -17.3257
        23        2.0000           -0.6234538             -16.9650
        24        2.0000           -0.6113190             -16.6348
        25        2.0000           -0.6097532             -16.5922
        26        2.0000           -0.6064304             -16.5018
        27        2.0000           -0.6037882             -16.4299
        28        2.0000           -0.5871458             -15.9771
        29        2.0000           -0.5632144             -15.3258
        30        2.0000           -0.5598891             -15.2354
        31        2.0000           -0.5405303             -14.7086
        32        2.0000           -0.4951908             -13.4748 (HOMO)
        33                         -0.4500033             -12.2452 (LUMO)
        34                         -0.4286484             -11.6641
        35                         -0.3694598             -10.0535
        36                         -0.3572958              -9.7225
        37                         -0.2893404              -7.8734
        38                         -0.2231853              -6.0732
        39                         -0.1677511              -4.5647
        40                         -0.0751376              -2.0446
        41                         -0.0504241              -1.3721
        42                         -0.0315015              -0.8572
        43                         -0.0096838              -0.2635
       ...                                ...                  ...
        63                          0.5224623              14.2169
      -------------------------------------------------------------
                  HL-Gap            0.0451876 Eh            1.2296 eV

     #   Z          covCN         q      C6AA      α(0)
     1   6 C        3.712    -0.094    22.438     6.769
     2   7 N        2.747     0.117    19.245     6.515
     3   6 C        2.894     0.023    27.494     8.597
     4   6 C        2.912    -0.012    28.306     8.724
     5   6 C        2.931     0.006    27.877     8.659
     6   6 C        2.977     0.035    27.217     8.558
     7   6 C        2.893     0.019    27.594     8.613
     8   6 C        2.961     0.086    26.081     8.377
     9   6 C        2.915    -0.035    28.875     8.812
    10   6 C        2.927    -0.001    28.062     8.687
    11   6 C        2.914    -0.021    28.529     8.759
    12   6 C        2.901     0.070    26.440     8.431
    13   7 N        1.848    -0.210    26.411     7.617
    14   1 H        0.924     0.110     1.693     2.035
    15   1 H        0.924     0.111     1.689     2.033
    16   1 H        0.925     0.103     1.755     2.072
    17   1 H        0.926     0.107     1.724     2.053
    18   1 H        0.926     0.107     1.725     2.054
    19   1 H        0.926     0.125     1.576     1.963
    20   1 H        0.926     0.100     1.784     2.089
    21   1 H        0.926     0.047     2.358     2.401
    22   1 H        0.926     0.067     2.120     2.277
    23   1 H        0.926     0.072     2.066     2.248
    24   1 H        0.926     0.070     2.084     2.258

Wiberg/Mayer (AO) data.
largest (>0.10) Wiberg bond orders for each atom

     #   Z sym  total        # sym  WBO       # sym  WBO       # sym  WBO
 ---------------------------------------------------------------------------
     1   6 C    3.932 --     2 N    0.984    16 H    0.974    14 H    0.961
                            15 H    0.959
     2   7 N    3.767 --     7 C    1.335     3 C    1.317     1 C    0.984
     3   6 C    3.946 --     4 C    1.447     2 N    1.317    17 H    0.956
     4   6 C    3.979 --     3 C    1.447     5 C    1.445    18 H    0.959
     5   6 C    3.965 --     4 C    1.445     6 C    1.349    19 H    0.952
     6   6 C    3.982 --     7 C    1.395     5 C    1.349     8 C    1.061
     7   6 C    3.958 --     6 C    1.395     2 N    1.335    20 H    0.951
     8   6 C    3.982 --     9 C    1.381    13 N    1.364     6 C    1.061
                            11 C    0.104
     9   6 C    3.991 --    10 C    1.437     8 C    1.381    21 H    0.965
    10   6 C    3.986 --    11 C    1.450     9 C    1.437    22 H    0.967
    11   6 C    3.974 --    10 C    1.450    12 C    1.390    23 H    0.967
                             8 C    0.104
    12   6 C    3.972 --    13 N    1.476    11 C    1.390    24 H    0.960
    13   7 N    3.072 --    12 C    1.476     8 C    1.364
    14   1 H    0.988 --     1 C    0.961
    15   1 H    0.987 --     1 C    0.959
    16   1 H    0.989 --     1 C    0.974
    17   1 H    0.988 --     3 C    0.956
    18   1 H    0.988 --     4 C    0.959
    19   1 H    0.984 --     5 C    0.952
    20   1 H    0.990 --     7 C    0.951
    21   1 H    0.998 --     9 C    0.965
    22   1 H    0.995 --    10 C    0.967
    23   1 H    0.995 --    11 C    0.967
    24   1 H    0.995 --    12 C    0.960
 ---------------------------------------------------------------------------

molecular dipole:
                 x           y           z       tot (Debye)
 q only:       -0.016       1.365       0.209
   full:       -0.237       1.657       0.371       4.357

           -------------------------------------------------
          | TOTAL ENERGY              -34.592522540430 Eh   |
          | GRADIENT NORM               0.000713189501 Eh/α |
          | HOMO-LUMO GAP               1.229615836012 eV   |
           -------------------------------------------------

 * finished run on 2024/12/20 at 02:11:18.210
