   * xtb version 6.7.1 (edcfbbe) compiled by 'conda@3ef47c1a292c' on 2024-11-25

   ID    Z sym.   atoms
    1   17 Cl     1
    2    6 C      2-8, 10, 12, 13, 15, 17, 19-22
    3    8 O      9, 16, 18
    4    7 N      11, 14
    5    1 H      23-40

          program call               : xtb C0242.xyz --opt --namespace C0242 --charge +1
          :  Hamiltonian                  GFN2-xTB          :
 * total energy  :   -65.5940911 Eh     change       -0.9793695E-09 Eh
 * total energy  :   -65.6039742 Eh     change       -0.9883055E-02 Eh
 * total energy  :   -65.6065747 Eh     change       -0.2600531E-02 Eh
 * total energy  :   -65.6072383 Eh     change       -0.6636339E-03 Eh
 * total energy  :   -65.6075702 Eh     change       -0.3319213E-03 Eh
 * total energy  :   -65.6077292 Eh     change       -0.1589955E-03 Eh
 * total energy  :   -65.6079098 Eh     change       -0.1805163E-03 Eh
 * total energy  :   -65.6080957 Eh     change       -0.1859567E-03 Eh
 * total energy  :   -65.6082842 Eh     change       -0.1884821E-03 Eh
 * total energy  :   -65.6084917 Eh     change       -0.2075135E-03 Eh
 * total energy  :   -65.6181514 Eh     change       -0.3091987E-04 Eh
 * total energy  :   -65.6181864 Eh     change       -0.3494475E-04 Eh
 * total energy  :   -65.6182148 Eh     change       -0.2847304E-04 Eh
 * total energy  :   -65.6182518 Eh     change       -0.3690785E-04 Eh
 * total energy  :   -65.6182751 Eh     change       -0.2336306E-04 Eh
 * total energy  :   -65.6182892 Eh     change       -0.1404849E-04 Eh
 * total energy  :   -65.6182953 Eh     change       -0.6164120E-05 Eh
 * total energy  :   -65.6182985 Eh     change       -0.3182351E-05 Eh
 * total energy  :   -65.6183011 Eh     change       -0.2621851E-05 Eh
   *** GEOMETRY OPTIMIZATION CONVERGED AFTER 67 ITERATIONS ***

 final structure:
================
40
 xtb: 6.7.1 (edcfbbe)
Cl          -1.57590859328733       -2.06674525195118        1.89055092820509
C           -0.33341303156499       -1.22335391192592        1.06935577702429
C           -0.03800083763334       -1.53453479149261       -0.25577675176746
C            0.96245244637050       -0.84839090178484       -0.90574233084123
C            1.68678965146526        0.16134091336127       -0.25472030580962
C            1.37890920321303        0.46018447946754        1.07847147352136
C            0.37969887419076       -0.22643199230824        1.73274847577842
C            2.73132517806263        0.83000166645758       -1.02010178916302
O            3.05488810588807        0.54155383515358       -2.14740763619697
C            3.48749864960542        1.99523124839559       -0.30665015796805
N            4.35464716609682        2.62174709018925       -1.26185823738909
C            5.37460259355550        1.98618780740265       -1.90292499101541
C            5.84884501925216        2.82694919974066       -2.86276498830681
N            5.09725258636961        3.95775087239032       -2.78183707760329
C            4.18854379272341        3.82075206978931       -1.81700133659944
O            5.25957843028638        5.02591698557451       -3.60711856549411
C            4.09668921437741        5.55732465833321       -4.18617284947125
O            3.02940436877614        5.14340686188761       -3.85934521267686
C            4.42233969222019        6.66469996900702       -5.14770684899389
C            4.01694191161992        7.96432817525081       -4.42924160762889
C            5.90126936213576        6.70560974610038       -5.52502409834881
C            3.54657605311941        6.46292228248471       -6.39070015946377
H           -0.59120067300806       -2.30854909689025       -0.76297859826420
H            1.20800333175951       -1.07609178496483       -1.93152012021003
H            1.91866437520190        1.22141878061649        1.61955542242261
H            0.14334697770690        0.00152896680969        2.75981946343651
H            2.77816668559216        2.72645540281561        0.08023111328309
H            4.07466342099127        1.57485238262934        0.51388193823832
H            5.68871226895362        0.99437006405384       -1.64873697400760
H            6.64030509567149        2.71623121444218       -3.57525024751177
H            3.44804668297111        4.54763419333584       -1.54500738161263
H            4.62162571859810        8.12338713923788       -3.53916259925067
H            4.17168423540393        8.80249256373673       -5.10256523411788
H            2.96765665618918        7.93641012510512       -4.14634639703665
H            6.20964780308834        5.77732125127898       -5.99895131042435
H            6.06460886492464        7.51605615729521       -6.22987301935345
H            6.52755903253066        6.87934380352216       -4.65442322194966
H            3.83498261876410        5.56009437439439       -6.92340616834190
H            2.49956719509053        6.38197659012915       -6.11159420335523
H            3.66601987273152        7.31016686090398       -7.05900417172522

          :  Hamiltonian                  GFN2-xTB          :
         :: total energy             -65.618301137019 Eh    ::
         :: gradient norm              0.000749132324 Eh/a0 ::
         :: HOMO-LUMO gap              2.531933540521 eV    ::
         :: SCC energy               -66.477559615544 Eh    ::
         :: -> dispersion             -0.038387001153 Eh    ::
         :: repulsion energy           0.859258478525 Eh    ::

    * Orbital Energies and Occupations

         #    Occupation            Energy/Eh            Energy/eV
      -------------------------------------------------------------
         1        2.0000           -1.1460698             -31.1861
       ...           ...                  ...                  ...
        46        2.0000           -0.5721189             -15.5681
        47        2.0000           -0.5683929             -15.4668
        48        2.0000           -0.5665519             -15.4167
        49        2.0000           -0.5615904             -15.2817
        50        2.0000           -0.5582333             -15.1903
        51        2.0000           -0.5509129             -14.9911
        52        2.0000           -0.5497866             -14.9605
        53        2.0000           -0.5475001             -14.8982
        54        2.0000           -0.5437168             -14.7953
        55        2.0000           -0.5314193             -14.4607
        56        2.0000           -0.5310897             -14.4517
        57        2.0000           -0.5114656             -13.9177
        58        2.0000           -0.5025479             -13.6750 (HOMO)
        59                         -0.4095010             -11.1431 (LUMO)
        60                         -0.4079676             -11.1014
        61                         -0.3800960             -10.3429
        62                         -0.3653784              -9.9425
        63                         -0.3468409              -9.4380
        64                         -0.3176745              -8.6444
        65                         -0.2568736              -6.9899
        66                         -0.2238720              -6.0919
        67                         -0.2117204              -5.7612
        68                         -0.1433446              -3.9006
        69                         -0.0883469              -2.4040
       ...                                ...                  ...
       111                          0.5464199              14.8688
      -------------------------------------------------------------
                  HL-Gap            0.0930468 Eh            2.5319 eV

     #   Z          covCN         q      C6AA      α(0)
     1  17 Cl       0.971    -0.098   102.197    15.466
     2   6 C        2.887     0.118    25.407     8.264
     3   6 C        2.952    -0.031    28.763     8.796
     4   6 C        2.928    -0.008    28.222     8.712
     5   6 C        2.969    -0.021    28.534     8.762
     6   6 C        2.919    -0.026    28.654     8.778
     7   6 C        2.955    -0.032    28.805     8.803
     8   6 C        2.821     0.229    23.204     7.893
     9   8 O        0.857    -0.348    20.671     6.096
    10   6 C        3.742    -0.055    21.638     6.636
    11   7 N        2.878     0.085    19.771     6.604
    12   6 C        3.077     0.006    27.801     8.645
    13   6 C        3.036    -0.016    28.374     8.737
    14   7 N        2.916     0.217    17.687     6.246
    15   6 C        3.054     0.036    27.144     8.544
    16   8 O        1.770    -0.194    17.221     5.604
    17   6 C        2.719     0.353    21.007     7.503
    18   8 O        0.856    -0.351    20.725     6.104
    19   6 C        3.901     0.016    20.251     6.397
    20   6 C        3.767    -0.117    22.769     6.801
    21   6 C        3.758    -0.125    22.954     6.831
    22   6 C        3.764    -0.120    22.838     6.812
    23   1 H        0.926     0.086     1.914     2.164
    24   1 H        0.926     0.089     1.893     2.151
    25   1 H        0.926     0.054     2.268     2.355
    26   1 H        0.926     0.082     1.960     2.190
    27   1 H        0.925     0.100     1.782     2.087
    28   1 H        0.924     0.108     1.718     2.050
    29   1 H        0.926     0.126     1.568     1.958
    30   1 H        0.926     0.128     1.552     1.948
    31   1 H        0.926     0.136     1.493     1.911
    32   1 H        0.925     0.052     2.299     2.371
    33   1 H        0.925     0.079     1.987     2.204
    34   1 H        0.925     0.064     2.158     2.297
    35   1 H        0.925     0.054     2.270     2.356
    36   1 H        0.925     0.072     2.063     2.246
    37   1 H        0.925     0.057     2.231     2.336
    38   1 H        0.925     0.055     2.255     2.348
    39   1 H        0.925     0.068     2.108     2.270
    40   1 H        0.925     0.073     2.048     2.238

Wiberg/Mayer (AO) data.
largest (>0.10) Wiberg bond orders for each atom

     #   Z sym  total        # sym  WBO       # sym  WBO       # sym  WBO
 ---------------------------------------------------------------------------
     1  17 Cl   1.198 --     2 C    1.039
     2   6 C    3.929 --     3 C    1.372     7 C    1.364     1 Cl   1.039
     3   6 C    3.985 --     4 C    1.482     2 C    1.372    23 H    0.962
     4   6 C    3.981 --     3 C    1.482     5 C    1.338    24 H    0.961
     5   6 C    3.983 --     6 C    1.344     4 C    1.338     8 C    1.086
     6   6 C    3.991 --     7 C    1.488     5 C    1.344    25 H    0.965
     7   6 C    3.986 --     6 C    1.488     2 C    1.364    26 H    0.964
     8   6 C    3.925 --     9 O    1.811     5 C    1.086    10 C    0.914
     9   8 O    2.090 --     8 C    1.811
    10   6 C    3.940 --    11 N    0.991    27 H    0.956    28 H    0.944
                             8 C    0.914
    11   7 N    3.717 --    15 C    1.346    12 C    1.223    10 C    0.991
    12   6 C    3.945 --    13 C    1.584    11 N    1.223    29 H    0.957
    13   6 C    3.934 --    12 C    1.584    14 N    1.205    30 H    0.957
    14   7 N    3.714 --    15 C    1.331    13 C    1.205    16 O    1.000
    15   6 C    3.934 --    11 N    1.346    14 N    1.331    31 H    0.949
    16   8 O    2.242 --    14 N    1.000    17 C    0.961    18 O    0.140
    17   6 C    3.874 --    18 O    1.840    16 O    0.961    19 C    0.960
    18   8 O    2.122 --    17 C    1.840    16 O    0.140
    19   6 C    3.974 --    21 C    0.997    22 C    0.972    17 C    0.960
                            20 C    0.953
    20   6 C    3.984 --    32 H    0.985    34 H    0.984    33 H    0.974
                            19 C    0.953
    21   6 C    3.988 --    19 C    0.997    35 H    0.984    37 H    0.982
                            36 H    0.981
    22   6 C    3.984 --    38 H    0.985    39 H    0.982    40 H    0.978
                            19 C    0.972
    23   1 H    0.992 --     3 C    0.962
    24   1 H    0.992 --     4 C    0.961
    25   1 H    0.997 --     6 C    0.965
    26   1 H    0.993 --     7 C    0.964
    27   1 H    0.989 --    10 C    0.956
    28   1 H    0.987 --    10 C    0.944
    29   1 H    0.984 --    12 C    0.957
    30   1 H    0.983 --    13 C    0.957
    31   1 H    0.982 --    15 C    0.949
    32   1 H    0.997 --    20 C    0.985
    33   1 H    0.992 --    20 C    0.974
    34   1 H    0.996 --    20 C    0.984
    35   1 H    0.997 --    21 C    0.984
    36   1 H    0.995 --    21 C    0.981
    37   1 H    0.997 --    21 C    0.982
    38   1 H    0.997 --    22 C    0.985
    39   1 H    0.995 --    22 C    0.982
    40   1 H    0.993 --    22 C    0.978
 ---------------------------------------------------------------------------

molecular dipole:
                 x           y           z       tot (Debye)
 q only:        8.002       6.382      -3.413
   full:        7.786       6.293      -2.999      26.563

           -------------------------------------------------
          | TOTAL ENERGY              -65.618301137019 Eh   |
          | GRADIENT NORM               0.000749132324 Eh/α |
          | HOMO-LUMO GAP               2.531933540521 eV   |
           -------------------------------------------------

 * finished run on 2024/12/20 at 02:11:49.065
