   * xtb version 6.7.1 (edcfbbe) compiled by 'conda@3ef47c1a292c' on 2024-11-25

   ID    Z sym.   atoms
    1    6 C      1-4, 6, 8-11, 15-22
    2    7 N      5, 7, 12-14
    3    1 H      23-44

          program call               : xtb C0248.xyz --opt --namespace C0248 --charge +1
          :  Hamiltonian                  GFN2-xTB          :
 * total energy  :   -61.8456662 Eh     change       -0.1002547E-08 Eh
 * total energy  :   -61.8545161 Eh     change       -0.8849944E-02 Eh
 * total energy  :   -61.8561279 Eh     change       -0.1611738E-02 Eh
 * total energy  :   -61.8564354 Eh     change       -0.3074761E-03 Eh
 * total energy  :   -61.8566765 Eh     change       -0.2411942E-03 Eh
 * total energy  :   -61.8568665 Eh     change       -0.1899847E-03 Eh
 * total energy  :   -61.8570687 Eh     change       -0.2021250E-03 Eh
 * total energy  :   -61.8573896 Eh     change       -0.3209782E-03 Eh
 * total energy  :   -61.8578220 Eh     change       -0.4323506E-03 Eh
 * total energy  :   -61.8582851 Eh     change       -0.4630851E-03 Eh
 * total energy  :   -61.8654483 Eh     change       -0.2127678E-04 Eh
 * total energy  :   -61.8654854 Eh     change       -0.3710863E-04 Eh
 * total energy  :   -61.8655204 Eh     change       -0.3500122E-04 Eh
 * total energy  :   -61.8655470 Eh     change       -0.2654161E-04 Eh
 * total energy  :   -61.8655633 Eh     change       -0.1630498E-04 Eh
 * total energy  :   -61.8655770 Eh     change       -0.1374301E-04 Eh
 * total energy  :   -61.8655949 Eh     change       -0.1787225E-04 Eh
 * total energy  :   -61.8656016 Eh     change       -0.6686332E-05 Eh
 * total energy  :   -61.8656051 Eh     change       -0.3554800E-05 Eh
   *** GEOMETRY OPTIMIZATION CONVERGED AFTER 126 ITERATIONS ***

 final structure:
================
44
 xtb: 6.7.1 (edcfbbe)
C            1.50118059312494        0.37967165908209        0.76383433388935
C            0.94309471838592       -0.68760216876672       -0.18432887635052
C            1.33688119712480       -2.12235988650011        0.16883918056814
C            0.67445033374281       -2.66120721488104        1.43276251325002
N            0.82267201741789        0.40512313772668        2.04079085164534
C           -0.47830750127210        0.59873645049682        2.22172413176151
N           -0.75872207880973        0.53139899856706        3.52091744234312
C            0.39814818693114        0.28132550383978        4.19091506112001
C            1.39165123982547        0.20981389757119        3.26181753353085
C           -2.09660848624481        0.53734605639309        4.06192907727603
C           -2.83588921355543       -0.64743709720375        3.51387613049195
N           -2.40205718364390       -1.28068771080690        2.40224326386299
N           -3.19640303048425       -2.25171753141763        2.13827398480717
N           -4.15414046740249       -2.28006225203224        3.03968564289296
C           -3.97883958135503       -1.29067260257049        3.94093524309870
C           -5.20718652336646       -3.26586866183552        3.00713790702955
C           -5.43566273832717       -3.84082416897329        4.38214608396371
C           -4.42396079709834       -4.56442969809406        5.00304394286167
C           -4.61207439313722       -5.07395672628293        6.27507419924607
C           -5.81235539985363       -4.86653969153169        6.93529665044372
C           -6.82353401395034       -4.14843889177829        6.32049368581162
C           -6.63463920359083       -3.63285772396786        5.04924361467662
H            1.39607138640792        1.36540022971693        0.30075175978904
H            2.56082098644603        0.19601495363917        0.94982278658656
H           -0.14427948809452       -0.61433738827971       -0.22377684523198
H            1.32808575859969       -0.45891022566795       -1.17899615026013
H            1.04088711344214       -2.75367140459055       -0.66972749812031
H            2.42257308409834       -2.19267068490879        0.26006398677348
H           -0.39485760110209       -2.46110265235547        1.42495581480324
H            0.81741667557605       -3.73698290363761        1.48649340265243
H            1.10730531788218       -2.23024714257427        2.33272759837917
H           -1.19899217003823        0.77491429889216        1.44899377846432
H            0.44042261166440        0.17482324813937        5.25552694752225
H            2.44040837113838        0.03472409605340        3.39049087885999
H           -2.04858179574235        0.49279248749397        5.15172086019172
H           -2.60342180981448        1.46515603994005        3.77238319289606
H           -4.63517850586155       -1.12928313728490        4.76835224814816
H           -6.12265684890395       -2.79804538061917        2.63069097676022
H           -4.88857234717858       -4.03439029891429        2.29780181620870
H           -3.49060951718075       -4.73189346335539        4.48388674085589
H           -3.82363106997434       -5.63813664210805        6.74937853336317
H           -5.96009245501504       -5.26771928226014        7.92597930296018
H           -7.76144929746856       -3.98790796348166        6.82940959356798
H           -7.42667607334729       -3.07418046084738        4.57150867662337

          :  Hamiltonian                  GFN2-xTB          :
         :: total energy             -61.865605138539 Eh    ::
         :: gradient norm              0.000287260407 Eh/a0 ::
         :: HOMO-LUMO gap              2.817273384531 eV    ::
         :: SCC energy               -62.823842814694 Eh    ::
         :: -> dispersion             -0.043702751121 Eh    ::
         :: repulsion energy           0.958237676155 Eh    ::

    * Orbital Energies and Occupations

         #    Occupation            Energy/Eh            Energy/eV
      -------------------------------------------------------------
         1        2.0000           -0.8758665             -23.8335
       ...           ...                  ...                  ...
        45        2.0000           -0.5648897             -15.3714
        46        2.0000           -0.5620077             -15.2930
        47        2.0000           -0.5468589             -14.8808
        48        2.0000           -0.5459291             -14.8555
        49        2.0000           -0.5370881             -14.6149
        50        2.0000           -0.5323486             -14.4859
        51        2.0000           -0.5295481             -14.4097
        52        2.0000           -0.5282440             -14.3743
        53        2.0000           -0.5141567             -13.9909
        54        2.0000           -0.5095785             -13.8663
        55        2.0000           -0.5034362             -13.6992
        56        2.0000           -0.4933566             -13.4249
        57        2.0000           -0.4911549             -13.3650 (HOMO)
        58                         -0.3876220             -10.5477 (LUMO)
        59                         -0.3537286              -9.6254
        60                         -0.3475545              -9.4574
        61                         -0.3162161              -8.6047
        62                         -0.3115123              -8.4767
        63                         -0.3067210              -8.3463
        64                         -0.1869151              -5.0862
        65                         -0.1693229              -4.6075
        66                         -0.1203608              -3.2752
        67                         -0.0969634              -2.6385
        68                         -0.0521544              -1.4192
       ...                                ...                  ...
       110                          0.5750773              15.6487
      -------------------------------------------------------------
                  HL-Gap            0.1035329 Eh            2.8173 eV

     #   Z          covCN         q      C6AA      α(0)
     1   6 C        3.741    -0.028    21.145     6.561
     2   6 C        3.801    -0.073    21.904     6.663
     3   6 C        3.800    -0.063    21.712     6.634
     4   6 C        3.751    -0.116    22.785     6.807
     5   7 N        2.869     0.079    19.872     6.621
     6   6 C        3.103     0.056    26.611     8.453
     7   7 N        2.879     0.074    19.956     6.635
     8   6 C        3.069    -0.008    28.150     8.700
     9   6 C        3.078    -0.007    28.102     8.691
    10   6 C        3.746    -0.022    21.039     6.543
    11   6 C        3.124     0.043    26.847     8.485
    12   7 N        2.071    -0.209    26.244     7.600
    13   7 N        2.181    -0.112    23.910     7.256
    14   7 N        3.027     0.109    19.372     6.537
    15   6 C        2.981    -0.024    28.602     8.773
    16   6 C        3.747    -0.025    21.082     6.549
    17   6 C        2.973     0.001    28.010     8.681
    18   6 C        2.923    -0.036    28.907     8.817
    19   6 C        2.919    -0.026    28.641     8.776
    20   6 C        2.920    -0.024    28.612     8.772
    21   6 C        2.919    -0.025    28.616     8.772
    22   6 C        2.923    -0.036    28.892     8.815
    23   1 H        0.924     0.081     1.969     2.195
    24   1 H        0.924     0.090     1.881     2.145
    25   1 H        0.924     0.061     2.190     2.314
    26   1 H        0.924     0.069     2.100     2.266
    27   1 H        0.924     0.057     2.231     2.336
    28   1 H        0.924     0.044     2.399     2.422
    29   1 H        0.925     0.055     2.263     2.352
    30   1 H        0.925     0.051     2.305     2.374
    31   1 H        0.925     0.020     2.727     2.583
    32   1 H        0.926     0.125     1.577     1.964
    33   1 H        0.926     0.101     1.777     2.085
    34   1 H        0.926     0.103     1.756     2.072
    35   1 H        0.924     0.088     1.900     2.155
    36   1 H        0.924     0.088     1.902     2.156
    37   1 H        0.927     0.057     2.229     2.335
    38   1 H        0.924     0.073     2.049     2.238
    39   1 H        0.924     0.091     1.867     2.137
    40   1 H        0.926     0.035     2.515     2.480
    41   1 H        0.926     0.046     2.373     2.409
    42   1 H        0.926     0.050     2.324     2.384
    43   1 H        0.926     0.049     2.328     2.386
    44   1 H        0.926     0.039     2.461     2.453

Wiberg/Mayer (AO) data.
largest (>0.10) Wiberg bond orders for each atom

     #   Z sym  total        # sym  WBO       # sym  WBO       # sym  WBO
 ---------------------------------------------------------------------------
     1   6 C    3.937 --     2 C    0.988    24 H    0.967     5 N    0.966
                            23 H    0.958
     2   6 C    3.983 --     3 C    1.008     1 C    0.988    25 H    0.971
                            26 H    0.969
     3   6 C    3.993 --     4 C    1.020     2 C    1.008    28 H    0.976
                            27 H    0.974
     4   6 C    3.994 --     3 C    1.020    31 H    0.986    30 H    0.986
                            29 H    0.982
     5   7 N    3.722 --     6 C    1.371     9 C    1.227     1 C    0.966
     6   6 C    3.946 --     5 N    1.371     7 N    1.353    32 H    0.950
     7   7 N    3.714 --     6 C    1.353     8 C    1.227    10 C    0.976
     8   6 C    3.949 --     9 C    1.588     7 N    1.227    33 H    0.962
     9   6 C    3.950 --     8 C    1.588     5 N    1.227    34 H    0.961
    10   6 C    3.948 --    11 C    0.988     7 N    0.976    35 H    0.963
                            36 H    0.949
    11   6 C    3.970 --    15 C    1.476    12 N    1.349    10 C    0.988
    12   7 N    3.047 --    13 N    1.459    11 C    1.349    14 N    0.119
    13   7 N    3.008 --    12 N    1.459    14 N    1.276    15 C    0.133
    14   7 N    3.727 --    15 C    1.289    13 N    1.276    16 C    0.969
                            12 N    0.119
    15   6 C    3.960 --    11 C    1.476    14 N    1.289    37 H    0.967
                            13 N    0.133
    16   6 C    3.952 --    17 C    0.992    14 N    0.969    39 H    0.957
                            38 H    0.955
    17   6 C    3.983 --    22 C    1.420    18 C    1.410    16 C    0.992
                            20 C    0.110
    18   6 C    3.992 --    19 C    1.449    17 C    1.410    40 H    0.970
                            21 C    0.113
    19   6 C    3.992 --    18 C    1.449    20 C    1.435    41 H    0.970
                            22 C    0.110
    20   6 C    3.990 --    21 C    1.443    19 C    1.435    42 H    0.970
                            17 C    0.110
    21   6 C    3.991 --    20 C    1.443    22 C    1.439    43 H    0.970
                            18 C    0.113
    22   6 C    3.990 --    21 C    1.439    17 C    1.420    44 H    0.968
                            19 C    0.110
    23   1 H    0.993 --     1 C    0.958
    24   1 H    0.992 --     1 C    0.967
    25   1 H    0.996 --     2 C    0.971
    26   1 H    0.995 --     2 C    0.969
    27   1 H    0.996 --     3 C    0.974
    28   1 H    0.998 --     3 C    0.976
    29   1 H    0.997 --     4 C    0.982
    30   1 H    0.997 --     4 C    0.986
    31   1 H    1.000 --     4 C    0.986
    32   1 H    0.984 --     6 C    0.950
    33   1 H    0.990 --     8 C    0.962
    34   1 H    0.989 --     9 C    0.961
    35   1 H    0.992 --    10 C    0.963
    36   1 H    0.992 --    10 C    0.949
    37   1 H    0.997 --    15 C    0.967
    38   1 H    0.994 --    16 C    0.955
    39   1 H    0.991 --    16 C    0.957
    40   1 H    0.999 --    18 C    0.970
    41   1 H    0.998 --    19 C    0.970
    42   1 H    0.997 --    20 C    0.970
    43   1 H    0.997 --    21 C    0.970
    44   1 H    0.998 --    22 C    0.968
 ---------------------------------------------------------------------------

molecular dipole:
                 x           y           z       tot (Debye)
 q only:       -1.854      -0.653       5.719
   full:       -2.222      -0.356       6.208      16.784

           -------------------------------------------------
          | TOTAL ENERGY              -61.865605138539 Eh   |
          | GRADIENT NORM               0.000287260407 Eh/α |
          | HOMO-LUMO GAP               2.817273384531 eV   |
           -------------------------------------------------

 * finished run on 2024/12/20 at 02:12:02.181
