   * xtb version 6.7.1 (edcfbbe) compiled by 'conda@3ef47c1a292c' on 2024-11-25

   ID    Z sym.   atoms
    1    6 C      1-3, 5-11
    2    7 N      4
    3    1 H      12-35

          program call               : xtb C0243.xyz --opt --namespace C0243 --charge +1
          :  Hamiltonian                  GFN2-xTB          :
 * total energy  :   -36.1700320 Eh     change       -0.4764189E-10 Eh
 * total energy  :   -36.1764494 Eh     change       -0.6417380E-02 Eh
 * total energy  :   -36.1778615 Eh     change       -0.1412102E-02 Eh
 * total energy  :   -36.1779658 Eh     change       -0.1042865E-03 Eh
 * total energy  :   -36.1780600 Eh     change       -0.9428668E-04 Eh
 * total energy  :   -36.1781390 Eh     change       -0.7897425E-04 Eh
 * total energy  :   -36.1782543 Eh     change       -0.1152901E-03 Eh
 * total energy  :   -36.1783867 Eh     change       -0.1324321E-03 Eh
 * total energy  :   -36.1784903 Eh     change       -0.1035465E-03 Eh
 * total energy  :   -36.1785784 Eh     change       -0.8808650E-04 Eh
 * total energy  :   -36.1802416 Eh     change       -0.5527083E-04 Eh
 * total energy  :   -36.1802681 Eh     change       -0.2652595E-04 Eh
 * total energy  :   -36.1802910 Eh     change       -0.2287982E-04 Eh
 * total energy  :   -36.1803078 Eh     change       -0.1681655E-04 Eh
 * total energy  :   -36.1803172 Eh     change       -0.9374891E-05 Eh
 * total energy  :   -36.1803275 Eh     change       -0.1032542E-04 Eh
 * total energy  :   -36.1803252 Eh     change        0.2289009E-05 Eh
 * total energy  :   -36.1803326 Eh     change       -0.7334978E-05 Eh
 * total energy  :   -36.1803357 Eh     change       -0.3189677E-05 Eh
   *** GEOMETRY OPTIMIZATION CONVERGED AFTER 38 ITERATIONS ***

 final structure:
================
35
 xtb: 6.7.1 (edcfbbe)
C            0.23062494959073        0.11326663776685       -0.58000857640931
C            0.38682247607546       -1.40299269256402       -0.64790140988354
C            1.24771778560193       -2.04913226453949        0.44184338858779
N            0.73430061019536       -2.06394741558412        1.85262422136255
C           -0.74512278632514       -2.28196099470437        1.91202476305636
C           -1.27304355514020       -3.59898706988435        1.32303287784600
C           -1.62192074355330       -4.64357209658579        2.38032701609656
C            1.40910860634809       -3.16119813201136        2.61538346808434
C            2.92915945089981       -3.04623397742183        2.80522196919919
C            3.33757676632695       -2.50862070267011        4.17445352013289
C            1.01513267325826       -0.77250286504042        2.50867801765254
H           -0.47838923108859        0.43147556633645        0.18093939680930
H           -0.14859317081847        0.47215042558345       -1.53286317012165
H            1.18693566023508        0.59900448748989       -0.40234329125561
H           -0.59217185066781       -1.87647980085274       -0.70948345300300
H            0.90510995081709       -1.64010369519823       -1.57995466490492
H            1.42319833954412       -3.08570737897802        0.14949787856117
H            2.21311934365903       -1.54154003930954        0.45204640016803
H           -1.03768655740415       -2.22809942830410        2.96318622544688
H           -1.20759518884184       -1.43718942791188        1.40262242194111
H           -2.18558641887004       -3.37356493781700        0.76915545683465
H           -0.56982953730319       -4.02223290238590        0.60669260150235
H           -2.35518578542792       -4.24830158717883        3.07807712175290
H           -2.05822878124202       -5.51425506065345        1.89950444286440
H           -0.75398862425605       -4.97475941887010        2.94304591065947
H            0.94054661838121       -3.20358752163578        3.60096566258493
H            1.18247402162654       -4.09122281649711        2.09503208584577
H            3.34643205936181       -4.04949027216891        2.70798139432164
H            3.38657529295186       -2.44611655924746        2.01992471689853
H            2.91643503833553       -3.12390955104456        4.96560839794184
H            4.41924145117173       -2.54377590415137        4.26886454703233
H            3.02390900428162       -1.48086811512024        4.33354351317520
H            2.07737799118919       -0.54765918491833        2.46134116407840
H            0.47109038636806        0.02946537442118        2.01802562016525
H            0.71023375471503       -0.81423067834948        3.55296036498217

          :  Hamiltonian                  GFN2-xTB          :
         :: total energy             -36.180335746533 Eh    ::
         :: gradient norm              0.000461827720 Eh/a0 ::
         :: HOMO-LUMO gap              9.127088851376 eV    ::
         :: SCC energy               -36.703148174702 Eh    ::
         :: -> dispersion             -0.026068044863 Eh    ::
         :: repulsion energy           0.522812428169 Eh    ::

    * Orbital Energies and Occupations

         #    Occupation            Energy/Eh            Energy/eV
      -------------------------------------------------------------
         1        2.0000           -0.8544896             -23.2518
       ...           ...                  ...                  ...
        22        2.0000           -0.6329787             -17.2242
        23        2.0000           -0.6299966             -17.1431
        24        2.0000           -0.6234075             -16.9638
        25        2.0000           -0.6193836             -16.8543
        26        2.0000           -0.5953062             -16.1991
        27        2.0000           -0.5921528             -16.1133
        28        2.0000           -0.5893146             -16.0361
        29        2.0000           -0.5813461             -15.8192
        30        2.0000           -0.5776010             -15.7173
        31        2.0000           -0.5763788             -15.6841
        32        2.0000           -0.5736050             -15.6086
        33        2.0000           -0.5694212             -15.4947
        34        2.0000           -0.5680575             -15.4576 (HOMO)
        35                         -0.2326432              -6.3305 (LUMO)
        36                         -0.1732264              -4.7137
        37                         -0.1629252              -4.4334
        38                         -0.1420664              -3.8658
        39                         -0.0749642              -2.0399
        40                         -0.0703862              -1.9153
        41                         -0.0637711              -1.7353
        42                         -0.0474686              -1.2917
        43                         -0.0333492              -0.9075
        44                         -0.0326790              -0.8892
        45                         -0.0193295              -0.5260
       ...                                ...                  ...
        68                          0.1739489               4.7334
      -------------------------------------------------------------
                  HL-Gap            0.3354143 Eh            9.1271 eV

     #   Z          covCN         q      C6AA      α(0)
     1   6 C        3.750    -0.117    22.811     6.811
     2   6 C        3.798    -0.070    21.850     6.656
     3   6 C        3.751    -0.037    21.289     6.580
     4   7 N        3.618     0.117    19.235     6.514
     5   6 C        3.762    -0.040    21.342     6.585
     6   6 C        3.798    -0.068    21.798     6.648
     7   6 C        3.751    -0.121    22.887     6.823
     8   6 C        3.760    -0.041    21.352     6.587
     9   6 C        3.798    -0.069    21.820     6.651
    10   6 C        3.751    -0.121    22.881     6.822
    11   6 C        3.720    -0.092    22.378     6.756
    12   1 H        0.925     0.038     2.475     2.460
    13   1 H        0.925     0.068     2.112     2.273
    14   1 H        0.925     0.052     2.299     2.371
    15   1 H        0.925     0.061     2.184     2.311
    16   1 H        0.924     0.074     2.039     2.233
    17   1 H        0.924     0.079     1.986     2.204
    18   1 H        0.924     0.084     1.939     2.177
    19   1 H        0.924     0.084     1.935     2.175
    20   1 H        0.925     0.086     1.915     2.164
    21   1 H        0.924     0.068     2.104     2.268
    22   1 H        0.925     0.054     2.268     2.355
    23   1 H        0.925     0.054     2.270     2.356
    24   1 H        0.925     0.065     2.138     2.287
    25   1 H        0.925     0.045     2.389     2.417
    26   1 H        0.924     0.088     1.902     2.157
    27   1 H        0.925     0.084     1.943     2.180
    28   1 H        0.924     0.070     2.088     2.260
    29   1 H        0.925     0.052     2.290     2.367
    30   1 H        0.925     0.053     2.278     2.360
    31   1 H        0.925     0.065     2.143     2.289
    32   1 H        0.925     0.046     2.376     2.410
    33   1 H        0.925     0.098     1.799     2.097
    34   1 H        0.925     0.099     1.791     2.093
    35   1 H        0.925     0.091     1.867     2.137

Wiberg/Mayer (AO) data.
largest (>0.10) Wiberg bond orders for each atom

     #   Z sym  total        # sym  WBO       # sym  WBO       # sym  WBO
 ---------------------------------------------------------------------------
     1   6 C    3.991 --     2 C    1.020    14 H    0.985    13 H    0.981
                            12 H    0.980
     2   6 C    3.985 --     1 C    1.020     3 C    1.006    15 H    0.971
                            16 H    0.965
     3   6 C    3.934 --     2 C    1.006    17 H    0.967    18 H    0.963
                             4 N    0.926
     4   7 N    3.804 --    11 C    0.962     5 C    0.930     8 C    0.929
                             3 C    0.926
     5   6 C    3.930 --     6 C    1.002    19 H    0.966    20 H    0.965
                             4 N    0.930
     6   6 C    3.987 --     7 C    1.020     5 C    1.002    21 H    0.972
                            22 H    0.968
     7   6 C    3.989 --     6 C    1.020    23 H    0.985    25 H    0.984
                            24 H    0.983
     8   6 C    3.931 --     9 C    1.002    27 H    0.966    26 H    0.965
                             4 N    0.929
     9   6 C    3.987 --    10 C    1.020     8 C    1.002    28 H    0.971
                            29 H    0.968
    10   6 C    3.990 --     9 C    1.020    30 H    0.985    32 H    0.984
                            31 H    0.983
    11   6 C    3.930 --    35 H    0.975    33 H    0.971    34 H    0.967
                             4 N    0.962
    12   1 H    0.999 --     1 C    0.980
    13   1 H    0.995 --     1 C    0.981
    14   1 H    0.997 --     1 C    0.985
    15   1 H    0.996 --     2 C    0.971
    16   1 H    0.994 --     2 C    0.965
    17   1 H    0.994 --     3 C    0.967
    18   1 H    0.993 --     3 C    0.963
    19   1 H    0.993 --     5 C    0.966
    20   1 H    0.992 --     5 C    0.965
    21   1 H    0.995 --     6 C    0.972
    22   1 H    0.997 --     6 C    0.968
    23   1 H    0.997 --     7 C    0.985
    24   1 H    0.995 --     7 C    0.983
    25   1 H    0.998 --     7 C    0.984
    26   1 H    0.992 --     8 C    0.965
    27   1 H    0.993 --     8 C    0.966
    28   1 H    0.995 --     9 C    0.971
    29   1 H    0.997 --     9 C    0.968
    30   1 H    0.997 --    10 C    0.985
    31   1 H    0.995 --    10 C    0.983
    32   1 H    0.998 --    10 C    0.984
    33   1 H    0.990 --    11 C    0.971
    34   1 H    0.990 --    11 C    0.967
    35   1 H    0.992 --    11 C    0.975
 ---------------------------------------------------------------------------

molecular dipole:
                 x           y           z       tot (Debye)
 q only:        1.373      -4.026       3.334
   full:        1.382      -4.020       3.330      13.725

           -------------------------------------------------
          | TOTAL ENERGY              -36.180335746533 Eh   |
          | GRADIENT NORM               0.000461827720 Eh/α |
          | HOMO-LUMO GAP               9.127088851376 eV   |
           -------------------------------------------------

 * finished run on 2024/12/20 at 02:11:50.142
