   * xtb version 6.7.1 (edcfbbe) compiled by 'conda@3ef47c1a292c' on 2024-11-25

   ID    Z sym.   atoms
    1    6 C      1-8, 10, 12-23
    2    7 N      9
    3    8 O      11
    4    1 H      24-67

          program call               : xtb C0246.xyz --opt --namespace C0246 --charge +1
          :  Hamiltonian                  GFN2-xTB          :
 * total energy  :   -74.0355919 Eh     change       -0.3169731E-09 Eh
 * total energy  :   -74.0434073 Eh     change       -0.7815382E-02 Eh
 * total energy  :   -74.0456811 Eh     change       -0.2273809E-02 Eh
 * total energy  :   -74.0460477 Eh     change       -0.3665887E-03 Eh
 * total energy  :   -74.0463423 Eh     change       -0.2945866E-03 Eh
 * total energy  :   -74.0464623 Eh     change       -0.1200370E-03 Eh
 * total energy  :   -74.0465828 Eh     change       -0.1205011E-03 Eh
 * total energy  :   -74.0466726 Eh     change       -0.8981203E-04 Eh
 * total energy  :   -74.0467509 Eh     change       -0.7824138E-04 Eh
 * total energy  :   -74.0468178 Eh     change       -0.6695880E-04 Eh
 * total energy  :   -74.0494660 Eh     change       -0.1759527E-04 Eh
 * total energy  :   -74.0494841 Eh     change       -0.1813570E-04 Eh
 * total energy  :   -74.0495025 Eh     change       -0.1837889E-04 Eh
 * total energy  :   -74.0495208 Eh     change       -0.1826964E-04 Eh
 * total energy  :   -74.0495391 Eh     change       -0.1832844E-04 Eh
 * total energy  :   -74.0495582 Eh     change       -0.1906634E-04 Eh
 * total energy  :   -74.0495781 Eh     change       -0.1993631E-04 Eh
 * total energy  :   -74.0495986 Eh     change       -0.2051136E-04 Eh
 * total energy  :   -74.0496030 Eh     change       -0.4385531E-05 Eh
   *** GEOMETRY OPTIMIZATION CONVERGED AFTER 68 ITERATIONS ***

 final structure:
================
67
 xtb: 6.7.1 (edcfbbe)
C            1.73351428532715        0.08294746927206        0.56837874729217
C            1.22217246375579        0.56104547830185       -0.78503606843811
C            1.38113924886586       -0.48165216864780       -1.89297341957006
C            0.61426640998054       -1.78665435478536       -1.66568103146225
C           -0.89560231154246       -1.62857893256692       -1.47030357128411
C           -1.62396259074440       -0.89582592119788       -2.59986994097820
C           -1.53767796387517       -1.59260918341181       -3.96310350639190
C           -2.31898087806281       -2.90922162638538       -4.05056191259854
N           -3.64863557368029       -2.84623598212321       -4.72896987140478
C           -3.50573893126101       -2.52575193327777       -6.21712429127103
O           -2.85296987996378       -3.51917145118657       -6.88549182189101
C           -1.52212076241339       -3.25141769114487       -7.39026030782189
C           -1.55900139570127       -2.22128883120515       -8.51771847888127
C           -0.14248980427481       -1.90535175162569       -9.00208394522978
C           -0.17284939014440       -0.87251514243857      -10.12365027303857
C            0.52527405212030       -3.19991480812185       -9.45799425602914
C            0.51840263037195       -4.25174151163480       -8.35228574689890
C           -0.91029667536675       -4.56921851612485       -7.89476659473730
C           -1.01185119323296       -5.69705842936384       -6.83804317113975
C           -2.31347378468935       -6.47877423472226       -7.03544953865031
C            0.15046549970154       -6.68890185626130       -6.86453902379155
C           -4.28334319024434       -4.17384638154871       -4.61590810208880
C           -4.52085277170279       -1.83982257479855       -4.10498585501612
H            1.13205703905179       -0.73692763083319        0.95293012741964
H            1.69526495460787        0.89479494078983        1.29015202303462
H            2.76452864979208       -0.25324018225421        0.48813086482458
H            0.17549961515224        0.85854543642166       -0.69449694137546
H            1.78546721465632        1.44941749659005       -1.07882248545030
H            1.07664962443960       -0.03496900324365       -2.84282104576416
H            2.44066931501281       -0.73084902444954       -1.98268253894846
H            0.81060079710926       -2.45453837264211       -2.50857581614596
H            1.01304685525234       -2.27973136364922       -0.77873151392656
H           -1.32609120091271       -2.62375212904441       -1.32823861452913
H           -1.07463227842208       -1.07434143023362       -0.54878674116368
H           -2.66637150792849       -0.75840950902106       -2.30675326819288
H           -1.18827831710446        0.09753383156574       -2.70481489907644
H           -1.85915324127782       -0.89430723570400       -4.73691792373959
H           -0.48720239828315       -1.80694689400363       -4.16087394970103
H           -1.74156441892753       -3.66113719713918       -4.59171041093858
H           -2.48872090395681       -3.28618724390012       -3.04019807933923
H           -4.53164748850934       -2.44546324227508       -6.59851620886693
H           -3.01412775770475       -1.55122968850206       -6.29976956110814
H           -0.90370241006901       -2.86245160165009       -6.56818494941612
H           -2.03962615229961       -1.29827276763634       -8.18235288875827
H           -2.15081254793051       -2.62146093288735       -9.34253627806498
H            0.42867911079048       -1.49326992841446       -8.16136082844065
H           -0.63642568224668        0.05205374345933       -9.78736323229935
H            0.83690027284129       -0.64675166520039      -10.45507971310139
H           -0.73524537526096       -1.24980280924698      -10.97412229267747
H           -0.00310572367091       -3.58736045663505      -10.33110641991816
H            1.55419680542502       -2.99598701166980       -9.75629331295391
H            1.10632337551133       -3.89399149813993       -7.50368300054463
H            0.98952310666344       -5.15533684010638       -8.73275303026457
H           -1.48129897757735       -4.88552306348350       -8.77193873849680
H           -1.01786916004825       -5.23532231593181       -5.84176304297696
H           -2.23741366789161       -7.08940728923126       -7.93171930946595
H           -2.49489986050856       -7.14425462660440       -6.19377562642224
H           -3.16232573770783       -5.81213396088732       -7.15619923804374
H            1.09447031311109       -6.21397517759819       -6.61473848216404
H           -0.03358385450344       -7.47379532095861       -6.13429796279701
H            0.23691677119900       -7.15628764873370       -7.84144055896299
H           -4.40830784211135       -4.44275126056614       -3.56921491845730
H           -5.25882479922463       -4.16008608375912       -5.09826597071355
H           -3.66352359379125       -4.91756008113762       -5.11367517754501
H           -4.63073955773058       -2.05946585450574       -3.04441904938416
H           -4.10291585380338       -0.84251247307432       -4.21950383351863
H           -5.50629100434808       -1.85960429901258       -4.56761318026640

          :  Hamiltonian                  GFN2-xTB          :
         :: total energy             -74.049603002575 Eh    ::
         :: gradient norm              0.000225925464 Eh/a0 ::
         :: HOMO-LUMO gap              7.168076740968 eV    ::
         :: SCC energy               -75.065333883727 Eh    ::
         :: -> dispersion             -0.059471756608 Eh    ::
         :: repulsion energy           1.015730881152 Eh    ::

    * Orbital Energies and Occupations

         #    Occupation            Energy/Eh            Energy/eV
      -------------------------------------------------------------
         1        2.0000           -0.8635723             -23.4990
       ...           ...                  ...                  ...
        57        2.0000           -0.5366366             -14.6026
        58        2.0000           -0.5350762             -14.5602
        59        2.0000           -0.5327859             -14.4978
        60        2.0000           -0.5295289             -14.4092
        61        2.0000           -0.5251105             -14.2890
        62        2.0000           -0.5246148             -14.2755
        63        2.0000           -0.5196475             -14.1403
        64        2.0000           -0.5144436             -13.9987
        65        2.0000           -0.5108424             -13.9007
        66        2.0000           -0.5071962             -13.8015
        67        2.0000           -0.5048971             -13.7389
        68        2.0000           -0.5007239             -13.6254
        69        2.0000           -0.4964000             -13.5077 (HOMO)
        70                         -0.2329780              -6.3397 (LUMO)
        71                         -0.1782994              -4.8518
        72                         -0.1443771              -3.9287
        73                         -0.1432553              -3.8982
        74                         -0.1228719              -3.3435
        75                         -0.0763592              -2.0778
        76                         -0.0703667              -1.9148
        77                         -0.0612274              -1.6661
        78                         -0.0468351              -1.2744
        79                         -0.0364268              -0.9912
        80                         -0.0304225              -0.8278
       ...                                ...                  ...
       136                          0.2403767               6.5410
      -------------------------------------------------------------
                  HL-Gap            0.2634220 Eh            7.1681 eV

     #   Z          covCN         q      C6AA      α(0)
     1   6 C        3.752    -0.105    22.577     6.776
     2   6 C        3.799    -0.054    21.554     6.610
     3   6 C        3.800    -0.060    21.660     6.626
     4   6 C        3.800    -0.061    21.682     6.630
     5   6 C        3.800    -0.063    21.706     6.633
     6   6 C        3.800    -0.069    21.830     6.652
     7   6 C        3.799    -0.069    21.825     6.652
     8   6 C        3.757    -0.034    21.230     6.569
     9   7 N        3.617     0.103    19.471     6.554
    10   6 C        3.639     0.120    18.951     6.261
    11   8 O        1.699    -0.294    18.899     5.869
    12   6 C        3.742     0.105    18.926     6.207
    13   6 C        3.809    -0.073    21.895     6.661
    14   6 C        3.854    -0.014    20.792     6.485
    15   6 C        3.756    -0.113    22.724     6.797
    16   6 C        3.809    -0.071    21.851     6.654
    17   6 C        3.808    -0.068    21.798     6.646
    18   6 C        3.855    -0.035    21.157     6.542
    19   6 C        3.848    -0.008    20.684     6.469
    20   6 C        3.757    -0.117    22.796     6.807
    21   6 C        3.756    -0.114    22.744     6.800
    22   6 C        3.724    -0.094    22.402     6.759
    23   6 C        3.715    -0.092    22.391     6.761
    24   1 H        0.925     0.034     2.530     2.488
    25   1 H        0.925     0.039     2.456     2.451
    26   1 H        0.925     0.040     2.455     2.450
    27   1 H        0.924     0.028     2.613     2.528
    28   1 H        0.924     0.035     2.518     2.481
    29   1 H        0.924     0.023     2.681     2.561
    30   1 H        0.924     0.039     2.456     2.451
    31   1 H        0.924     0.023     2.694     2.567
    32   1 H        0.924     0.047     2.353     2.399
    33   1 H        0.924     0.022     2.701     2.570
    34   1 H        0.925     0.052     2.292     2.367
    35   1 H        0.924     0.031     2.571     2.507
    36   1 H        0.925     0.060     2.205     2.322
    37   1 H        0.924     0.040     2.445     2.445
    38   1 H        0.924     0.073     2.055     2.242
    39   1 H        0.924     0.085     1.927     2.171
    40   1 H        0.924     0.087     1.911     2.162
    41   1 H        0.924     0.078     1.998     2.211
    42   1 H        0.924     0.068     2.112     2.273
    43   1 H        0.923     0.020     2.737     2.587
    44   1 H        0.924     0.024     2.674     2.557
    45   1 H        0.924     0.055     2.264     2.353
    46   1 H        0.924     0.029     2.600     2.522
    47   1 H        0.925     0.039     2.457     2.451
    48   1 H        0.925     0.050     2.316     2.380
    49   1 H        0.925     0.045     2.380     2.413
    50   1 H        0.924     0.046     2.376     2.411
    51   1 H        0.924     0.049     2.329     2.387
    52   1 H        0.924     0.033     2.538     2.492
    53   1 H        0.925     0.059     2.210     2.325
    54   1 H        0.924     0.060     2.202     2.321
    55   1 H        0.923     0.009     2.913     2.669
    56   1 H        0.925     0.051     2.311     2.377
    57   1 H        0.925     0.036     2.507     2.476
    58   1 H        0.925     0.041     2.440     2.443
    59   1 H        0.925     0.042     2.419     2.432
    60   1 H        0.925     0.047     2.361     2.403
    61   1 H        0.925     0.047     2.358     2.401
    62   1 H        0.925     0.093     1.850     2.127
    63   1 H        0.925     0.094     1.838     2.120
    64   1 H        0.925     0.118     1.631     1.997
    65   1 H        0.925     0.102     1.768     2.079
    66   1 H        0.925     0.098     1.800     2.098
    67   1 H        0.925     0.092     1.860     2.133

Wiberg/Mayer (AO) data.
largest (>0.10) Wiberg bond orders for each atom

     #   Z sym  total        # sym  WBO       # sym  WBO       # sym  WBO
 ---------------------------------------------------------------------------
     1   6 C    3.996 --     2 C    1.020    26 H    0.987    25 H    0.987
                            24 H    0.986
     2   6 C    3.998 --     1 C    1.020     3 C    1.008    28 H    0.978
                            27 H    0.976
     3   6 C    3.997 --     2 C    1.008     4 C    1.007    30 H    0.976
                            29 H    0.976
     4   6 C    3.996 --     3 C    1.007     5 C    1.007    31 H    0.975
                            32 H    0.974
     5   6 C    3.995 --     6 C    1.008     4 C    1.007    33 H    0.973
                            34 H    0.972
     6   6 C    3.992 --     5 C    1.008     7 C    1.004    35 H    0.975
                            36 H    0.971
     7   6 C    3.986 --     6 C    1.004     8 C    1.004    38 H    0.965
                            37 H    0.965
     8   6 C    3.924 --     7 C    1.004    40 H    0.961    39 H    0.959
                             9 N    0.924
     9   7 N    3.796 --    23 C    0.964    22 C    0.956     8 C    0.924
                            10 C    0.878
    10   6 C    3.934 --    11 O    1.075    41 H    0.955    42 H    0.949
                             9 N    0.878
    11   8 O    2.135 --    10 C    1.075    12 C    0.907
    12   6 C    3.915 --    13 C    0.994    18 C    0.981    43 H    0.959
                            11 O    0.907
    13   6 C    3.993 --    12 C    0.994    14 C    0.991    45 H    0.973
                            44 H    0.970
    14   6 C    3.994 --    15 C    1.009    16 C    0.998    13 C    0.991
                            46 H    0.968
    15   6 C    3.994 --    14 C    1.009    49 H    0.986    47 H    0.986
                            48 H    0.985
    16   6 C    3.995 --    17 C    1.007    14 C    0.998    50 H    0.975
                            51 H    0.974
    17   6 C    3.994 --    16 C    1.007    18 C    0.993    52 H    0.976
                            53 H    0.971
    18   6 C    3.986 --    17 C    0.993    12 C    0.981    19 C    0.979
                            54 H    0.963
    19   6 C    3.995 --    21 C    1.010    20 C    1.009    18 C    0.979
                            55 H    0.963
    20   6 C    3.994 --    19 C    1.009    57 H    0.986    56 H    0.984
                            58 H    0.980
    21   6 C    3.993 --    19 C    1.010    59 H    0.985    61 H    0.984
                            60 H    0.984
    22   6 C    3.921 --    62 H    0.975    63 H    0.975    64 H    0.965
                             9 N    0.956
    23   6 C    3.931 --    67 H    0.975    65 H    0.973    66 H    0.972
                             9 N    0.964
    24   1 H    0.999 --     1 C    0.986
    25   1 H    0.998 --     1 C    0.987
    26   1 H    0.998 --     1 C    0.987
    27   1 H    0.999 --     2 C    0.976
    28   1 H    0.999 --     2 C    0.978
    29   1 H    0.999 --     3 C    0.976
    30   1 H    0.998 --     3 C    0.976
    31   1 H    0.999 --     4 C    0.975
    32   1 H    0.998 --     4 C    0.974
    33   1 H    0.999 --     5 C    0.973
    34   1 H    0.997 --     5 C    0.972
    35   1 H    0.999 --     6 C    0.975
    36   1 H    0.996 --     6 C    0.971
    37   1 H    0.998 --     7 C    0.965
    38   1 H    0.994 --     7 C    0.965
    39   1 H    0.993 --     8 C    0.959
    40   1 H    0.992 --     8 C    0.961
    41   1 H    0.994 --    10 C    0.955
    42   1 H    0.995 --    10 C    0.949
    43   1 H    1.000 --    12 C    0.959
    44   1 H    0.999 --    13 C    0.970
    45   1 H    0.997 --    13 C    0.973
    46   1 H    0.999 --    14 C    0.968
    47   1 H    0.998 --    15 C    0.986
    48   1 H    0.997 --    15 C    0.985
    49   1 H    0.998 --    15 C    0.986
    50   1 H    0.998 --    16 C    0.975
    51   1 H    0.997 --    16 C    0.974
    52   1 H    0.999 --    17 C    0.976
    53   1 H    0.996 --    17 C    0.971
    54   1 H    0.996 --    18 C    0.963
    55   1 H    1.000 --    19 C    0.963
    56   1 H    0.997 --    20 C    0.984
    57   1 H    0.998 --    20 C    0.986
    58   1 H    0.998 --    20 C    0.980
    59   1 H    0.998 --    21 C    0.985
    60   1 H    0.997 --    21 C    0.984
    61   1 H    0.998 --    21 C    0.984
    62   1 H    0.991 --    22 C    0.975
    63   1 H    0.991 --    22 C    0.975
    64   1 H    0.986 --    22 C    0.965
    65   1 H    0.989 --    23 C    0.973
    66   1 H    0.990 --    23 C    0.972
    67   1 H    0.991 --    23 C    0.975
 ---------------------------------------------------------------------------

molecular dipole:
                 x           y           z       tot (Debye)
 q only:       -5.421      -5.173      -9.386
   full:       -5.574      -4.977      -9.312      30.348

           -------------------------------------------------
          | TOTAL ENERGY              -74.049603002575 Eh   |
          | GRADIENT NORM               0.000225925464 Eh/α |
          | HOMO-LUMO GAP               7.168076740968 eV   |
           -------------------------------------------------

 * finished run on 2024/12/20 at 02:11:55.530
