   * xtb version 6.7.1 (edcfbbe) compiled by 'conda@3ef47c1a292c' on 2024-11-25

   ID    Z sym.   atoms
    1    6 C      1, 2, 4-6, 8-10, 12-16, 18-21, 24, 25, 27-32, 35-38
    2    7 N      3, 11, 17, 26
    3   17 Cl     7, 33, 34, 41
    4    8 O      22, 23, 39, 40
    5    1 H      42-72

          program call               : xtb C0240.xyz --opt --namespace C0240 --charge +1
          :  Hamiltonian                  GFN2-xTB          :
 * total energy  :  -123.8003481 Eh     change       -0.4138542E-08 Eh
 * total energy  :  -123.8215123 Eh     change       -0.2116414E-01 Eh
 * total energy  :  -123.8304313 Eh     change       -0.8919011E-02 Eh
 * total energy  :  -123.8335169 Eh     change       -0.3085568E-02 Eh
 * total energy  :  -123.8358341 Eh     change       -0.2317220E-02 Eh
 * total energy  :  -123.8372460 Eh     change       -0.1411960E-02 Eh
 * total energy  :  -123.8384823 Eh     change       -0.1236237E-02 Eh
 * total energy  :  -123.8397083 Eh     change       -0.1226028E-02 Eh
 * total energy  :  -123.8409194 Eh     change       -0.1211112E-02 Eh
 * total energy  :  -123.8420817 Eh     change       -0.1162278E-02 Eh
 * total energy  :  -123.8554573 Eh     change       -0.4719282E-04 Eh
 * total energy  :  -123.8554848 Eh     change       -0.2757437E-04 Eh
 * total energy  :  -123.8555090 Eh     change       -0.2416910E-04 Eh
 * total energy  :  -123.8555221 Eh     change       -0.1311225E-04 Eh
 * total energy  :  -123.8555554 Eh     change       -0.3332529E-04 Eh
 * total energy  :  -123.8555654 Eh     change       -0.9952651E-05 Eh
 * total energy  :  -123.8555733 Eh     change       -0.7945379E-05 Eh
 * total energy  :  -123.8555791 Eh     change       -0.5720624E-05 Eh
 * total energy  :  -123.8555828 Eh     change       -0.3786023E-05 Eh
   *** GEOMETRY OPTIMIZATION CONVERGED AFTER 51 ITERATIONS ***

 final structure:
================
72
 xtb: 6.7.1 (edcfbbe)
C            1.74903986481302       -0.29212223286972        0.48184878023681
C            2.13571164292324        0.92346507964420       -0.35403857434339
N            1.99701228910397        0.65435373971701       -1.76399074939133
C            3.02867159429388        0.16453638416690       -2.52688804746643
C            4.34442500589715       -0.13018566363299       -2.21140282561750
C            5.15223831604383       -0.63446496341306       -3.21956629451332
Cl           6.78730665081802       -1.02893210976870       -2.86588339806703
C            4.65574460265940       -0.83002816589773       -4.51592692157243
C            3.33811686189764       -0.53401345624916       -4.83334377675548
C            2.52672386162700       -0.04594439898976       -3.82254143156883
N            1.19913648889747        0.31114203752660       -3.79897322579039
C            0.86867082166850        0.70279704798838       -2.52312922049270
C           -0.43462740168529        1.07480302825784       -2.19106474632732
C           -1.01243271437111        1.39057242778404       -0.97312969564689
C           -2.38104603898401        1.61304818190357       -0.89513791805070
C           -3.21427744342858        1.88691660975646        0.18638234403589
N           -2.92571487100804        2.21125432030159        1.48537931151386
C           -1.65083739515583        2.50121404085585        2.09370272955243
C           -1.22557486774461        3.94941879745906        1.81436579246736
C           -0.16199707570959        4.43844689231308        2.79269720042260
C            1.12903550994754        3.66563899149824        2.69663565695218
O            1.34752594807068        2.77254223820391        1.91736176448699
O            2.02001136230778        4.08928841298634        3.58418706311053
C           -4.10771690613698        2.45603285834521        2.15443791323184
C           -5.15617365108951        2.23259682876501        1.24780846268361
N           -4.58103543441943        1.86968165455458        0.05447597926266
C           -5.34618277634657        1.54392182840612       -1.12608046107662
C           -5.60510612079406        2.77696219065435       -1.98731930199912
C           -6.47967608376602        2.39408028567941        1.62056520342756
C           -6.73519573719813        2.78579658427293        2.92698697562379
C           -5.68904131947997        3.01473717382332        3.83202382486942
C           -4.36293556563638        2.85418879444100        3.45550679954862
Cl          -6.04429277064832        3.51259635317227        5.43878809760150
Cl          -8.36353518314235        3.00002438578575        3.43291486007805
C            0.28476051044464        0.02853196747689       -4.87842756320395
C           -0.47039142347301       -1.29171042731962       -4.67203280210984
C            0.46708163939025       -2.49275431296750       -4.53369987466932
C            1.11150628099390       -2.54781963015344       -3.15736743706313
O            0.64266363186890       -2.02512477714351       -2.18481301926073
O            2.24923814537323       -3.24528109518804       -3.07197894079138
Cl           5.68501031487188       -1.46329972941101       -5.74110530962159
H            0.76671831804573       -0.65708875298989        0.19489516343044
H            1.74224427415162       -0.01878222948448        1.53252950232996
H            2.45931660313491       -1.09952100250552        0.32775899563609
H            1.53606873751742        1.79290428133095       -0.09017734458181
H            3.17934527427676        1.18453404986736       -0.17196972283578
H            4.74771673429862        0.00396736958282       -1.22242861619115
H            2.99123289171606       -0.68517451895666       -5.84201829661126
H           -1.11958356642672        1.05754189140296       -3.02667416970171
H           -0.41139123791881        1.42446423273470       -0.08450720073459
H           -2.90700293588121        1.51819949284238       -1.83415473830627
H           -1.77092152890745        2.35392272373627        3.16900439096509
H           -0.89443947226332        1.79928405970190        1.74939105796668
H           -0.84985371585556        4.02698837599276        0.79301466860104
H           -2.10165560853083        4.59422653732648        1.90601646323821
H            0.07106672818557        5.48831201190109        2.60409753494190
H           -0.51448891903295        4.37276937709364        3.82397035818250
H            2.85471838251112        3.59743450339058        3.52253115818746
H           -4.81918835851064        0.77501575305380       -1.69464315153285
H           -6.29400040722643        1.11807728580825       -0.79108832855499
H           -4.67042038558207        3.21259639635973       -2.33149806752365
H           -6.20174905546653        2.50319356998214       -2.85231009201208
H           -6.14559200543852        3.52820720811900       -1.41744134537793
H           -7.29860557537761        2.23329601438700        0.94041269558040
H           -3.58400142827429        3.04423913353575        4.17377006293622
H           -0.42626197218056        0.85158136546583       -4.98222395050639
H            0.87212002399197       -0.01727989614543       -5.79702983168840
H           -1.07360484624563       -1.22953048997636       -3.76508812720877
H           -1.13362665708649       -1.43844867028456       -5.52421589104978
H           -0.11503205667540       -3.41290027071314       -4.64106373190879
H            1.23145767923258       -2.48634366723317       -5.31391587407357
H            2.52484352209094       -3.65728430795316       -3.90172079533447

          :  Hamiltonian                  GFN2-xTB          :
         :: total energy            -123.855582849690 Eh    ::
         :: gradient norm              0.000850815210 Eh/a0 ::
         :: HOMO-LUMO gap              1.678265921485 eV    ::
         :: SCC energy              -125.369981950363 Eh    ::
         :: -> dispersion             -0.096085912842 Eh    ::
         :: repulsion energy           1.514399100672 Eh    ::

    * Orbital Energies and Occupations

         #    Occupation            Energy/Eh            Energy/eV
      -------------------------------------------------------------
         1        2.0000           -1.1370204             -30.9399
       ...           ...                  ...                  ...
        97        2.0000           -0.5275892             -14.3564
        98        2.0000           -0.5200236             -14.1506
        99        2.0000           -0.5177862             -14.0897
       100        2.0000           -0.5133062             -13.9678
       101        2.0000           -0.5034597             -13.6998
       102        2.0000           -0.5004241             -13.6172
       103        2.0000           -0.4987899             -13.5728
       104        2.0000           -0.4971385             -13.5278
       105        2.0000           -0.4903505             -13.3431
       106        2.0000           -0.4896447             -13.3239
       107        2.0000           -0.4859493             -13.2234
       108        2.0000           -0.4775455             -12.9947
       109        2.0000           -0.4443096             -12.0903 (HOMO)
       110                         -0.3826345             -10.4120 (LUMO)
       111                         -0.3417172              -9.2986
       112                         -0.3298253              -8.9750
       113                         -0.3295103              -8.9664
       114                         -0.3263335              -8.8800
       115                         -0.3253889              -8.8543
       116                         -0.3232715              -8.7967
       117                         -0.2817080              -7.6657
       118                         -0.2291666              -6.2359
       119                         -0.2262632              -6.1569
       120                         -0.2257300              -6.1424
       ...                                ...                  ...
       215                          0.5790703              15.7573
      -------------------------------------------------------------
                  HL-Gap            0.0616751 Eh            1.6783 eV

     #   Z          covCN         q      C6AA      α(0)
     1   6 C        3.753    -0.120    22.855     6.817
     2   6 C        3.741    -0.015    20.920     6.526
     3   7 N        2.819    -0.000    21.269     6.849
     4   6 C        3.078     0.044    26.928     8.508
     5   6 C        2.953    -0.054    29.346     8.885
     6   6 C        2.921     0.087    26.073     8.374
     7  17 Cl       0.999    -0.112   102.660    15.501
     8   6 C        2.922     0.083    26.151     8.386
     9   6 C        2.953    -0.066    29.633     8.929
    10   6 C        3.065     0.038    27.095     8.536
    11   7 N        2.825    -0.026    21.745     6.926
    12   6 C        3.024     0.122    25.302     8.251
    13   6 C        2.909    -0.088    30.201     9.011
    14   6 C        2.891    -0.019    28.487     8.751
    15   6 C        2.909    -0.099    30.483     9.053
    16   6 C        3.010     0.109    25.582     8.297
    17   7 N        2.815    -0.021    21.656     6.912
    18   6 C        3.742    -0.018    20.975     6.534
    19   6 C        3.803    -0.065    21.737     6.638
    20   6 C        3.804    -0.098    22.364     6.733
    21   6 C        2.689     0.364    20.831     7.469
    22   8 O        0.856    -0.431    22.313     6.333
    23   8 O        1.660    -0.361    20.105     6.053
    24   6 C        3.071     0.036    27.120     8.539
    25   6 C        3.059     0.039    27.060     8.531
    26   7 N        2.826    -0.023    21.691     6.917
    27   6 C        3.739    -0.010    20.826     6.511
    28   6 C        3.752    -0.120    22.856     6.818
    29   6 C        2.953    -0.059    29.477     8.905
    30   6 C        2.922     0.087    26.072     8.373
    31   6 C        2.922     0.086    26.094     8.377
    32   6 C        2.954    -0.060    29.482     8.906
    33  17 Cl       0.999    -0.113   102.684    15.503
    34  17 Cl       0.999    -0.111   102.627    15.499
    35   6 C        3.741    -0.013    20.888     6.521
    36   6 C        3.802    -0.069    21.823     6.651
    37   6 C        3.801    -0.106    22.530     6.758
    38   6 C        2.688     0.358    20.917     7.485
    39   8 O        0.857    -0.386    21.407     6.203
    40   8 O        1.659    -0.366    20.202     6.068
    41  17 Cl       0.998    -0.119   102.874    15.517
    42   1 H        0.925     0.065     2.140     2.287
    43   1 H        0.925     0.063     2.163     2.300
    44   1 H        0.925     0.060     2.203     2.321
    45   1 H        0.925     0.089     1.885     2.147
    46   1 H        0.924     0.069     2.092     2.262
    47   1 H        0.926     0.086     1.917     2.165
    48   1 H        0.926     0.074     2.044     2.236
    49   1 H        0.926     0.050     2.323     2.383
    50   1 H        0.926     0.064     2.154     2.295
    51   1 H        0.926     0.052     2.300     2.371
    52   1 H        0.924     0.072     2.063     2.246
    53   1 H        0.925     0.086     1.917     2.165
    54   1 H        0.924     0.061     2.189     2.314
    55   1 H        0.924     0.057     2.231     2.336
    56   1 H        0.924     0.091     1.867     2.137
    57   1 H        0.924     0.084     1.937     2.176
    58   1 H        0.804     0.341     0.611     1.227
    59   1 H        0.924     0.067     2.123     2.278
    60   1 H        0.924     0.073     2.055     2.242
    61   1 H        0.925     0.053     2.280     2.361
    62   1 H        0.925     0.065     2.141     2.288
    63   1 H        0.925     0.058     2.217     2.328
    64   1 H        0.926     0.083     1.945     2.181
    65   1 H        0.926     0.080     1.979     2.200
    66   1 H        0.924     0.069     2.091     2.262
    67   1 H        0.924     0.074     2.045     2.236
    68   1 H        0.924     0.075     2.036     2.232
    69   1 H        0.925     0.065     2.141     2.288
    70   1 H        0.924     0.082     1.954     2.186
    71   1 H        0.924     0.058     2.223     2.332
    72   1 H        0.805     0.330     0.638     1.254

Wiberg/Mayer (AO) data.
largest (>0.10) Wiberg bond orders for each atom

     #   Z sym  total        # sym  WBO       # sym  WBO       # sym  WBO
 ---------------------------------------------------------------------------
     1   6 C    3.984 --     2 C    1.003    44 H    0.985    42 H    0.982
                            43 H    0.981
     2   6 C    3.946 --     1 C    1.003     3 N    0.974    46 H    0.966
                            45 H    0.952
     3   7 N    3.596 --    12 C    1.220     4 C    1.147     2 C    0.974
     4   6 C    3.965 --     5 C    1.358    10 C    1.250     3 N    1.147
     5   6 C    3.966 --     6 C    1.414     4 C    1.358    47 H    0.957
     6   6 C    3.918 --     5 C    1.414     8 C    1.325     7 Cl   1.015
     7  17 Cl   1.164 --     6 C    1.015
     8   6 C    3.912 --     9 C    1.412     6 C    1.325    41 Cl   1.011
     9   6 C    3.967 --     8 C    1.412    10 C    1.358    48 H    0.958
    10   6 C    3.962 --     9 C    1.358     4 C    1.250    11 N    1.141
    11   7 N    3.562 --    12 C    1.182    10 C    1.141    35 C    0.985
    12   6 C    3.919 --    13 C    1.307     3 N    1.220    11 N    1.182
    13   6 C    3.936 --    14 C    1.435    12 C    1.307    49 H    0.951
    14   6 C    3.960 --    13 C    1.435    15 C    1.408    50 H    0.946
    15   6 C    3.934 --    14 C    1.408    16 C    1.327    51 H    0.949
    16   6 C    3.914 --    15 C    1.327    17 N    1.193    26 N    1.189
    17   7 N    3.567 --    16 C    1.193    24 C    1.132    18 C    0.983
    18   6 C    3.954 --    19 C    0.990    17 N    0.983    52 H    0.963
                            53 H    0.955
    19   6 C    3.990 --    20 C    1.009    18 C    0.990    54 H    0.975
                            55 H    0.975
    20   6 C    3.992 --    19 C    1.009    21 C    0.981    57 H    0.950
                            56 H    0.946
    21   6 C    3.913 --    22 O    1.732    23 O    1.163    20 C    0.981
    22   8 O    2.017 --    21 C    1.732    23 O    0.174
    23   8 O    2.225 --    21 C    1.163    58 H    0.858    22 O    0.174
    24   6 C    3.961 --    32 C    1.363    25 C    1.255    17 N    1.132
    25   6 C    3.963 --    29 C    1.359    24 C    1.255    26 N    1.143
    26   7 N    3.571 --    16 C    1.189    25 C    1.143    27 C    0.980
    27   6 C    3.957 --    28 C    1.006    26 N    0.980    60 H    0.965
                            59 H    0.963
    28   6 C    3.985 --    27 C    1.006    63 H    0.985    61 H    0.985
                            62 H    0.981
    29   6 C    3.967 --    30 C    1.411    25 C    1.359    64 H    0.959
    30   6 C    3.917 --    29 C    1.411    31 C    1.326    34 Cl   1.017
    31   6 C    3.915 --    32 C    1.409    30 C    1.326    33 Cl   1.015
    32   6 C    3.968 --    31 C    1.409    24 C    1.363    65 H    0.958
    33  17 Cl   1.163 --    31 C    1.015
    34  17 Cl   1.166 --    30 C    1.017
    35   6 C    3.960 --    36 C    0.993    11 N    0.985    67 H    0.964
                            66 H    0.962
    36   6 C    3.987 --    37 C    1.007    35 C    0.993    69 H    0.972
                            68 H    0.969
    37   6 C    3.995 --    36 C    1.007    38 C    0.969    71 H    0.964
                            70 H    0.945
    38   6 C    3.915 --    39 O    1.771    40 O    1.136    37 C    0.969
    39   8 O    2.056 --    38 C    1.771    40 O    0.162
    40   8 O    2.215 --    38 C    1.136    72 H    0.868    39 O    0.162
    41  17 Cl   1.156 --     8 C    1.011
    42   1 H    0.996 --     1 C    0.982
    43   1 H    0.995 --     1 C    0.981
    44   1 H    0.996 --     1 C    0.985
    45   1 H    0.991 --     2 C    0.952
    46   1 H    0.994 --     2 C    0.966
    47   1 H    0.992 --     5 C    0.957
    48   1 H    0.994 --     9 C    0.958
    49   1 H    0.997 --    13 C    0.951
    50   1 H    0.996 --    14 C    0.946
    51   1 H    0.997 --    15 C    0.949
    52   1 H    0.994 --    18 C    0.963
    53   1 H    0.992 --    18 C    0.955
    54   1 H    0.996 --    19 C    0.975
    55   1 H    0.996 --    19 C    0.975
    56   1 H    0.991 --    20 C    0.946
    57   1 H    0.993 --    20 C    0.950
    58   1 H    0.884 --    23 O    0.858
    59   1 H    0.994 --    27 C    0.963
    60   1 H    0.994 --    27 C    0.965
    61   1 H    0.997 --    28 C    0.985
    62   1 H    0.995 --    28 C    0.981
    63   1 H    0.997 --    28 C    0.985
    64   1 H    0.992 --    29 C    0.959
    65   1 H    0.993 --    32 C    0.958
    66   1 H    0.994 --    35 C    0.962
    67   1 H    0.994 --    35 C    0.964
    68   1 H    0.994 --    36 C    0.969
    69   1 H    0.995 --    36 C    0.972
    70   1 H    0.993 --    37 C    0.945
    71   1 H    0.997 --    37 C    0.964
    72   1 H    0.891 --    40 O    0.868
 ---------------------------------------------------------------------------

molecular dipole:
                 x           y           z       tot (Debye)
 q only:       -2.055       2.543      -2.962
   full:       -1.681       2.327      -2.987      10.530

           -------------------------------------------------
          | TOTAL ENERGY             -123.855582849690 Eh   |
          | GRADIENT NORM               0.000850815210 Eh/α |
          | HOMO-LUMO GAP               1.678265921485 eV   |
           -------------------------------------------------

 * finished run on 2024/12/20 at 02:11:42.257
