   * xtb version 6.7.1 (edcfbbe) compiled by 'conda@3ef47c1a292c' on 2024-11-25

   ID    Z sym.   atoms
    1    8 O      1
    2    7 N      2
    3    1 H      3-6

          program call               : xtb C0245.xyz --opt --namespace C0245 --charge +1
          :  Hamiltonian                  GFN2-xTB          :
 * total energy  :    -8.4827274 Eh     change       -0.5217693E-10 Eh
 * total energy  :    -8.4850124 Eh     change       -0.2284967E-02 Eh
 * total energy  :    -8.4855428 Eh     change       -0.5304323E-03 Eh
 * total energy  :    -8.4855587 Eh     change       -0.1586872E-04 Eh
 * total energy  :    -8.4855612 Eh     change       -0.2560395E-05 Eh
   *** GEOMETRY OPTIMIZATION CONVERGED AFTER 5 ITERATIONS ***

 final structure:
================
6
 xtb: 6.7.1 (edcfbbe)
O            1.07253707479705        0.07955026627343        0.00011327642987
N            0.62613668468678        0.97168680249555       -0.97193613276957
H            2.04526242128819        0.02897997857575        0.05521791243280
H            0.92032055860182        1.94774678022109       -0.77258313167443
H            0.92032061687076        0.68953593491804       -1.92735523425727
H           -0.41017735624459        0.91963023751614       -0.91521669016140

          :  Hamiltonian                  GFN2-xTB          :
         :: total energy              -8.485561214964 Eh    ::
         :: gradient norm              0.000829991246 Eh/a0 ::
         :: HOMO-LUMO gap              9.512792967280 eV    ::
         :: SCC energy                -8.548122226995 Eh    ::
         :: -> dispersion             -0.000738649129 Eh    ::
         :: repulsion energy           0.062561012031 Eh    ::

    * Orbital Energies and Occupations

         #    Occupation            Energy/Eh            Energy/eV
      -------------------------------------------------------------
         1        2.0000           -0.9931428             -27.0248
         2        2.0000           -0.9283161             -25.2608
         3        2.0000           -0.8835507             -24.0426
         4        2.0000           -0.8646442             -23.5282
         5        2.0000           -0.8489357             -23.1007
         6        2.0000           -0.7570959             -20.6016
         7        2.0000           -0.7052203             -19.1900 (HOMO)
         8                         -0.3556316              -9.6772 (LUMO)
         9                         -0.2714968              -7.3878
        10                         -0.1531363              -4.1671
        11                         -0.1319516              -3.5906
        12                         -0.0573921              -1.5617
      -------------------------------------------------------------
                  HL-Gap            0.3495887 Eh            9.5128 eV

     #   Z          covCN         q      C6AA      α(0)
     1   8 O        1.718    -0.277    18.597     5.823
     2   7 N        3.489     0.029    20.742     6.764
     3   1 H        0.804     0.376     0.532     1.146
     4   1 H        0.858     0.282     0.771     1.375
     5   1 H        0.858     0.282     0.771     1.375
     6   1 H        0.858     0.310     0.685     1.297

Wiberg/Mayer (AO) data.
largest (>0.10) Wiberg bond orders for each atom

     #   Z sym  total        # sym  WBO       # sym  WBO       # sym  WBO
 ---------------------------------------------------------------------------
     1   8 O    1.908 --     2 N    1.023     3 H    0.849
     2   7 N    3.716 --     1 O    1.023     4 H    0.902     5 H    0.902
                             6 H    0.889
     3   1 H    0.859 --     1 O    0.849
     4   1 H    0.921 --     2 N    0.902
     5   1 H    0.921 --     2 N    0.902
     6   1 H    0.904 --     2 N    0.889
 ---------------------------------------------------------------------------

molecular dipole:
                 x           y           z       tot (Debye)
 q only:        1.663       1.974      -1.986
   full:        1.793       2.165      -2.195       9.066

           -------------------------------------------------
          | TOTAL ENERGY               -8.485561214964 Eh   |
          | GRADIENT NORM               0.000829991246 Eh/α |
          | HOMO-LUMO GAP               9.512792967280 eV   |
           -------------------------------------------------

 * finished run on 2024/12/20 at 02:11:51.069
