   * xtb version 6.7.1 (edcfbbe) compiled by 'conda@3ef47c1a292c' on 2024-11-25

   ID    Z sym.   atoms
    1    6 C      1-18, 20-29
    2    7 N      19
    3    1 H      30-89

          program call               : xtb C0249.xyz --opt --namespace C0249 --charge +1
          :  Hamiltonian                  GFN2-xTB          :
 * total energy  :   -93.1169739 Eh     change       -0.5873346E-10 Eh
 * total energy  :   -93.1244959 Eh     change       -0.7522015E-02 Eh
 * total energy  :   -93.1261661 Eh     change       -0.1670182E-02 Eh
 * total energy  :   -93.1262716 Eh     change       -0.1054914E-03 Eh
 * total energy  :   -93.1263975 Eh     change       -0.1259437E-03 Eh
 * total energy  :   -93.1264636 Eh     change       -0.6601940E-04 Eh
 * total energy  :   -93.1266772 Eh     change       -0.2136075E-03 Eh
 * total energy  :   -93.1268826 Eh     change       -0.2054691E-03 Eh
 * total energy  :   -93.1270045 Eh     change       -0.1218679E-03 Eh
 * total energy  :   -93.1272306 Eh     change       -0.2261405E-03 Eh
 * total energy  :   -93.1287765 Eh     change       -0.1633253E-04 Eh
 * total energy  :   -93.1287934 Eh     change       -0.1685408E-04 Eh
 * total energy  :   -93.1288146 Eh     change       -0.2120166E-04 Eh
 * total energy  :   -93.1288391 Eh     change       -0.2445888E-04 Eh
 * total energy  :   -93.1288644 Eh     change       -0.2530917E-04 Eh
 * total energy  :   -93.1288862 Eh     change       -0.2184676E-04 Eh
 * total energy  :   -93.1289005 Eh     change       -0.1426813E-04 Eh
 * total energy  :   -93.1289094 Eh     change       -0.8933596E-05 Eh
 * total energy  :   -93.1289128 Eh     change       -0.3418467E-05 Eh
   *** GEOMETRY OPTIMIZATION CONVERGED AFTER 44 ITERATIONS ***

 final structure:
================
89
 xtb: 6.7.1 (edcfbbe)
C            1.20355951742915        1.27475708143233       -0.58870090205631
C            1.34117919696849        0.36040409753307       -1.80011949560927
C            1.50838054208425       -1.11344541063271       -1.42747964840137
C            0.32152931130828       -1.73172713034358       -0.68525791280332
C           -1.01079299618279       -1.68234634088770       -1.43617966363367
C           -0.99821098271850       -2.33454577558383       -2.81979524673261
C           -0.61501112533970       -3.81527670291663       -2.83285437845863
C           -1.55267948724103       -4.73433830957953       -2.04734108048437
C           -3.01257307838023       -4.71734993893227       -2.50646822993950
C           -3.22799286063869       -5.02542256625393       -3.98950854833794
C           -2.67591014335676       -6.37342856158200       -4.45577471090215
C           -3.30386123630863       -7.59628287739318       -3.78459539575972
C           -4.81239145669308       -7.74743521802603       -3.99444139642317
C           -5.26195185868633       -7.76923531454232       -5.45729328476149
C           -4.59699670976404       -8.84817564025028       -6.31431269949558
C           -4.86134595994997      -10.28640386425032       -5.86442579226301
C           -6.33822001344505      -10.70442302276334       -5.81663255704609
C           -7.19100775739005      -10.41072096098552       -7.05502897243372
N           -7.19018180545733      -11.41535098024509       -8.16571114249966
C           -7.87128306184685      -12.68714029395914       -7.76628111715739
C           -9.39013343196048      -12.64416182984840       -7.56706397131351
C          -10.24392401076908      -12.99671732330899       -8.79303955077613
C           -9.92714367741623      -14.34590613110470       -9.44370494850785
C          -10.00633093668616      -15.55284417996900       -8.50688409646194
C          -11.37323267859461      -15.76887622507370       -7.85344292088760
C          -12.52953209430846      -15.97363209156842       -8.83384340540049
C          -12.35845358099731      -17.20237489754843       -9.71894891149057
C           -7.86424919526366      -10.80472780949856       -9.32618399115541
C           -5.81250852532843      -11.75087862989625       -8.56892385700300
H            0.27877508496320        1.07877212119758       -0.05208792525110
H            1.19818377798710        2.31657664460926       -0.90134713443004
H            2.03678090431732        1.12736909956785        0.09510668105526
H            0.47260333148370        0.48370690998324       -2.44930841949147
H            2.22023760313618        0.66598441820114       -2.37333518712678
H            1.70197308862561       -1.68424843529121       -2.33820479026201
H            2.39213322756155       -1.21204797092677       -0.79157132815266
H            0.56772567644514       -2.77106738971162       -0.45627706853976
H            0.19172947819427       -1.21933945438067        0.26998041315216
H           -1.76970238402732       -2.16493576953352       -0.81603997013866
H           -1.31527562194513       -0.64061084685139       -1.55613712059458
H           -1.98903181723382       -2.21353265474553       -3.26358575924098
H           -0.29590967684100       -1.79736953703839       -3.46033740565323
H           -0.57189693813474       -4.14756155385807       -3.87273958457077
H            0.39045600916745       -3.92779431472000       -2.42306636446952
H           -1.16517011255894       -5.75392076836292       -2.11352032350469
H           -1.52746900489573       -4.45473354875552       -0.99245697333541
H           -3.56962940252129       -5.43653320790941       -1.90116828247130
H           -3.43965938995029       -3.73370116049127       -2.30198865748324
H           -4.29968238689799       -4.97862706662668       -4.19742275628134
H           -2.75514894136858       -4.24348491908794       -4.58639332939330
H           -2.80905003818637       -6.44258815545887       -5.53823035606431
H           -1.60159532242906       -6.40151670128139       -4.26792663973968
H           -2.79320912033651       -8.48994032139959       -4.15223718667036
H           -3.11826974465810       -7.54731870448690       -2.71074429085862
H           -5.13834418872544       -8.66355339550066       -3.49544287229873
H           -5.32460950600050       -6.92012748032836       -3.50120959292209
H           -6.34846611408333       -7.88865878624460       -5.48325676904545
H           -5.03907471611226       -6.80097827443367       -5.90737620214673
H           -4.90848396864658       -8.70984198975343       -7.35453488042066
H           -3.51829865780298       -8.69341058328839       -6.29659198179551
H           -4.28058195820844      -10.95688244748740       -6.49880391020445
H           -4.47114444010089      -10.40610040785641       -4.85346039243438
H           -6.39669317614392      -11.75831905284886       -5.54101555345758
H           -6.80448821941331      -10.15017274589101       -5.00056113586612
H           -8.22947957579236      -10.30019129316371       -6.73970559159530
H           -6.87083449142926       -9.45820637532288       -7.47871650357563
H           -7.64261127472055      -13.43093025182064       -8.53053037798372
H           -7.39994655028859      -13.01239882375550       -6.83813731495952
H           -9.62236864520517      -13.37144395570501       -6.78839096429890
H           -9.70974189366014      -11.67477306848185       -7.18235796102027
H          -11.28213253599372      -13.01040433080915       -8.46060611799151
H          -10.17241517109847      -12.22267583893835       -9.55830069509295
H          -10.63309115917486      -14.48824865501965      -10.26194443576058
H           -8.93225615113138      -14.32500637033978       -9.89914778140295
H           -9.74840241355186      -16.44173190860033       -9.08357086520131
H           -9.25565287034101      -15.45980072510089       -7.71763183182695
H          -11.30072790553775      -16.65286786386528       -7.21625986578604
H          -11.60986254101189      -14.92302597871461       -7.20357579647343
H          -13.44541383612113      -16.08679631233018       -8.25021996528153
H          -12.65472238412877      -15.08754841362060       -9.45936320416088
H          -12.18862187040770      -18.08802100195360       -9.11113677840952
H          -13.25493918375098      -17.36338153937123      -10.31204933548970
H          -11.52095232010510      -17.08675935330081      -10.40254862518596
H           -7.27453731714896       -9.96981763653162       -9.70194981165348
H           -7.97208190217866      -11.53992524712831      -10.12113052174040
H           -8.84753248302631      -10.43502712212119       -9.04656609554799
H           -5.24104177497431      -10.84032847441436       -8.73673455370229
H           -5.32474577781210      -12.34168858518973       -7.79806898340182
H           -5.82527120908262      -12.32946557569640       -9.49145514417644

          :  Hamiltonian                  GFN2-xTB          :
         :: total energy             -93.128912828596 Eh    ::
         :: gradient norm              0.000235570672 Eh/a0 ::
         :: HOMO-LUMO gap              6.058767980739 eV    ::
         :: SCC energy               -94.490324963010 Eh    ::
         :: -> dispersion             -0.076346865506 Eh    ::
         :: repulsion energy           1.361412134414 Eh    ::

    * Orbital Energies and Occupations

         #    Occupation            Energy/Eh            Energy/eV
      -------------------------------------------------------------
         1        2.0000           -0.8562141             -23.2988
       ...           ...                  ...                  ...
        76        2.0000           -0.4969502             -13.5227
        77        2.0000           -0.4961860             -13.5019
        78        2.0000           -0.4928252             -13.4105
        79        2.0000           -0.4867529             -13.2452
        80        2.0000           -0.4817512             -13.1091
        81        2.0000           -0.4786111             -13.0237
        82        2.0000           -0.4743792             -12.9085
        83        2.0000           -0.4661656             -12.6850
        84        2.0000           -0.4645673             -12.6415
        85        2.0000           -0.4622645             -12.5789
        86        2.0000           -0.4538372             -12.3495
        87        2.0000           -0.4480547             -12.1922
        88        2.0000           -0.4468834             -12.1603 (HOMO)
        89                         -0.2242278              -6.1015 (LUMO)
        90                         -0.1639527              -4.4614
        91                         -0.1423565              -3.8737
        92                         -0.1372893              -3.7358
        93                         -0.0772381              -2.1018
        94                         -0.0732077              -1.9921
        95                         -0.0559709              -1.5230
        96                         -0.0317412              -0.8637
        97                         -0.0305269              -0.8307
        98                         -0.0295270              -0.8035
        99                         -0.0137567              -0.3743
       ...                                ...                  ...
       176                          0.2750374               7.4841
      -------------------------------------------------------------
                  HL-Gap            0.2226556 Eh            6.0588 eV

     #   Z          covCN         q      C6AA      α(0)
     1   6 C        3.751    -0.101    22.499     6.764
     2   6 C        3.799    -0.052    21.504     6.603
     3   6 C        3.800    -0.057    21.597     6.617
     4   6 C        3.800    -0.057    21.593     6.616
     5   6 C        3.800    -0.056    21.581     6.614
     6   6 C        3.800    -0.056    21.586     6.615
     7   6 C        3.800    -0.056    21.590     6.616
     8   6 C        3.800    -0.056    21.590     6.616
     9   6 C        3.800    -0.057    21.592     6.616
    10   6 C        3.800    -0.057    21.599     6.617
    11   6 C        3.800    -0.058    21.614     6.619
    12   6 C        3.800    -0.059    21.631     6.622
    13   6 C        3.800    -0.059    21.641     6.623
    14   6 C        3.800    -0.061    21.673     6.628
    15   6 C        3.800    -0.062    21.685     6.630
    16   6 C        3.799    -0.071    21.861     6.657
    17   6 C        3.798    -0.071    21.862     6.657
    18   6 C        3.758    -0.040    21.345     6.587
    19   7 N        3.620     0.129    19.041     6.481
    20   6 C        3.759    -0.041    21.349     6.587
    21   6 C        3.799    -0.071    21.866     6.658
    22   6 C        3.799    -0.071    21.855     6.656
    23   6 C        3.800    -0.062    21.694     6.632
    24   6 C        3.800    -0.062    21.695     6.632
    25   6 C        3.801    -0.061    21.666     6.627
    26   6 C        3.799    -0.055    21.559     6.611
    27   6 C        3.751    -0.105    22.576     6.776
    28   6 C        3.726    -0.091    22.347     6.750
    29   6 C        3.726    -0.091    22.351     6.750
    30   1 H        0.925     0.034     2.529     2.487
    31   1 H        0.925     0.031     2.568     2.506
    32   1 H        0.925     0.034     2.533     2.489
    33   1 H        0.924     0.030     2.585     2.514
    34   1 H        0.924     0.026     2.642     2.542
    35   1 H        0.924     0.028     2.620     2.531
    36   1 H        0.924     0.028     2.609     2.526
    37   1 H        0.924     0.027     2.628     2.535
    38   1 H        0.924     0.032     2.561     2.503
    39   1 H        0.924     0.027     2.636     2.539
    40   1 H        0.924     0.031     2.574     2.509
    41   1 H        0.924     0.026     2.645     2.543
    42   1 H        0.924     0.031     2.570     2.507
    43   1 H        0.924     0.025     2.660     2.551
    44   1 H        0.924     0.033     2.550     2.497
    45   1 H        0.924     0.025     2.660     2.551
    46   1 H        0.924     0.033     2.541     2.493
    47   1 H        0.924     0.025     2.656     2.549
    48   1 H        0.924     0.033     2.542     2.493
    49   1 H        0.924     0.024     2.673     2.557
    50   1 H        0.924     0.035     2.523     2.484
    51   1 H        0.924     0.023     2.695     2.567
    52   1 H        0.924     0.038     2.479     2.462
    53   1 H        0.924     0.024     2.678     2.559
    54   1 H        0.924     0.040     2.449     2.447
    55   1 H        0.924     0.024     2.677     2.558
    56   1 H        0.924     0.041     2.435     2.440
    57   1 H        0.924     0.020     2.735     2.586
    58   1 H        0.924     0.044     2.392     2.419
    59   1 H        0.924     0.013     2.845     2.638
    60   1 H        0.925     0.054     2.267     2.355
    61   1 H        0.924     0.033     2.549     2.497
    62   1 H        0.924     0.062     2.174     2.306
    63   1 H        0.924     0.047     2.356     2.401
    64   1 H        0.924     0.075     2.028     2.227
    65   1 H        0.924     0.078     2.000     2.211
    66   1 H        0.924     0.091     1.872     2.140
    67   1 H        0.924     0.091     1.872     2.139
    68   1 H        0.924     0.078     1.995     2.209
    69   1 H        0.924     0.075     2.030     2.228
    70   1 H        0.924     0.046     2.366     2.405
    71   1 H        0.924     0.061     2.190     2.314
    72   1 H        0.924     0.033     2.547     2.496
    73   1 H        0.925     0.054     2.272     2.357
    74   1 H        0.924     0.016     2.791     2.613
    75   1 H        0.924     0.046     2.368     2.407
    76   1 H        0.924     0.021     2.713     2.576
    77   1 H        0.924     0.039     2.458     2.452
    78   1 H        0.924     0.025     2.654     2.548
    79   1 H        0.924     0.036     2.501     2.473
    80   1 H        0.924     0.029     2.601     2.522
    81   1 H        0.925     0.039     2.458     2.452
    82   1 H        0.925     0.040     2.449     2.447
    83   1 H        0.925     0.033     2.542     2.493
    84   1 H        0.925     0.092     1.863     2.135
    85   1 H        0.925     0.098     1.800     2.098
    86   1 H        0.925     0.099     1.792     2.093
    87   1 H        0.925     0.100     1.789     2.092
    88   1 H        0.925     0.099     1.792     2.093
    89   1 H        0.925     0.091     1.867     2.137

Wiberg/Mayer (AO) data.
largest (>0.10) Wiberg bond orders for each atom

     #   Z sym  total        # sym  WBO       # sym  WBO       # sym  WBO
 ---------------------------------------------------------------------------
     1   6 C    3.997 --     2 C    1.020    32 H    0.988    31 H    0.988
                            30 H    0.986
     2   6 C    3.998 --     1 C    1.020     3 C    1.008    34 H    0.979
                            33 H    0.976
     3   6 C    3.998 --     2 C    1.008     4 C    1.008    36 H    0.977
                            35 H    0.976
     4   6 C    3.998 --     5 C    1.008     3 C    1.008    38 H    0.976
                            37 H    0.975
     5   6 C    3.998 --     6 C    1.008     4 C    1.008    39 H    0.975
                            40 H    0.975
     6   6 C    3.998 --     7 C    1.008     5 C    1.008    41 H    0.975
                            42 H    0.975
     7   6 C    3.998 --     6 C    1.008     8 C    1.008    43 H    0.975
                            44 H    0.974
     8   6 C    3.997 --     7 C    1.008     9 C    1.007    45 H    0.976
                            46 H    0.975
     9   6 C    3.997 --    10 C    1.008     8 C    1.007    47 H    0.976
                            48 H    0.975
    10   6 C    3.997 --    11 C    1.008     9 C    1.008    49 H    0.975
                            50 H    0.974
    11   6 C    3.997 --    10 C    1.008    12 C    1.008    51 H    0.975
                            52 H    0.973
    12   6 C    3.997 --    11 C    1.008    13 C    1.007    53 H    0.975
                            54 H    0.974
    13   6 C    3.996 --    12 C    1.007    14 C    1.007    55 H    0.976
                            56 H    0.974
    14   6 C    3.996 --    13 C    1.007    15 C    1.007    57 H    0.976
                            58 H    0.973
    15   6 C    3.995 --    16 C    1.008    14 C    1.007    59 H    0.971
                            60 H    0.970
    16   6 C    3.991 --    15 C    1.008    17 C    1.004    61 H    0.974
                            62 H    0.970
    17   6 C    3.984 --    18 C    1.006    16 C    1.004    63 H    0.966
                            64 H    0.965
    18   6 C    3.928 --    17 C    1.006    65 H    0.964    66 H    0.959
                            19 N    0.923
    19   7 N    3.808 --    28 C    0.961    29 C    0.960    20 C    0.924
                            18 C    0.923
    20   6 C    3.928 --    21 C    1.005    68 H    0.964    67 H    0.959
                            19 N    0.924
    21   6 C    3.985 --    20 C    1.005    22 C    1.004    70 H    0.965
                            69 H    0.965
    22   6 C    3.992 --    23 C    1.007    21 C    1.004    72 H    0.974
                            71 H    0.971
    23   6 C    3.995 --    24 C    1.007    22 C    1.007    74 H    0.971
                            73 H    0.971
    24   6 C    3.996 --    23 C    1.007    25 C    1.007    76 H    0.976
                            75 H    0.974
    25   6 C    3.997 --    26 C    1.008    24 C    1.007    77 H    0.976
                            78 H    0.975
    26   6 C    3.997 --    27 C    1.020    25 C    1.008    79 H    0.978
                            80 H    0.976
    27   6 C    3.996 --    26 C    1.020    81 H    0.987    82 H    0.987
                            83 H    0.986
    28   6 C    3.932 --    84 H    0.975    85 H    0.973    86 H    0.972
                            19 N    0.961
    29   6 C    3.931 --    89 H    0.975    87 H    0.973    88 H    0.972
                            19 N    0.960
    30   1 H    0.999 --     1 C    0.986
    31   1 H    0.999 --     1 C    0.988
    32   1 H    0.999 --     1 C    0.988
    33   1 H    0.999 --     2 C    0.976
    34   1 H    0.999 --     2 C    0.979
    35   1 H    0.999 --     3 C    0.976
    36   1 H    0.999 --     3 C    0.977
    37   1 H    0.999 --     4 C    0.975
    38   1 H    0.999 --     4 C    0.976
    39   1 H    0.999 --     5 C    0.975
    40   1 H    0.999 --     5 C    0.975
    41   1 H    0.999 --     6 C    0.975
    42   1 H    0.999 --     6 C    0.975
    43   1 H    0.999 --     7 C    0.975
    44   1 H    0.999 --     7 C    0.974
    45   1 H    0.999 --     8 C    0.976
    46   1 H    0.999 --     8 C    0.975
    47   1 H    0.999 --     9 C    0.976
    48   1 H    0.999 --     9 C    0.975
    49   1 H    0.999 --    10 C    0.975
    50   1 H    0.999 --    10 C    0.974
    51   1 H    0.999 --    11 C    0.975
    52   1 H    0.999 --    11 C    0.973
    53   1 H    0.999 --    12 C    0.975
    54   1 H    0.998 --    12 C    0.974
    55   1 H    0.999 --    13 C    0.976
    56   1 H    0.998 --    13 C    0.974
    57   1 H    1.000 --    14 C    0.976
    58   1 H    0.998 --    14 C    0.973
    59   1 H    1.000 --    15 C    0.971
    60   1 H    0.997 --    15 C    0.970
    61   1 H    0.999 --    16 C    0.974
    62   1 H    0.996 --    16 C    0.970
    63   1 H    0.998 --    17 C    0.966
    64   1 H    0.994 --    17 C    0.965
    65   1 H    0.994 --    18 C    0.964
    66   1 H    0.992 --    18 C    0.959
    67   1 H    0.992 --    20 C    0.959
    68   1 H    0.994 --    20 C    0.964
    69   1 H    0.994 --    21 C    0.965
    70   1 H    0.998 --    21 C    0.965
    71   1 H    0.996 --    22 C    0.971
    72   1 H    0.999 --    22 C    0.974
    73   1 H    0.997 --    23 C    0.971
    74   1 H    1.000 --    23 C    0.971
    75   1 H    0.998 --    24 C    0.974
    76   1 H    1.000 --    24 C    0.976
    77   1 H    0.998 --    25 C    0.976
    78   1 H    0.999 --    25 C    0.975
    79   1 H    0.999 --    26 C    0.978
    80   1 H    0.999 --    26 C    0.976
    81   1 H    0.998 --    27 C    0.987
    82   1 H    0.998 --    27 C    0.987
    83   1 H    0.999 --    27 C    0.986
    84   1 H    0.992 --    28 C    0.975
    85   1 H    0.990 --    28 C    0.973
    86   1 H    0.990 --    28 C    0.972
    87   1 H    0.990 --    29 C    0.973
    88   1 H    0.990 --    29 C    0.972
    89   1 H    0.992 --    29 C    0.975
 ---------------------------------------------------------------------------

molecular dipole:
                 x           y           z       tot (Debye)
 q only:      -13.645     -21.500     -14.935
   full:      -13.640     -21.505     -14.982      75.098

           -------------------------------------------------
          | TOTAL ENERGY              -93.128912828596 Eh   |
          | GRADIENT NORM               0.000235570672 Eh/α |
          | HOMO-LUMO GAP               6.058767980739 eV   |
           -------------------------------------------------

 * finished run on 2024/12/20 at 02:12:07.507
