   * xtb version 6.7.1 (edcfbbe) compiled by 'conda@3ef47c1a292c' on 2024-11-25

   ID    Z sym.   atoms
    1    6 C      1, 4, 6-14
    2    7 N      2, 3, 5
    3    1 H      15-36

          program call               : xtb C0244.xyz --opt --namespace C0244 --charge +1
          :  Hamiltonian                  GFN2-xTB          :
 * total energy  :   -43.1596851 Eh     change       -0.1751488E-10 Eh
 * total energy  :   -43.1634921 Eh     change       -0.3807013E-02 Eh
 * total energy  :   -43.1643260 Eh     change       -0.8338587E-03 Eh
 * total energy  :   -43.1644572 Eh     change       -0.1312176E-03 Eh
 * total energy  :   -43.1645560 Eh     change       -0.9879950E-04 Eh
 * total energy  :   -43.1645839 Eh     change       -0.2791424E-04 Eh
 * total energy  :   -43.1646159 Eh     change       -0.3196134E-04 Eh
 * total energy  :   -43.1646589 Eh     change       -0.4304905E-04 Eh
 * total energy  :   -43.1646824 Eh     change       -0.2349905E-04 Eh
 * total energy  :   -43.1647169 Eh     change       -0.3449672E-04 Eh
 * total energy  :   -43.1647384 Eh     change       -0.2155044E-04 Eh
 * total energy  :   -43.1647450 Eh     change       -0.6512881E-05 Eh
 * total energy  :   -43.1647575 Eh     change       -0.1254325E-04 Eh
 * total energy  :   -43.1647661 Eh     change       -0.8560882E-05 Eh
 * total energy  :   -43.1647718 Eh     change       -0.5708963E-05 Eh
 * total energy  :   -43.1647741 Eh     change       -0.2315578E-05 Eh
   *** GEOMETRY OPTIMIZATION CONVERGED AFTER 16 ITERATIONS ***

 final structure:
================
36
 xtb: 6.7.1 (edcfbbe)
C            0.75860352533653       -0.12627423040486       -0.52496380954216
N            0.34490254133535        1.24604258963408       -0.53811387721192
N           -0.93948581717377        1.56981515312144       -0.63753391314175
C           -0.98881633534810        2.86572801936738       -0.62014702675426
N            0.25923593760101        3.39407296641976       -0.51631229856839
C            1.08475981591879        2.34273410116373       -0.45979599608240
C            0.60496148928161        4.78905932287294       -0.37929462361424
C            0.57920080355795        5.21369272345472        1.09478790522832
C            1.61626760065448        4.50411419546551        1.96529643781612
C            3.07486577158062        4.77306941800067        1.58539942870621
C            3.49063431257597        6.24566827047572        1.63211775948910
C            3.28726616807988        6.93201617666944        2.98457796512447
C            4.02027276334795        6.27747409395548        4.15703465543050
C            5.53469906811950        6.26027392144821        3.98670580602724
H            0.38523127261386       -0.62513409820485       -1.41976240442926
H            0.32899126244135       -0.62893445194655        0.34261667892835
H            1.84320315073212       -0.18936856404589       -0.48947937301313
H           -1.89370231926486        3.43504393312298       -0.68685743458398
H            2.15348602886547        2.38390984857925       -0.38115943071528
H            1.59792053285630        4.94674555852520       -0.80202590611088
H           -0.12086694387476        5.37420815463653       -0.94659546637979
H            0.75277991504558        6.28813773868859        1.12627100320647
H           -0.41759980572108        5.02821478671915        1.50086837478524
H            1.46029665937487        4.82970152137979        2.99334536775338
H            1.43693248146076        3.42344084154446        1.95012514784182
H            3.70611770143508        4.20714649872278        2.27135272792921
H            3.28290934460420        4.39422858547906        0.57993953650226
H            4.54631127239845        6.30163101280114        1.36403135759533
H            2.94246495457989        6.80867008458824        0.87263149842368
H            3.63979573327437        7.96097380503843        2.88872500072153
H            2.22112885773974        6.97946888849797        3.21814532863663
H            3.77603163589441        6.84181226591855        5.05923366567567
H            3.65793512629713        5.25827458182502        4.30795063250855
H            5.90624986104534        7.26311952507861        3.79018456796970
H            6.00847514151991        5.89367237675966        4.89368027795691
H            5.83614049181224        5.61382038464901        3.16592043588999

          :  Hamiltonian                  GFN2-xTB          :
         :: total energy             -43.164774090323 Eh    ::
         :: gradient norm              0.000298274781 Eh/a0 ::
         :: HOMO-LUMO gap              1.956929828861 eV    ::
         :: SCC energy               -43.782530952709 Eh    ::
         :: -> dispersion             -0.027901891690 Eh    ::
         :: repulsion energy           0.617756862386 Eh    ::

    * Orbital Energies and Occupations

         #    Occupation            Energy/Eh            Energy/eV
      -------------------------------------------------------------
         1        2.0000           -0.9283163             -25.2608
       ...           ...                  ...                  ...
        28        2.0000           -0.5985625             -16.2877
        29        2.0000           -0.5980344             -16.2733
        30        2.0000           -0.5926430             -16.1266
        31        2.0000           -0.5810675             -15.8117
        32        2.0000           -0.5752728             -15.6540
        33        2.0000           -0.5641790             -15.3521
        34        2.0000           -0.5604679             -15.2511
        35        2.0000           -0.5439579             -14.8018
        36        2.0000           -0.5373421             -14.6218
        37        2.0000           -0.5317360             -14.4693
        38        2.0000           -0.5098134             -13.8727
        39        2.0000           -0.5060443             -13.7702
        40        2.0000           -0.5014931             -13.6463 (HOMO)
        41                         -0.4295772             -11.6894 (LUMO)
        42                         -0.4051776             -11.0254
        43                         -0.2013401              -5.4787
        44                         -0.1482078              -4.0329
        45                         -0.0947998              -2.5796
        46                         -0.0720921              -1.9617
        47                         -0.0535579              -1.4574
        48                         -0.0362865              -0.9874
        49                         -0.0309554              -0.8423
        50                         -0.0163963              -0.4462
        51                         -0.0137029              -0.3729
       ...                                ...                  ...
        78                          0.3590156               9.7693
      -------------------------------------------------------------
                  HL-Gap            0.0719158 Eh            1.9569 eV

     #   Z          covCN         q      C6AA      α(0)
     1   6 C        3.692    -0.096    22.530     6.792
     2   7 N        3.056     0.160    18.545     6.396
     3   7 N        2.044    -0.145    24.826     7.391
     4   6 C        3.152     0.087    25.788     8.306
     5   7 N        2.854     0.056    20.259     6.685
     6   6 C        3.071     0.051    26.784     8.486
     7   6 C        3.740    -0.025    21.101     6.554
     8   6 C        3.802    -0.071    21.850     6.655
     9   6 C        3.800    -0.065    21.749     6.640
    10   6 C        3.800    -0.061    21.679     6.629
    11   6 C        3.800    -0.062    21.696     6.632
    12   6 C        3.801    -0.062    21.690     6.631
    13   6 C        3.799    -0.055    21.556     6.611
    14   6 C        3.751    -0.105    22.577     6.776
    15   1 H        0.924     0.126     1.562     1.955
    16   1 H        0.924     0.125     1.574     1.962
    17   1 H        0.925     0.105     1.737     2.061
    18   1 H        0.926     0.122     1.600     1.978
    19   1 H        0.926     0.125     1.573     1.962
    20   1 H        0.924     0.093     1.847     2.125
    21   1 H        0.924     0.089     1.887     2.148
    22   1 H        0.925     0.085     1.933     2.174
    23   1 H        0.924     0.053     2.280     2.361
    24   1 H        0.925     0.068     2.105     2.269
    25   1 H        0.924     0.017     2.780     2.607
    26   1 H        0.924     0.051     2.308     2.376
    27   1 H        0.924     0.013     2.847     2.639
    28   1 H        0.924     0.048     2.347     2.396
    29   1 H        0.924     0.026     2.644     2.543
    30   1 H        0.924     0.042     2.418     2.432
    31   1 H        0.924     0.027     2.629     2.536
    32   1 H        0.924     0.037     2.483     2.464
    33   1 H        0.924     0.027     2.635     2.539
    34   1 H        0.925     0.041     2.437     2.441
    35   1 H        0.925     0.040     2.448     2.447
    36   1 H        0.925     0.032     2.561     2.503

Wiberg/Mayer (AO) data.
largest (>0.10) Wiberg bond orders for each atom

     #   Z sym  total        # sym  WBO       # sym  WBO       # sym  WBO
 ---------------------------------------------------------------------------
     1   6 C    3.922 --     2 N    0.989    17 H    0.974    15 H    0.955
                            16 H    0.953
     2   7 N    3.752 --     6 C    1.399     3 N    1.210     1 C    0.989
     3   7 N    3.024 --     4 C    1.590     2 N    1.210
     4   6 C    3.950 --     3 N    1.590     5 N    1.246    18 H    0.953
     5   7 N    3.716 --     6 C    1.334     4 C    1.246     7 C    0.963
     6   6 C    3.949 --     2 N    1.399     5 N    1.334    19 H    0.949
     7   6 C    3.928 --     8 C    0.976    21 H    0.964     5 N    0.963
                            20 H    0.960
     8   6 C    3.981 --     9 C    1.009     7 C    0.976    23 H    0.975
                            22 H    0.961
     9   6 C    3.992 --     8 C    1.009    10 C    1.007    25 H    0.973
                            24 H    0.967
    10   6 C    3.995 --     9 C    1.007    11 C    1.007    27 H    0.974
                            26 H    0.973
    11   6 C    3.995 --    12 C    1.008    10 C    1.007    29 H    0.975
                            28 H    0.974
    12   6 C    3.996 --    13 C    1.008    11 C    1.008    30 H    0.976
                            31 H    0.976
    13   6 C    3.997 --    14 C    1.020    12 C    1.008    32 H    0.977
                            33 H    0.976
    14   6 C    3.996 --    13 C    1.020    34 H    0.987    35 H    0.987
                            36 H    0.986
    15   1 H    0.983 --     1 C    0.955
    16   1 H    0.984 --     1 C    0.953
    17   1 H    0.989 --     1 C    0.974
    18   1 H    0.985 --     4 C    0.953
    19   1 H    0.984 --     6 C    0.949
    20   1 H    0.991 --     7 C    0.960
    21   1 H    0.992 --     7 C    0.964
    22   1 H    0.991 --     8 C    0.961
    23   1 H    0.997 --     8 C    0.975
    24   1 H    0.995 --     9 C    0.967
    25   1 H    1.000 --     9 C    0.973
    26   1 H    0.997 --    10 C    0.973
    27   1 H    1.000 --    10 C    0.974
    28   1 H    0.998 --    11 C    0.974
    29   1 H    0.999 --    11 C    0.975
    30   1 H    0.998 --    12 C    0.976
    31   1 H    0.999 --    12 C    0.976
    32   1 H    0.999 --    13 C    0.977
    33   1 H    0.999 --    13 C    0.976
    34   1 H    0.998 --    14 C    0.987
    35   1 H    0.998 --    14 C    0.987
    36   1 H    0.999 --    14 C    0.986
 ---------------------------------------------------------------------------

molecular dipole:
                 x           y           z       tot (Debye)
 q only:        1.512       5.101      -0.315
   full:        1.715       5.353      -0.384      14.320

           -------------------------------------------------
          | TOTAL ENERGY              -43.164774090323 Eh   |
          | GRADIENT NORM               0.000298274781 Eh/α |
          | HOMO-LUMO GAP               1.956929828861 eV   |
           -------------------------------------------------

 * finished run on 2024/12/20 at 02:11:51.038
