   * xtb version 6.7.1 (edcfbbe) compiled by 'conda@3ef47c1a292c' on 2024-11-25

   ID    Z sym.   atoms
    1    6 C      1-10, 12-22, 25, 26
    2    7 N      11
    3    8 O      23, 24
    4    1 H      27-74

          program call               : xtb C0241.xyz --opt --namespace C0241 --charge +1
          :  Hamiltonian                  GFN2-xTB          :
 * total energy  :   -84.4204575 Eh     change       -0.4488214E-09 Eh
 * total energy  :   -84.4288518 Eh     change       -0.8394293E-02 Eh
 * total energy  :   -84.4309723 Eh     change       -0.2120431E-02 Eh
 * total energy  :   -84.4311942 Eh     change       -0.2219168E-03 Eh
 * total energy  :   -84.4313846 Eh     change       -0.1904316E-03 Eh
 * total energy  :   -84.4315079 Eh     change       -0.1232784E-03 Eh
 * total energy  :   -84.4316722 Eh     change       -0.1642704E-03 Eh
 * total energy  :   -84.4318635 Eh     change       -0.1913068E-03 Eh
 * total energy  :   -84.4320843 Eh     change       -0.2207880E-03 Eh
 * total energy  :   -84.4323116 Eh     change       -0.2273263E-03 Eh
 * total energy  :   -84.4346586 Eh     change       -0.3268519E-04 Eh
 * total energy  :   -84.4347054 Eh     change       -0.4677970E-04 Eh
 * total energy  :   -84.4347336 Eh     change       -0.2821721E-04 Eh
 * total energy  :   -84.4347768 Eh     change       -0.4326339E-04 Eh
 * total energy  :   -84.4348004 Eh     change       -0.2358011E-04 Eh
 * total energy  :   -84.4348309 Eh     change       -0.3043528E-04 Eh
 * total energy  :   -84.4348417 Eh     change       -0.1080571E-04 Eh
 * total energy  :   -84.4348522 Eh     change       -0.1049765E-04 Eh
 * total energy  :   -84.4348568 Eh     change       -0.4617282E-05 Eh
   *** GEOMETRY OPTIMIZATION CONVERGED AFTER 46 ITERATIONS ***

 final structure:
================
74
 xtb: 6.7.1 (edcfbbe)
C            0.64055800330885        0.60466179286334        0.79613453148435
C            0.78178274109294        1.01550070285374       -0.66437932828664
C            1.36238247573041       -0.08989373957887       -1.54778771429290
C            0.50106802689384       -1.35019379632695       -1.65679808734869
C           -0.90521707339051       -1.13022916325434       -2.21904218812685
C           -0.95397269474108       -0.46925201856414       -3.59817927123541
C           -0.20375806521977       -1.22505261471849       -4.69665671463151
C           -0.72093307684581       -2.63660131567069       -4.98451349461032
C           -2.20684037302927       -2.73254360069047       -5.36026104652832
C           -2.70325155556665       -1.79433459968243       -6.46499791636184
N           -2.60620783511889       -2.26823791587759       -7.88220194104465
C           -3.56682525920368       -3.38246846972668       -8.16225902451917
C           -5.06250576137860       -3.05129594906590       -8.18572044336138
C           -5.65064613868955       -2.57698087793827       -9.52252325742689
C           -5.34073497445967       -3.46371726648654      -10.73067183304601
C           -5.79741158735606       -4.91823020839017      -10.60264388365125
C           -7.30721574412188       -5.10214649869104      -10.43214364803967
C           -8.16203636346296       -4.49512238037621      -11.54809893192718
C           -7.82436600009036       -4.97779872406699      -12.96024856181555
C           -7.98531367679907       -6.48123056211262      -13.19044193727082
C           -9.43326228320294       -6.95683961575221      -13.10037548859190
C          -10.28544158592583       -6.41578022878049      -14.22204642679845
O           -9.88482678982675       -5.91837138725424      -15.23849159100632
O          -11.58917288809725       -6.57292058202722      -13.95976537470140
C           -2.86990943566609       -1.11392091191466       -8.76045766810017
C           -1.24834112625751       -2.75983880669781       -8.17900448115994
H           -0.09409386725120       -0.18770684580973        0.91455818913321
H            0.31996045892156        1.45335872359433        1.39534556423750
H            1.59321487338493        0.25283884262384        1.18542152262622
H           -0.18939574519736        1.33237485034846       -1.04945645855322
H            1.44966578772919        1.87802695905016       -0.72284774017202
H            1.54329301384944        0.31695626948931       -2.54545643694839
H            2.33286572728797       -0.38319784629212       -1.14064896638221
H            1.03297847968482       -2.07578510031137       -2.27685456537065
H            0.39970829498743       -1.79692324774185       -0.66683763537376
H           -1.41412758560790       -2.09666544614257       -2.25607847695515
H           -1.46991179421453       -0.50250105220245       -1.52833516807068
H           -2.00176722729825       -0.34085394135164       -3.88284750610345
H           -0.52142466052525        0.52933192803952       -3.52462112286202
H           -0.21894200490784       -0.62086091778717       -5.60928813834525
H            0.84356647441165       -1.31355343708688       -4.40820880476616
H           -0.08958725337051       -3.08163695900007       -5.75456520135998
H           -0.58590214033582       -3.24182176661375       -4.08779665619053
H           -2.44504743266358       -3.77201963253769       -5.59044365065705
H           -2.78334802968468       -2.47866504426745       -4.46954212898162
H           -3.75584240131852       -1.57077502271083       -6.28640845066280
H           -2.15020276933224       -0.85689065795652       -6.39797365258086
H           -3.29184172336668       -3.81401646623500       -9.12530751629315
H           -3.39040801493192       -4.14023239138714       -7.39761259575484
H           -5.57689250902837       -3.97452416704612       -7.91477175456054
H           -5.31573354303476       -2.32432779981455       -7.41267634663029
H           -6.73231581055096       -2.53973787768635       -9.39183410063166
H           -5.33375835928298       -1.55976429947222       -9.75471481466503
H           -5.82949536522765       -3.01819882920666      -11.59692616914553
H           -4.26777830659523       -3.45273799831261      -10.94603353596511
H           -5.47775509170763       -5.44879183898435      -11.50033645770381
H           -5.29380275236578       -5.39385421732508       -9.75680283130012
H           -7.50761428997873       -6.17277261890211      -10.36996871815209
H           -7.62548566917555       -4.66628614303677       -9.48200045646018
H           -9.20729055969146       -4.71883006384602      -11.32876488145050
H           -8.06563538532406       -3.40728642877676      -11.52872386291347
H           -8.46948283330263       -4.45325004392130      -13.66646459862102
H           -6.79651810696938       -4.70151559873179      -13.20286080138755
H           -7.61890273291024       -6.70813698909885      -14.19310103133209
H           -7.37997382095711       -7.04150325241476      -12.47657516382256
H           -9.47084678876122       -8.04653707713397      -13.18010076836704
H           -9.89938892734312       -6.68800129405412      -12.15256380536515
H          -12.12893170292178       -6.25943352092849      -14.70285875093109
H           -2.06151672063508       -0.38921417772927       -8.67436131779697
H           -2.93481311731896       -1.44143177943487       -9.79604712379636
H           -3.80058917595570       -0.62736678957484       -8.48032142998938
H           -0.51054835695582       -2.02133390248931       -7.87209520914985
H           -1.05806520723361       -3.69338176073209       -7.65571803844005
H           -1.14205628611874       -2.93486459147693       -9.24865671229498

          :  Hamiltonian                  GFN2-xTB          :
         :: total energy             -84.434856781166 Eh    ::
         :: gradient norm              0.000560133343 Eh/a0 ::
         :: HOMO-LUMO gap              5.101336314189 eV    ::
         :: SCC energy               -85.581336434860 Eh    ::
         :: -> dispersion             -0.063154775661 Eh    ::
         :: repulsion energy           1.146479653695 Eh    ::

    * Orbital Energies and Occupations

         #    Occupation            Energy/Eh            Energy/eV
      -------------------------------------------------------------
         1        2.0000           -0.8565119             -23.3069
       ...           ...                  ...                  ...
        66        2.0000           -0.5238641             -14.2551
        67        2.0000           -0.5220511             -14.2057
        68        2.0000           -0.5168777             -14.0650
        69        2.0000           -0.5147634             -14.0074
        70        2.0000           -0.5101915             -13.8830
        71        2.0000           -0.5070057             -13.7963
        72        2.0000           -0.4956988             -13.4887
        73        2.0000           -0.4941976             -13.4478
        74        2.0000           -0.4899360             -13.3318
        75        2.0000           -0.4889555             -13.3052
        76        2.0000           -0.4853187             -13.2062
        77        2.0000           -0.4819176             -13.1136
        78        2.0000           -0.4706878             -12.8081 (HOMO)
        79                         -0.2832172              -7.7067 (LUMO)
        80                         -0.2247670              -6.1162
        81                         -0.1642517              -4.4695
        82                         -0.1426679              -3.8822
        83                         -0.1377763              -3.7491
        84                         -0.0771974              -2.1006
        85                         -0.0753017              -2.0491
        86                         -0.0565390              -1.5385
        87                         -0.0322956              -0.8788
        88                         -0.0317701              -0.8645
        89                         -0.0298072              -0.8111
       ...                                ...                  ...
       152                          0.6017314              16.3739
      -------------------------------------------------------------
                  HL-Gap            0.1874707 Eh            5.1013 eV

     #   Z          covCN         q      C6AA      α(0)
     1   6 C        3.751    -0.104    22.546     6.771
     2   6 C        3.799    -0.053    21.529     6.606
     3   6 C        3.800    -0.059    21.634     6.622
     4   6 C        3.800    -0.059    21.646     6.624
     5   6 C        3.800    -0.059    21.645     6.624
     6   6 C        3.800    -0.061    21.681     6.630
     7   6 C        3.800    -0.062    21.690     6.631
     8   6 C        3.799    -0.071    21.859     6.657
     9   6 C        3.798    -0.071    21.861     6.657
    10   6 C        3.759    -0.041    21.351     6.588
    11   7 N        3.620     0.129    19.041     6.481
    12   6 C        3.758    -0.041    21.351     6.588
    13   6 C        3.798    -0.071    21.864     6.658
    14   6 C        3.799    -0.071    21.867     6.658
    15   6 C        3.800    -0.063    21.705     6.633
    16   6 C        3.800    -0.062    21.699     6.632
    17   6 C        3.800    -0.061    21.666     6.627
    18   6 C        3.800    -0.061    21.671     6.628
    19   6 C        3.801    -0.063    21.712     6.634
    20   6 C        3.802    -0.059    21.628     6.621
    21   6 C        3.803    -0.092    22.246     6.715
    22   6 C        2.689     0.362    20.856     7.474
    23   8 O        0.856    -0.407    21.813     6.262
    24   8 O        1.660    -0.381    20.487     6.110
    25   6 C        3.726    -0.091    22.353     6.750
    26   6 C        3.726    -0.091    22.351     6.750
    27   1 H        0.925     0.034     2.531     2.488
    28   1 H        0.925     0.036     2.499     2.472
    29   1 H        0.925     0.037     2.482     2.464
    30   1 H        0.924     0.028     2.612     2.527
    31   1 H        0.924     0.031     2.568     2.506
    32   1 H        0.924     0.025     2.659     2.550
    33   1 H        0.924     0.035     2.512     2.479
    34   1 H        0.924     0.026     2.649     2.545
    35   1 H        0.924     0.041     2.442     2.444
    36   1 H        0.924     0.024     2.670     2.555
    37   1 H        0.924     0.041     2.429     2.437
    38   1 H        0.924     0.020     2.735     2.586
    39   1 H        0.924     0.045     2.385     2.415
    40   1 H        0.924     0.014     2.827     2.629
    41   1 H        0.925     0.054     2.269     2.356
    42   1 H        0.924     0.033     2.544     2.494
    43   1 H        0.924     0.061     2.184     2.311
    44   1 H        0.924     0.047     2.363     2.404
    45   1 H        0.924     0.075     2.031     2.229
    46   1 H        0.924     0.078     1.999     2.211
    47   1 H        0.924     0.091     1.865     2.136
    48   1 H        0.924     0.091     1.871     2.139
    49   1 H        0.924     0.078     1.998     2.210
    50   1 H        0.924     0.075     2.033     2.230
    51   1 H        0.924     0.047     2.357     2.401
    52   1 H        0.925     0.061     2.182     2.310
    53   1 H        0.924     0.034     2.536     2.490
    54   1 H        0.925     0.055     2.257     2.350
    55   1 H        0.924     0.015     2.809     2.621
    56   1 H        0.924     0.045     2.379     2.412
    57   1 H        0.924     0.021     2.711     2.575
    58   1 H        0.924     0.040     2.451     2.448
    59   1 H        0.924     0.026     2.640     2.541
    60   1 H        0.924     0.037     2.495     2.470
    61   1 H        0.924     0.030     2.591     2.517
    62   1 H        0.924     0.049     2.338     2.391
    63   1 H        0.924     0.034     2.532     2.488
    64   1 H        0.924     0.055     2.257     2.350
    65   1 H        0.924     0.038     2.477     2.461
    66   1 H        0.924     0.073     2.055     2.242
    67   1 H        0.925     0.070     2.088     2.260
    68   1 H        0.804     0.332     0.633     1.249
    69   1 H        0.925     0.092     1.864     2.135
    70   1 H        0.925     0.099     1.790     2.092
    71   1 H        0.925     0.099     1.793     2.094
    72   1 H        0.925     0.099     1.791     2.093
    73   1 H        0.925     0.099     1.793     2.094
    74   1 H        0.925     0.092     1.864     2.135

Wiberg/Mayer (AO) data.
largest (>0.10) Wiberg bond orders for each atom

     #   Z sym  total        # sym  WBO       # sym  WBO       # sym  WBO
 ---------------------------------------------------------------------------
     1   6 C    3.996 --     2 C    1.020    29 H    0.987    28 H    0.987
                            27 H    0.986
     2   6 C    3.998 --     1 C    1.020     3 C    1.008    31 H    0.978
                            30 H    0.976
     3   6 C    3.997 --     2 C    1.008     4 C    1.008    33 H    0.976
                            32 H    0.976
     4   6 C    3.997 --     3 C    1.008     5 C    1.008    34 H    0.975
                            35 H    0.974
     5   6 C    3.997 --     4 C    1.008     6 C    1.007    36 H    0.975
                            37 H    0.974
     6   6 C    3.996 --     5 C    1.007     7 C    1.007    38 H    0.976
                            39 H    0.973
     7   6 C    3.995 --     8 C    1.008     6 C    1.007    40 H    0.971
                            41 H    0.971
     8   6 C    3.992 --     7 C    1.008     9 C    1.004    42 H    0.974
                            43 H    0.970
     9   6 C    3.984 --    10 C    1.005     8 C    1.004    44 H    0.966
                            45 H    0.965
    10   6 C    3.928 --     9 C    1.005    46 H    0.964    47 H    0.959
                            11 N    0.923
    11   7 N    3.808 --    25 C    0.961    26 C    0.961    12 C    0.923
                            10 C    0.923
    12   6 C    3.928 --    13 C    1.005    49 H    0.964    48 H    0.959
                            11 N    0.923
    13   6 C    3.984 --    12 C    1.005    14 C    1.004    51 H    0.966
                            50 H    0.965
    14   6 C    3.992 --    15 C    1.008    13 C    1.004    53 H    0.974
                            52 H    0.970
    15   6 C    3.995 --    14 C    1.008    16 C    1.007    55 H    0.971
                            54 H    0.970
    16   6 C    3.996 --    17 C    1.007    15 C    1.007    57 H    0.976
                            56 H    0.973
    17   6 C    3.997 --    16 C    1.007    18 C    1.007    59 H    0.975
                            58 H    0.974
    18   6 C    3.997 --    19 C    1.008    17 C    1.007    61 H    0.975
                            60 H    0.974
    19   6 C    3.996 --    20 C    1.008    18 C    1.008    62 H    0.974
                            63 H    0.974
    20   6 C    3.995 --    19 C    1.008    21 C    1.007    65 H    0.975
                            64 H    0.974
    21   6 C    3.994 --    20 C    1.007    22 C    0.977    67 H    0.958
                            66 H    0.946
    22   6 C    3.911 --    23 O    1.770    24 O    1.130    21 C    0.977
    23   8 O    2.044 --    22 C    1.770    24 O    0.172
    24   8 O    2.195 --    22 C    1.130    68 H    0.865    23 O    0.172
    25   6 C    3.931 --    69 H    0.975    70 H    0.973    71 H    0.972
                            11 N    0.961
    26   6 C    3.931 --    74 H    0.975    72 H    0.973    73 H    0.972
                            11 N    0.961
    27   1 H    0.999 --     1 C    0.986
    28   1 H    0.999 --     1 C    0.987
    29   1 H    0.999 --     1 C    0.987
    30   1 H    0.999 --     2 C    0.976
    31   1 H    0.999 --     2 C    0.978
    32   1 H    0.999 --     3 C    0.976
    33   1 H    0.999 --     3 C    0.976
    34   1 H    0.999 --     4 C    0.975
    35   1 H    0.998 --     4 C    0.974
    36   1 H    0.999 --     5 C    0.975
    37   1 H    0.998 --     5 C    0.974
    38   1 H    1.000 --     6 C    0.976
    39   1 H    0.998 --     6 C    0.973
    40   1 H    1.000 --     7 C    0.971
    41   1 H    0.997 --     7 C    0.971
    42   1 H    0.999 --     8 C    0.974
    43   1 H    0.996 --     8 C    0.970
    44   1 H    0.998 --     9 C    0.966
    45   1 H    0.994 --     9 C    0.965
    46   1 H    0.994 --    10 C    0.964
    47   1 H    0.992 --    10 C    0.959
    48   1 H    0.992 --    12 C    0.959
    49   1 H    0.994 --    12 C    0.964
    50   1 H    0.994 --    13 C    0.965
    51   1 H    0.998 --    13 C    0.966
    52   1 H    0.996 --    14 C    0.970
    53   1 H    0.999 --    14 C    0.974
    54   1 H    0.997 --    15 C    0.970
    55   1 H    1.000 --    15 C    0.971
    56   1 H    0.998 --    16 C    0.973
    57   1 H    1.000 --    16 C    0.976
    58   1 H    0.998 --    17 C    0.974
    59   1 H    0.999 --    17 C    0.975
    60   1 H    0.999 --    18 C    0.974
    61   1 H    0.999 --    18 C    0.975
    62   1 H    0.998 --    19 C    0.974
    63   1 H    0.999 --    19 C    0.974
    64   1 H    0.997 --    20 C    0.974
    65   1 H    0.998 --    20 C    0.975
    66   1 H    0.995 --    21 C    0.946
    67   1 H    0.995 --    21 C    0.958
    68   1 H    0.889 --    24 O    0.865
    69   1 H    0.992 --    25 C    0.975
    70   1 H    0.990 --    25 C    0.973
    71   1 H    0.990 --    25 C    0.972
    72   1 H    0.990 --    26 C    0.973
    73   1 H    0.990 --    26 C    0.972
    74   1 H    0.992 --    26 C    0.975
 ---------------------------------------------------------------------------

molecular dipole:
                 x           y           z       tot (Debye)
 q only:       -5.404      -4.693     -14.019
   full:       -5.543      -4.720     -14.083      40.294

           -------------------------------------------------
          | TOTAL ENERGY              -84.434856781166 Eh   |
          | GRADIENT NORM               0.000560133343 Eh/α |
          | HOMO-LUMO GAP               5.101336314189 eV   |
           -------------------------------------------------

 * finished run on 2024/12/20 at 02:11:46.555
