   * xtb version 6.7.1 (edcfbbe) compiled by 'conda@3ef47c1a292c' on 2024-11-25

   ID    Z sym.   atoms
    1    6 C      1-4, 6, 7, 10-19
    2    7 N      5
    3    8 O      8, 9
    4    1 H      20-53

          program call               : xtb C0247.xyz --opt --namespace C0247 --charge +1
          :  Hamiltonian                  GFN2-xTB          :
 * total energy  :   -62.2334395 Eh     change       -0.1308138E-08 Eh
 * total energy  :   -62.2479265 Eh     change       -0.1448709E-01 Eh
 * total energy  :   -62.2523931 Eh     change       -0.4466573E-02 Eh
 * total energy  :   -62.2534633 Eh     change       -0.1070167E-02 Eh
 * total energy  :   -62.2541669 Eh     change       -0.7035873E-03 Eh
 * total energy  :   -62.2550339 Eh     change       -0.8670106E-03 Eh
 * total energy  :   -62.2558535 Eh     change       -0.8196001E-03 Eh
 * total energy  :   -62.2568535 Eh     change       -0.1000041E-02 Eh
 * total energy  :   -62.2579491 Eh     change       -0.1095564E-02 Eh
 * total energy  :   -62.2589762 Eh     change       -0.1027116E-02 Eh
 * total energy  :   -62.2748384 Eh     change       -0.2600043E-04 Eh
 * total energy  :   -62.2748512 Eh     change       -0.1285215E-04 Eh
 * total energy  :   -62.2748668 Eh     change       -0.1563157E-04 Eh
 * total energy  :   -62.2748755 Eh     change       -0.8671556E-05 Eh
 * total energy  :   -62.2748829 Eh     change       -0.7365308E-05 Eh
 * total energy  :   -62.2748943 Eh     change       -0.1139340E-04 Eh
 * total energy  :   -62.2749028 Eh     change       -0.8506520E-05 Eh
 * total energy  :   -62.2749078 Eh     change       -0.5008774E-05 Eh
 * total energy  :   -62.2749104 Eh     change       -0.2630922E-05 Eh
   *** GEOMETRY OPTIMIZATION CONVERGED AFTER 61 ITERATIONS ***

 final structure:
================
53
 xtb: 6.7.1 (edcfbbe)
C            2.60276223118854        1.55756235589792        0.49648265088006
C            1.59399918564149        2.65181998660887        0.16778050653211
C            1.28327084891745        2.74731137143173       -1.32867872471845
C            0.56201297659934        1.58594580103735       -2.02516450556503
N           -0.89860419833935        1.35485677521582       -1.75671590750352
C           -1.63671581892630        2.64246373088034       -1.61866898452533
C           -1.75129399997951        3.51375568411523       -2.89022840155124
O           -2.82201258027597        3.85581745541443       -3.30217560422460
O           -0.57994020742410        3.83755443352249       -3.40781476222670
C           -0.58181754389002        4.66562979191433       -4.59052279861778
C           -0.78479569480781        3.83205562660065       -5.84442803083075
C           -1.52441368781449        0.64311580079781       -2.92485967710065
C           -0.70565627314039       -0.44455251313944       -3.62402442144547
C           -1.60855830477258       -1.28509319481740       -4.53597631693200
C           -2.22350674429919       -0.48602590070518       -5.67931148149750
C           -1.11400605379321        0.60561148685972       -0.45784947889435
C           -1.14312296709725       -0.92834143183096       -0.45445261900107
C            0.20737152726917       -1.63130174459947       -0.27072612986261
C            0.66176281061453       -1.62392627688555        1.18496057838937
H            2.24826169966052        0.57194151838068        0.20942656108478
H            2.80590965679811        1.54436008777198        1.56376389540787
H            3.54011213900477        1.74479455523598       -0.02111870851313
H            0.68823918077218        2.53103107154654        0.76618009259186
H            2.02677201238792        3.60988173863627        0.46178720474996
H            0.76958269902560        3.68457646299568       -1.53594019617896
H            2.24479677174545        2.81251532450835       -1.84482391502443
H            0.64900320073176        1.78580383841167       -3.09264471000503
H            1.07851616330191        0.65340897016490       -1.80609431750735
H           -2.67397849964976        2.42731840146106       -1.34883842610600
H           -1.18636486594259        3.23714717679198       -0.82196819712001
H           -1.37344126542560        5.41251090121508       -4.49291334825128
H            0.39571538566996        5.14894682668655       -4.58636833509208
H           -1.76906019873593        3.36928832645674       -5.84120608397086
H           -0.71457511096623        4.47831237313075       -6.71349988568669
H           -0.02114883613069        3.06135841725617       -5.92354188927282
H           -2.47221189973401        0.22794194341452       -2.57567888886706
H           -1.76076469441592        1.39798360855209       -3.67521476939180
H            0.07337000026082        0.00373054034085       -4.24193644875482
H           -0.22259660679187       -1.10887290907393       -2.91142388639009
H           -1.00146120882879       -2.08830328311639       -4.95508601382951
H           -2.40183348003792       -1.74882562263949       -3.94617389958147
H           -1.45217722838173        0.03216185483584       -6.24458241510168
H           -2.74172320716032       -1.15709424064546       -6.35781460251295
H           -2.94621330936561        0.24274512753071       -5.32061207985664
H           -0.34403204652158        0.93745558526681        0.23473204344432
H           -2.07831127963700        0.93499473818856       -0.06958557866868
H           -1.75922802184409       -1.20741622665552        0.40376008169813
H           -1.65751132720671       -1.31758169267446       -1.32895570015829
H            0.09845028459350       -2.66877096512697       -0.59020082063541
H            0.97994005547742       -1.18486575633727       -0.89974616991927
H           -0.03450153106847       -2.19009330427179        1.79799908188955
H            1.64161971596047       -2.08420193977790        1.27637330028927
H            0.72172014676014       -0.61520268677876        1.58637113389637

          :  Hamiltonian                  GFN2-xTB          :
         :: total energy             -62.274910420832 Eh    ::
         :: gradient norm              0.000305048687 Eh/a0 ::
         :: HOMO-LUMO gap              4.575367000830 eV    ::
         :: SCC energy               -63.090361857230 Eh    ::
         :: -> dispersion             -0.046974622789 Eh    ::
         :: repulsion energy           0.815451436398 Eh    ::

    * Orbital Energies and Occupations

         #    Occupation            Energy/Eh            Energy/eV
      -------------------------------------------------------------
         1        2.0000           -0.8888864             -24.1878
       ...           ...                  ...                  ...
        45        2.0000           -0.5823353             -15.8462
        46        2.0000           -0.5745654             -15.6347
        47        2.0000           -0.5661799             -15.4065
        48        2.0000           -0.5642279             -15.3534
        49        2.0000           -0.5636990             -15.3390
        50        2.0000           -0.5610297             -15.2664
        51        2.0000           -0.5590426             -15.2123
        52        2.0000           -0.5563864             -15.1400
        53        2.0000           -0.5547848             -15.0965
        54        2.0000           -0.5521252             -15.0241
        55        2.0000           -0.5511762             -14.9983
        56        2.0000           -0.5455634             -14.8455
        57        2.0000           -0.5452970             -14.8383 (HOMO)
        58                         -0.3771553             -10.2629 (LUMO)
        59                         -0.2411215              -6.5612
        60                         -0.1874223              -5.1000
        61                         -0.1648713              -4.4864
        62                         -0.1524316              -4.1479
        63                         -0.1429743              -3.8905
        64                         -0.0705067              -1.9186
        65                         -0.0661227              -1.7993
        66                         -0.0558143              -1.5188
        67                         -0.0491919              -1.3386
        68                         -0.0410061              -1.1158
       ...                                ...                  ...
       110                          0.5231093              14.2345
      -------------------------------------------------------------
                  HL-Gap            0.1681416 Eh            4.5754 eV

     #   Z          covCN         q      C6AA      α(0)
     1   6 C        3.752    -0.116    22.779     6.806
     2   6 C        3.799    -0.060    21.661     6.627
     3   6 C        3.799    -0.079    22.003     6.679
     4   6 C        3.745    -0.037    21.308     6.585
     5   7 N        3.614     0.105    19.425     6.546
     6   6 C        3.768    -0.065    21.784     6.652
     7   6 C        2.710     0.356    20.957     7.493
     8   8 O        0.856    -0.369    21.063     6.153
     9   8 O        1.701    -0.255    18.219     5.763
    10   6 C        3.697     0.068    19.594     6.332
    11   6 C        3.750    -0.120    22.860     6.819
    12   6 C        3.760    -0.033    21.218     6.567
    13   6 C        3.800    -0.073    21.899     6.663
    14   6 C        3.801    -0.061    21.667     6.627
    15   6 C        3.751    -0.115    22.757     6.803
    16   6 C        3.750    -0.042    21.382     6.595
    17   6 C        3.800    -0.077    21.970     6.674
    18   6 C        3.799    -0.058    21.621     6.621
    19   6 C        3.752    -0.115    22.766     6.804
    20   1 H        0.925     0.040     2.455     2.450
    21   1 H        0.925     0.053     2.287     2.365
    22   1 H        0.925     0.049     2.337     2.391
    23   1 H        0.924     0.027     2.624     2.533
    24   1 H        0.924     0.056     2.248     2.345
    25   1 H        0.925     0.061     2.189     2.314
    26   1 H        0.924     0.075     2.031     2.229
    27   1 H        0.925     0.087     1.906     2.159
    28   1 H        0.925     0.090     1.875     2.141
    29   1 H        0.924     0.104     1.750     2.069
    30   1 H        0.924     0.108     1.712     2.046
    31   1 H        0.924     0.076     2.017     2.221
    32   1 H        0.924     0.077     2.005     2.215
    33   1 H        0.925     0.063     2.164     2.300
    34   1 H        0.925     0.074     2.040     2.234
    35   1 H        0.925     0.054     2.269     2.356
    36   1 H        0.924     0.085     1.930     2.173
    37   1 H        0.924     0.081     1.969     2.194
    38   1 H        0.924     0.053     2.281     2.362
    39   1 H        0.925     0.060     2.203     2.321
    40   1 H        0.924     0.058     2.219     2.329
    41   1 H        0.924     0.042     2.428     2.437
    42   1 H        0.925     0.043     2.407     2.426
    43   1 H        0.925     0.059     2.214     2.327
    44   1 H        0.925     0.037     2.491     2.468
    45   1 H        0.925     0.100     1.789     2.092
    46   1 H        0.924     0.074     2.047     2.238
    47   1 H        0.924     0.074     2.040     2.234
    48   1 H        0.925     0.062     2.178     2.308
    49   1 H        0.924     0.052     2.291     2.367
    50   1 H        0.924     0.028     2.613     2.528
    51   1 H        0.925     0.050     2.325     2.385
    52   1 H        0.925     0.053     2.278     2.361
    53   1 H        0.925     0.039     2.456     2.451

Wiberg/Mayer (AO) data.
largest (>0.10) Wiberg bond orders for each atom

     #   Z sym  total        # sym  WBO       # sym  WBO       # sym  WBO
 ---------------------------------------------------------------------------
     1   6 C    3.993 --     2 C    1.020    22 H    0.986    21 H    0.985
                            20 H    0.980
     2   6 C    3.994 --     1 C    1.020     3 C    1.006    24 H    0.973
                            23 H    0.968
     3   6 C    3.984 --     2 C    1.006     4 C    1.005    25 H    0.965
                            26 H    0.962
     4   6 C    3.926 --     3 C    1.005    27 H    0.964    28 H    0.956
                             5 N    0.923
     5   7 N    3.796 --     6 C    0.953    12 C    0.924     4 C    0.923
                            16 C    0.917
     6   6 C    3.943 --    29 H    0.962     5 N    0.953    30 H    0.949
                             7 C    0.931
     7   6 C    3.938 --     8 O    1.771     9 O    1.175     6 C    0.931
     8   8 O    2.080 --     7 C    1.771     9 O    0.193
     9   8 O    2.337 --     7 C    1.175    10 C    0.906     8 O    0.193
    10   6 C    3.900 --    11 C    1.015    32 H    0.969    31 H    0.968
                             9 O    0.906
    11   6 C    3.988 --    10 C    1.015    35 H    0.985    33 H    0.984
                            34 H    0.978
    12   6 C    3.929 --    13 C    1.005    36 H    0.963    37 H    0.959
                             5 N    0.924
    13   6 C    3.986 --    12 C    1.005    14 C    0.998    38 H    0.973
                            39 H    0.968
    14   6 C    3.991 --    15 C    1.021    13 C    0.998    41 H    0.976
                            40 H    0.974
    15   6 C    3.993 --    14 C    1.021    42 H    0.986    44 H    0.986
                            43 H    0.984
    16   6 C    3.924 --    17 C    1.006    46 H    0.969    45 H    0.954
                             5 N    0.917
    17   6 C    3.983 --    16 C    1.006    18 C    1.005    48 H    0.965
                            47 H    0.964
    18   6 C    3.994 --    19 C    1.020    17 C    1.005    49 H    0.976
                            50 H    0.966
    19   6 C    3.993 --    18 C    1.020    51 H    0.986    52 H    0.985
                            53 H    0.983
    20   1 H    0.998 --     1 C    0.980
    21   1 H    0.997 --     1 C    0.985
    22   1 H    0.998 --     1 C    0.986
    23   1 H    0.999 --     2 C    0.968
    24   1 H    0.996 --     2 C    0.973
    25   1 H    0.996 --     3 C    0.965
    26   1 H    0.994 --     3 C    0.962
    27   1 H    0.992 --     4 C    0.964
    28   1 H    0.992 --     4 C    0.956
    29   1 H    0.989 --     6 C    0.962
    30   1 H    0.988 --     6 C    0.949
    31   1 H    0.994 --    10 C    0.968
    32   1 H    0.994 --    10 C    0.969
    33   1 H    0.996 --    11 C    0.984
    34   1 H    0.994 --    11 C    0.978
    35   1 H    0.997 --    11 C    0.985
    36   1 H    0.993 --    12 C    0.963
    37   1 H    0.993 --    12 C    0.959
    38   1 H    0.997 --    13 C    0.973
    39   1 H    0.996 --    13 C    0.968
    40   1 H    0.996 --    14 C    0.974
    41   1 H    0.998 --    14 C    0.976
    42   1 H    0.998 --    15 C    0.986
    43   1 H    0.996 --    15 C    0.984
    44   1 H    0.999 --    15 C    0.986
    45   1 H    0.990 --    16 C    0.954
    46   1 H    0.995 --    16 C    0.969
    47   1 H    0.994 --    17 C    0.964
    48   1 H    0.996 --    17 C    0.965
    49   1 H    0.997 --    18 C    0.976
    50   1 H    0.999 --    18 C    0.966
    51   1 H    0.997 --    19 C    0.986
    52   1 H    0.997 --    19 C    0.985
    53   1 H    0.998 --    19 C    0.983
 ---------------------------------------------------------------------------

molecular dipole:
                 x           y           z       tot (Debye)
 q only:       -0.470       2.200      -3.823
   full:       -0.497       2.334      -3.709      11.210

           -------------------------------------------------
          | TOTAL ENERGY              -62.274910420832 Eh   |
          | GRADIENT NORM               0.000305048687 Eh/α |
          | HOMO-LUMO GAP               4.575367000830 eV   |
           -------------------------------------------------

 * finished run on 2024/12/20 at 02:11:58.284
