   * xtb version 6.7.1 (edcfbbe) compiled by 'conda@3ef47c1a292c' on 2024-11-25

   ID    Z sym.   atoms
    1    6 C      1-6, 8-25
    2   15 P      7
    3    1 H      26-77

          program call               : xtb C0252.xyz --opt --namespace C0252 --charge +1
          :  Hamiltonian                  GFN2-xTB          :
 * total energy  :   -80.0698149 Eh     change       -0.1548273E-09 Eh
 * total energy  :   -80.0760069 Eh     change       -0.6192047E-02 Eh
 * total energy  :   -80.0776777 Eh     change       -0.1670785E-02 Eh
 * total energy  :   -80.0779933 Eh     change       -0.3155588E-03 Eh
 * total energy  :   -80.0782126 Eh     change       -0.2193372E-03 Eh
 * total energy  :   -80.0783901 Eh     change       -0.1775206E-03 Eh
 * total energy  :   -80.0786176 Eh     change       -0.2274327E-03 Eh
 * total energy  :   -80.0788943 Eh     change       -0.2767232E-03 Eh
 * total energy  :   -80.0791776 Eh     change       -0.2833139E-03 Eh
 * total energy  :   -80.0794647 Eh     change       -0.2870896E-03 Eh
 * total energy  :   -80.0838361 Eh     change       -0.1042079E-04 Eh
 * total energy  :   -80.0838486 Eh     change       -0.1244698E-04 Eh
 * total energy  :   -80.0838591 Eh     change       -0.1051786E-04 Eh
 * total energy  :   -80.0838676 Eh     change       -0.8551928E-05 Eh
 * total energy  :   -80.0838759 Eh     change       -0.8224972E-05 Eh
 * total energy  :   -80.0838847 Eh     change       -0.8874993E-05 Eh
 * total energy  :   -80.0838939 Eh     change       -0.9163089E-05 Eh
 * total energy  :   -80.0839024 Eh     change       -0.8445628E-05 Eh
 * total energy  :   -80.0839049 Eh     change       -0.2558320E-05 Eh
   *** GEOMETRY OPTIMIZATION CONVERGED AFTER 68 ITERATIONS ***

 final structure:
================
77
 xtb: 6.7.1 (edcfbbe)
C           -2.01855273776984        0.55075791657943       -0.40188740411369
C           -1.85227037061488       -0.93332495013166       -0.70531781374033
C           -0.50426713199600       -1.49751150406137       -0.25258468902195
C           -0.22710389521359       -1.38865983788356        1.24894568484015
C           -1.24437416695920       -2.09602280606737        2.14665563766526
C           -1.29071831702242       -3.62297462670823        1.96435987162455
P           -0.47012426205280       -4.54499233976230        3.31450351353293
C           -1.20520723973719       -4.02020904183690        4.91107706590466
C           -2.71242104908767       -3.75781459706948        4.91288750780347
C           -3.57466019243579       -4.98640040606270        4.62585362189300
C           -3.53190379400003       -6.07200645496690        5.70447849714283
C           -4.05062907174815       -5.63502495463625        7.07653094404404
C           -5.50735980633916       -5.18862971129281        7.05910207182919
C           -0.66791592971734       -6.36819228226004        3.15794415247574
C           -1.21676778673222       -6.87837534888772        1.82377433940985
C           -0.18749696095141       -6.85817843661919        0.69353744991421
C            0.84428234133435       -7.98718129253416        0.76841886434205
C            0.28524645459375       -9.38437303738050        0.49026846431058
C           -0.21868118654562       -9.56221752215440       -0.93665723945801
C            1.30364782338637       -4.13115529124135        3.54657747765266
C            2.32441978087831       -4.80908707694492        2.62924657279090
C            2.51021182766253       -4.11639944697763        1.27814103765558
C            3.37732557106256       -2.85635385713011        1.35271399489155
C            4.87261171095253       -3.13678212959360        1.52039252785867
C            5.51333282480369       -3.74139258531924        0.27697916255104
H           -2.06890750436654        0.73755490975808        0.66805892558151
H           -2.93642581677832        0.92201771065374       -0.84977424231976
H           -1.18687950275009        1.11768854056667       -0.81280106916823
H           -2.67006075334737       -1.49563287141704       -0.24935366522544
H           -1.92714916193925       -1.08019566093496       -1.78437897676393
H           -0.43854115903115       -2.54043461379979       -0.57452247849190
H            0.28832786684192       -0.95553331409978       -0.77195838728821
H            0.77100366678098       -1.78190528344204        1.44534062059910
H           -0.21679484011256       -0.33392057852702        1.52509449755726
H           -1.01397622804655       -1.84539836201421        3.18554715221907
H           -2.23261617513851       -1.68859210470849        1.93339013018540
H           -2.32541600645328       -3.97614019231043        1.95425133843426
H           -0.84337041030004       -3.91416817972308        1.01359913342487
H           -0.95010375799479       -4.79366453119063        5.64123658674602
H           -0.67962270926768       -3.10802668688692        5.21190551498960
H           -2.97862602363213       -3.35765659926703        5.89202974011622
H           -2.94692249286212       -2.98413227572778        4.17988805769531
H           -4.60725605836672       -4.65526046043742        4.51369879246973
H           -3.27381785741172       -5.42356502734382        3.66840508896985
H           -4.14090441795780       -6.90965063455164        5.35784972024520
H           -2.51117853291667       -6.44522082236742        5.82801029638814
H           -3.95291786750017       -6.48631683073236        7.75301098359248
H           -3.42708960630635       -4.83390570413286        7.47860496515098
H           -6.13489705838679       -5.95398244433218        6.60876323030480
H           -5.85519806524756       -5.01847682913934        8.07430476565304
H           -5.63512873158730       -4.26312191477487        6.50321070687293
H            0.30814673592968       -6.81674673948917        3.35895167226194
H           -1.33477686334020       -6.67101871594265        3.96812965441808
H           -1.56011587513356       -7.90272514418999        1.97287985800203
H           -2.09068718242369       -6.29146667079025        1.53409769412899
H           -0.71010224103048       -6.92885572695232       -0.26004836864791
H            0.33938262796714       -5.90023135973088        0.70858035828367
H            1.62707460442636       -7.77990911128875        0.03603161837541
H            1.31715280931195       -7.99579624289824        1.75408093377517
H            1.08582889221711      -10.10429785706807        0.67018198082253
H           -0.51879165931156       -9.61736513734531        1.19117027507869
H            0.55819475500668       -9.30052399976019       -1.65106789875139
H           -0.49919221782130      -10.59850858986771       -1.10404472569536
H           -1.09208021122688       -8.94512377894381       -1.13230106245910
H            1.39347444162165       -3.04351541360160        3.48270851791243
H            1.50504119341149       -4.41656739742998        4.58593691219459
H            3.28386200417082       -4.81777127829524        3.14840226874584
H            2.04487258977055       -5.85060695200695        2.46618036926180
H            2.97532623263283       -4.81879384585009        0.58681625471484
H            1.53272198827268       -3.85675776024836        0.86583249455589
H            3.23795761011000       -2.28294578556177        0.43409859089440
H            3.04538337998180       -2.22831060944459        2.18378209193720
H            5.37039516589224       -2.19149084623739        1.74383002436615
H            5.03928191477359       -3.79904390377058        2.37237435491209
H            5.34733274785161       -3.10179335601783       -0.58660520642527
H            6.58509491556800       -3.84394344881602        0.42345933114229
H            5.11101640964958       -4.72748794659272        0.05818926428905

          :  Hamiltonian                  GFN2-xTB          :
         :: total energy             -80.083904911743 Eh    ::
         :: gradient norm              0.000193005173 Eh/a0 ::
         :: HOMO-LUMO gap              5.867558335238 eV    ::
         :: SCC energy               -81.267604601078 Eh    ::
         :: -> dispersion             -0.070762228721 Eh    ::
         :: repulsion energy           1.183699689335 Eh    ::

    * Orbital Energies and Occupations

         #    Occupation            Energy/Eh            Energy/eV
      -------------------------------------------------------------
         1        2.0000           -0.8374054             -22.7870
       ...           ...                  ...                  ...
        64        2.0000           -0.5420269             -14.7493
        65        2.0000           -0.5264312             -14.3249
        66        2.0000           -0.5233039             -14.2398
        67        2.0000           -0.5225081             -14.2182
        68        2.0000           -0.5216351             -14.1944
        69        2.0000           -0.5193874             -14.1333
        70        2.0000           -0.5170290             -14.0691
        71        2.0000           -0.5157658             -14.0347
        72        2.0000           -0.5146241             -14.0036
        73        2.0000           -0.5140875             -13.9890
        74        2.0000           -0.5115457             -13.9199
        75        2.0000           -0.5112917             -13.9130
        76        2.0000           -0.5094117             -13.8618 (HOMO)
        77                         -0.2937829              -7.9942 (LUMO)
        78                         -0.2781980              -7.5702
        79                         -0.2648182              -7.2061
        80                         -0.1903698              -5.1802
        81                         -0.1100165              -2.9937
        82                         -0.0722094              -1.9649
        83                         -0.0554150              -1.5079
        84                         -0.0518309              -1.4104
        85                         -0.0445089              -1.2111
        86                         -0.0393718              -1.0714
        87                         -0.0346220              -0.9421
       ...                                ...                  ...
       157                          0.8008371              21.7919
      -------------------------------------------------------------
                  HL-Gap            0.2156288 Eh            5.8676 eV

     #   Z          covCN         q      C6AA      α(0)
     1   6 C        3.751    -0.107    22.616     6.782
     2   6 C        3.799    -0.056    21.583     6.615
     3   6 C        3.800    -0.061    21.671     6.628
     4   6 C        3.800    -0.067    21.790     6.646
     5   6 C        3.857    -0.061    21.632     6.615
     6   6 C        3.749    -0.067    21.853     6.667
     7  15 P        3.897     0.173   152.753    22.202
     8   6 C        3.750    -0.077    22.034     6.695
     9   6 C        3.840    -0.065    21.716     6.629
    10   6 C        3.800    -0.065    21.743     6.639
    11   6 C        3.800    -0.060    21.654     6.625
    12   6 C        3.799    -0.056    21.580     6.614
    13   6 C        3.751    -0.108    22.629     6.784
    14   6 C        3.750    -0.075    21.992     6.688
    15   6 C        3.839    -0.063    21.675     6.623
    16   6 C        3.801    -0.066    21.761     6.642
    17   6 C        3.800    -0.060    21.656     6.626
    18   6 C        3.800    -0.056    21.588     6.615
    19   6 C        3.751    -0.108    22.620     6.783
    20   6 C        3.749    -0.074    21.976     6.686
    21   6 C        3.832    -0.064    21.703     6.628
    22   6 C        3.800    -0.063    21.702     6.633
    23   6 C        3.801    -0.061    21.678     6.629
    24   6 C        3.800    -0.056    21.591     6.616
    25   6 C        3.752    -0.107    22.609     6.781
    26   1 H        0.925     0.033     2.543     2.494
    27   1 H        0.925     0.043     2.406     2.426
    28   1 H        0.925     0.042     2.419     2.432
    29   1 H        0.924     0.027     2.632     2.537
    30   1 H        0.924     0.040     2.444     2.445
    31   1 H        0.924     0.022     2.703     2.571
    32   1 H        0.924     0.046     2.372     2.408
    33   1 H        0.924     0.039     2.468     2.457
    34   1 H        0.924     0.055     2.258     2.350
    35   1 H        0.924     0.045     2.382     2.414
    36   1 H        0.925     0.065     2.146     2.291
    37   1 H        0.928     0.087     1.903     2.157
    38   1 H        0.926     0.097     1.811     2.104
    39   1 H        0.927     0.085     1.925     2.170
    40   1 H        0.927     0.078     2.003     2.213
    41   1 H        0.924     0.068     2.105     2.269
    42   1 H        0.924     0.050     2.322     2.383
    43   1 H        0.925     0.058     2.218     2.329
    44   1 H        0.924     0.029     2.600     2.522
    45   1 H        0.924     0.043     2.403     2.424
    46   1 H        0.924     0.018     2.758     2.597
    47   1 H        0.924     0.041     2.441     2.443
    48   1 H        0.924     0.030     2.589     2.516
    49   1 H        0.925     0.042     2.424     2.435
    50   1 H        0.925     0.045     2.381     2.413
    51   1 H        0.925     0.035     2.515     2.480
    52   1 H        0.926     0.089     1.891     2.151
    53   1 H        0.927     0.091     1.870     2.138
    54   1 H        0.924     0.069     2.101     2.267
    55   1 H        0.924     0.044     2.400     2.422
    56   1 H        0.925     0.055     2.253     2.347
    57   1 H        0.924     0.033     2.542     2.493
    58   1 H        0.924     0.043     2.410     2.428
    59   1 H        0.924     0.022     2.700     2.570
    60   1 H        0.924     0.041     2.440     2.443
    61   1 H        0.924     0.030     2.582     2.513
    62   1 H        0.925     0.041     2.436     2.441
    63   1 H        0.925     0.045     2.387     2.416
    64   1 H        0.925     0.034     2.524     2.484
    65   1 H        0.926     0.092     1.862     2.134
    66   1 H        0.929     0.081     1.970     2.195
    67   1 H        0.924     0.065     2.141     2.288
    68   1 H        0.924     0.050     2.318     2.381
    69   1 H        0.925     0.054     2.271     2.357
    70   1 H        0.924     0.030     2.585     2.514
    71   1 H        0.924     0.043     2.408     2.427
    72   1 H        0.924     0.024     2.669     2.555
    73   1 H        0.924     0.040     2.448     2.447
    74   1 H        0.924     0.030     2.579     2.512
    75   1 H        0.925     0.041     2.440     2.443
    76   1 H        0.925     0.044     2.393     2.419
    77   1 H        0.925     0.034     2.533     2.489

Wiberg/Mayer (AO) data.
largest (>0.10) Wiberg bond orders for each atom

     #   Z sym  total        # sym  WBO       # sym  WBO       # sym  WBO
 ---------------------------------------------------------------------------
     1   6 C    3.996 --     2 C    1.020    28 H    0.987    27 H    0.986
                            26 H    0.986
     2   6 C    3.997 --     1 C    1.020     3 C    1.007    30 H    0.977
                            29 H    0.976
     3   6 C    3.996 --     2 C    1.007     4 C    1.007    32 H    0.975
                            31 H    0.973
     4   6 C    3.992 --     3 C    1.007     5 C    1.006    34 H    0.971
                            33 H    0.968
     5   6 C    3.988 --     4 C    1.006     6 C    0.979    36 H    0.969
                            35 H    0.962
     6   6 C    3.985 --     7 P    1.004     5 C    0.979    37 H    0.929
                            38 H    0.927
     7  15 P    4.559 --     8 C    1.008    20 C    1.006     6 C    1.004
                            14 C    0.992
     8   6 C    3.989 --     7 P    1.008     9 C    0.991    40 H    0.936
                            39 H    0.933
     9   6 C    3.986 --    10 C    1.008     8 C    0.991    42 H    0.969
                            41 H    0.965
    10   6 C    3.994 --     9 C    1.008    11 C    1.007    43 H    0.971
                            44 H    0.961
    11   6 C    3.996 --    10 C    1.007    12 C    1.007    45 H    0.976
                            46 H    0.970
    12   6 C    3.996 --    13 C    1.021    11 C    1.007    47 H    0.977
                            48 H    0.975
    13   6 C    3.995 --    12 C    1.021    49 H    0.987    50 H    0.986
                            51 H    0.986
    14   6 C    3.984 --     7 P    0.992    15 C    0.990    53 H    0.930
                            52 H    0.929
    15   6 C    3.988 --    16 C    1.007    14 C    0.990    55 H    0.968
                            54 H    0.963
    16   6 C    3.994 --    15 C    1.007    17 C    1.007    56 H    0.971
                            57 H    0.961
    17   6 C    3.996 --    18 C    1.007    16 C    1.007    58 H    0.976
                            59 H    0.972
    18   6 C    3.996 --    19 C    1.021    17 C    1.007    60 H    0.977
                            61 H    0.974
    19   6 C    3.995 --    18 C    1.021    62 H    0.987    63 H    0.986
                            64 H    0.985
    20   6 C    3.987 --     7 P    1.006    21 C    0.991    66 H    0.931
                            65 H    0.930
    21   6 C    3.985 --    22 C    1.007    20 C    0.991    67 H    0.965
                            68 H    0.962
    22   6 C    3.994 --    21 C    1.007    23 C    1.007    69 H    0.971
                            70 H    0.965
    23   6 C    3.996 --    24 C    1.007    22 C    1.007    71 H    0.976
                            72 H    0.973
    24   6 C    3.996 --    25 C    1.021    23 C    1.007    73 H    0.977
                            74 H    0.974
    25   6 C    3.995 --    24 C    1.021    75 H    0.987    76 H    0.986
                            77 H    0.984
    26   1 H    0.999 --     1 C    0.986
    27   1 H    0.998 --     1 C    0.986
    28   1 H    0.998 --     1 C    0.987
    29   1 H    0.999 --     2 C    0.976
    30   1 H    0.998 --     2 C    0.977
    31   1 H    0.999 --     3 C    0.973
    32   1 H    0.998 --     3 C    0.975
    33   1 H    0.998 --     4 C    0.968
    34   1 H    0.997 --     4 C    0.971
    35   1 H    0.998 --     5 C    0.962
    36   1 H    0.995 --     5 C    0.969
    37   1 H    0.992 --     6 C    0.929
    38   1 H    0.990 --     6 C    0.927
    39   1 H    0.993 --     8 C    0.933
    40   1 H    0.994 --     8 C    0.936
    41   1 H    0.995 --     9 C    0.965
    42   1 H    0.997 --     9 C    0.969
    43   1 H    0.996 --    10 C    0.971
    44   1 H    0.999 --    10 C    0.961
    45   1 H    0.998 --    11 C    0.976
    46   1 H    1.000 --    11 C    0.970
    47   1 H    0.998 --    12 C    0.977
    48   1 H    0.999 --    12 C    0.975
    49   1 H    0.998 --    13 C    0.987
    50   1 H    0.998 --    13 C    0.986
    51   1 H    0.999 --    13 C    0.986
    52   1 H    0.992 --    14 C    0.929
    53   1 H    0.992 --    14 C    0.930
    54   1 H    0.995 --    15 C    0.963
    55   1 H    0.998 --    15 C    0.968
    56   1 H    0.997 --    16 C    0.971
    57   1 H    0.999 --    16 C    0.961
    58   1 H    0.998 --    17 C    0.976
    59   1 H    0.999 --    17 C    0.972
    60   1 H    0.998 --    18 C    0.977
    61   1 H    0.999 --    18 C    0.974
    62   1 H    0.998 --    19 C    0.987
    63   1 H    0.998 --    19 C    0.986
    64   1 H    0.999 --    19 C    0.985
    65   1 H    0.991 --    20 C    0.930
    66   1 H    0.993 --    20 C    0.931
    67   1 H    0.995 --    21 C    0.965
    68   1 H    0.997 --    21 C    0.962
    69   1 H    0.997 --    22 C    0.971
    70   1 H    0.999 --    22 C    0.965
    71   1 H    0.998 --    23 C    0.976
    72   1 H    0.999 --    23 C    0.973
    73   1 H    0.998 --    24 C    0.977
    74   1 H    0.999 --    24 C    0.974
    75   1 H    0.998 --    25 C    0.987
    76   1 H    0.998 --    25 C    0.986
    77   1 H    0.999 --    25 C    0.984
 ---------------------------------------------------------------------------

molecular dipole:
                 x           y           z       tot (Debye)
 q only:       -0.938      -8.520       5.615
   full:       -0.920      -8.541       5.818      26.371

           -------------------------------------------------
          | TOTAL ENERGY              -80.083904911743 Eh   |
          | GRADIENT NORM               0.000193005173 Eh/α |
          | HOMO-LUMO GAP               5.867558335238 eV   |
           -------------------------------------------------

 * finished run on 2024/12/20 at 02:12:15.469
