   * xtb version 6.7.1 (edcfbbe) compiled by 'conda@3ef47c1a292c' on 2024-11-25

   ID    Z sym.   atoms
    1    7 N      1, 12, 15
    2    6 C      2-9, 11, 13, 14, 16, 17
    3    8 O      10
    4    1 H      18-29

          program call               : xtb C0250.xyz --opt --namespace C0250 --charge +1
          :  Hamiltonian                  GFN2-xTB          :
 * total energy  :   -46.3325808 Eh     change       -0.9325376E-09 Eh
 * total energy  :   -46.3398897 Eh     change       -0.7308898E-02 Eh
 * total energy  :   -46.3415652 Eh     change       -0.1675453E-02 Eh
 * total energy  :   -46.3419031 Eh     change       -0.3379755E-03 Eh
 * total energy  :   -46.3420701 Eh     change       -0.1669221E-03 Eh
 * total energy  :   -46.3421943 Eh     change       -0.1242564E-03 Eh
 * total energy  :   -46.3422838 Eh     change       -0.8945422E-04 Eh
 * total energy  :   -46.3423905 Eh     change       -0.1067297E-03 Eh
 * total energy  :   -46.3424485 Eh     change       -0.5802041E-04 Eh
 * total energy  :   -46.3425054 Eh     change       -0.5692995E-04 Eh
 * total energy  :   -46.3543134 Eh     change       -0.5484422E-04 Eh
 * total energy  :   -46.3543548 Eh     change       -0.4143374E-04 Eh
 * total energy  :   -46.3543957 Eh     change       -0.4089464E-04 Eh
 * total energy  :   -46.3544227 Eh     change       -0.2699701E-04 Eh
 * total energy  :   -46.3544426 Eh     change       -0.1989572E-04 Eh
 * total energy  :   -46.3544572 Eh     change       -0.1465753E-04 Eh
 * total energy  :   -46.3544639 Eh     change       -0.6618232E-05 Eh
 * total energy  :   -46.3544689 Eh     change       -0.5057620E-05 Eh
 * total energy  :   -46.3544707 Eh     change       -0.1830973E-05 Eh
   *** GEOMETRY OPTIMIZATION CONVERGED AFTER 88 ITERATIONS ***

 final structure:
================
29
 xtb: 6.7.1 (edcfbbe)
N           -2.06539157185141        1.99489744249866       -3.08459318410332
C           -1.33784749356374        1.49926333619505       -2.35333606715503
C           -0.43462795468412        0.88350554353532       -1.45056184282806
C           -0.43585836768717        1.24910848437765       -0.10285212019864
C            0.45042702151504        0.64698437457707        0.76252248994834
C            1.34603049860474       -0.33052035505041        0.30609811030346
C            1.33813878072104       -0.68987156286617       -1.04715361762182
C            0.45659003861214       -0.08617418542949       -1.91791862308128
C            2.25923279613172       -0.90776329923675        1.29100175126198
O            2.36454017930777       -0.52605354169762        2.43257054430452
C            3.16475585197923       -2.08199587966232        0.81972126172527
N            3.78832215453205       -2.65772433995762        1.97534478841703
C            3.56625865208941       -3.90085686616829        2.48971843068658
C            4.19645099409798       -3.95733072267883        3.69392253578765
N            4.78118969156321       -2.74442219602386        3.90465456799926
C            4.51540384947837       -1.97091646590840        2.85778334778920
C            5.54056154348705       -2.37774758564947        5.06920145737021
H           -1.12704794611800        1.99977162608450        0.24969487144996
H            0.46927843604196        0.91626240890756        1.80763188536275
H            2.02495550855666       -1.42679632341542       -1.43369443058309
H            0.44828960266963       -0.35521781485835       -2.96284303162846
H            2.57837037611578       -2.84523370608476        0.30791454126427
H            3.91789708695576       -1.67833369902779        0.13631938228165
H            2.99406025823568       -4.64630628802457        1.97622412849654
H            4.26359816844376       -4.76002058757100        4.39966585671487
H            4.84611798991894       -0.95825087212916        2.73548934438854
H            5.84580648876530       -1.33640684942735        4.99869982543028
H            4.93409601920479       -2.50993644667351        5.96586594460578
H            6.42769134690561       -3.00697362861811        5.15440785158161

          :  Hamiltonian                  GFN2-xTB          :
         :: total energy             -46.354470741447 Eh    ::
         :: gradient norm              0.000832233585 Eh/a0 ::
         :: HOMO-LUMO gap              2.356896116035 eV    ::
         :: SCC energy               -47.131954898622 Eh    ::
         :: -> dispersion             -0.026716914939 Eh    ::
         :: repulsion energy           0.777484157175 Eh    ::

    * Orbital Energies and Occupations

         #    Occupation            Energy/Eh            Energy/eV
      -------------------------------------------------------------
         1        2.0000           -0.8933219             -24.3085
       ...           ...                  ...                  ...
        30        2.0000           -0.6214835             -16.9114
        31        2.0000           -0.6179316             -16.8148
        32        2.0000           -0.6113082             -16.6345
        33        2.0000           -0.6066341             -16.5074
        34        2.0000           -0.5902670             -16.0620
        35        2.0000           -0.5868931             -15.9702
        36        2.0000           -0.5838200             -15.8866
        37        2.0000           -0.5737301             -15.6120
        38        2.0000           -0.5526892             -15.0394
        39        2.0000           -0.5461168             -14.8606
        40        2.0000           -0.5435567             -14.7909
        41        2.0000           -0.5377151             -14.6320
        42        2.0000           -0.5157509             -14.0343 (HOMO)
        43                         -0.4291366             -11.6774 (LUMO)
        44                         -0.4028415             -10.9619
        45                         -0.3695431             -10.0558
        46                         -0.3596224              -9.7858
        47                         -0.3554791              -9.6731
        48                         -0.3021856              -8.2229
        49                         -0.2702221              -7.3531
        50                         -0.1964365              -5.3453
        51                         -0.1810630              -4.9270
        52                         -0.1304602              -3.5500
        53                         -0.0946250              -2.5749
       ...                                ...                  ...
        80                          1.0794297              29.3728
      -------------------------------------------------------------
                  HL-Gap            0.0866143 Eh            2.3569 eV

     #   Z          covCN         q      C6AA      α(0)
     1   7 N        0.911    -0.171    24.706     7.189
     2   6 C        1.911     0.115    28.277     8.588
     3   6 C        2.974     0.048    26.923     8.511
     4   6 C        2.922    -0.011    28.295     8.723
     5   6 C        2.926    -0.007    28.200     8.709
     6   6 C        2.970    -0.012    28.321     8.729
     7   6 C        2.918    -0.025    28.618     8.772
     8   6 C        2.924    -0.013    28.335     8.729
     9   6 C        2.822     0.228    23.212     7.894
    10   8 O        0.857    -0.349    20.679     6.097
    11   6 C        3.743    -0.051    21.560     6.624
    12   7 N        2.873     0.073    19.973     6.638
    13   6 C        3.065    -0.007    28.131     8.697
    14   6 C        3.072    -0.008    28.140     8.698
    15   7 N        2.867     0.081    19.834     6.614
    16   6 C        3.094     0.057    26.609     8.455
    17   6 C        3.692    -0.087    22.347     6.764
    18   1 H        0.926     0.075     2.027     2.226
    19   1 H        0.926     0.081     1.967     2.193
    20   1 H        0.926     0.050     2.325     2.385
    21   1 H        0.926     0.071     2.072     2.251
    22   1 H        0.925     0.103     1.755     2.072
    23   1 H        0.924     0.103     1.754     2.071
    24   1 H        0.926     0.105     1.738     2.062
    25   1 H        0.926     0.111     1.690     2.033
    26   1 H        0.926     0.122     1.594     1.974
    27   1 H        0.925     0.101     1.772     2.082
    28   1 H        0.924     0.109     1.703     2.041
    29   1 H        0.924     0.106     1.733     2.058

Wiberg/Mayer (AO) data.
largest (>0.10) Wiberg bond orders for each atom

     #   Z sym  total        # sym  WBO       # sym  WBO       # sym  WBO
 ---------------------------------------------------------------------------
     1   7 N    2.990 --     2 C    2.825
     2   6 C    3.952 --     1 N    2.825     3 C    1.087
     3   6 C    3.989 --     4 C    1.358     8 C    1.350     2 C    1.087
     4   6 C    3.987 --     5 C    1.474     3 C    1.358    18 H    0.965
     5   6 C    3.983 --     4 C    1.474     6 C    1.348    19 H    0.962
     6   6 C    3.963 --     7 C    1.351     5 C    1.348     9 C    1.072
     7   6 C    3.991 --     8 C    1.482     6 C    1.351    20 H    0.965
     8   6 C    3.988 --     7 C    1.482     3 C    1.350    21 H    0.967
     9   6 C    3.926 --    10 O    1.815     6 C    1.072    11 C    0.924
    10   8 O    2.102 --     9 C    1.815
    11   6 C    3.947 --    12 N    0.995    22 H    0.956    23 H    0.941
                             9 C    0.924
    12   7 N    3.709 --    16 C    1.342    13 C    1.215    11 C    0.995
    13   6 C    3.947 --    14 C    1.601    12 N    1.215    24 H    0.961
    14   6 C    3.948 --    13 C    1.601    15 N    1.221    25 H    0.961
    15   7 N    3.721 --    16 C    1.366    14 C    1.221    17 C    0.990
    16   6 C    3.945 --    15 N    1.366    12 N    1.342    26 H    0.952
    17   6 C    3.933 --    15 N    0.990    27 H    0.975    29 H    0.962
                            28 H    0.962
    18   1 H    0.993 --     4 C    0.965
    19   1 H    0.992 --     5 C    0.962
    20   1 H    0.996 --     7 C    0.965
    21   1 H    0.994 --     8 C    0.967
    22   1 H    0.989 --    11 C    0.956
    23   1 H    0.988 --    11 C    0.941
    24   1 H    0.989 --    13 C    0.961
    25   1 H    0.988 --    14 C    0.961
    26   1 H    0.985 --    16 C    0.952
    27   1 H    0.989 --    17 C    0.975
    28   1 H    0.987 --    17 C    0.962
    29   1 H    0.988 --    17 C    0.962
 ---------------------------------------------------------------------------

molecular dipole:
                 x           y           z       tot (Debye)
 q only:        7.535      -4.733       4.604
   full:        7.899      -5.003       4.732      26.636

           -------------------------------------------------
          | TOTAL ENERGY              -46.354470741447 Eh   |
          | GRADIENT NORM               0.000832233585 Eh/α |
          | HOMO-LUMO GAP               2.356896116035 eV   |
           -------------------------------------------------

 * finished run on 2024/12/20 at 02:12:09.370
