   * xtb version 6.7.1 (edcfbbe) compiled by 'conda@3ef47c1a292c' on 2024-11-25

   ID    Z sym.   atoms
    1    6 C      1-9, 11, 12, 14-31, 33-44
    2    7 N      10, 13
    3   15 P      32
    4    1 H      45-84

          program call               : xtb C0254.xyz --opt --namespace C0254 --charge +1
          :  Hamiltonian                  GFN2-xTB          :
 * total energy  :  -116.1460825 Eh     change       -0.1308706E-08 Eh
 * total energy  :  -116.1661835 Eh     change       -0.2010102E-01 Eh
 * total energy  :  -116.1729772 Eh     change       -0.6793644E-02 Eh
 * total energy  :  -116.1755828 Eh     change       -0.2605632E-02 Eh
 * total energy  :  -116.1771765 Eh     change       -0.1593683E-02 Eh
 * total energy  :  -116.1779669 Eh     change       -0.7904109E-03 Eh
 * total energy  :  -116.1783824 Eh     change       -0.4154691E-03 Eh
 * total energy  :  -116.1787501 Eh     change       -0.3677610E-03 Eh
 * total energy  :  -116.1791381 Eh     change       -0.3879935E-03 Eh
 * total energy  :  -116.1795241 Eh     change       -0.3859975E-03 Eh
 * total energy  :  -116.1853087 Eh     change       -0.3286947E-04 Eh
 * total energy  :  -116.1853251 Eh     change       -0.1639020E-04 Eh
 * total energy  :  -116.1853360 Eh     change       -0.1085237E-04 Eh
 * total energy  :  -116.1853474 Eh     change       -0.1140203E-04 Eh
 * total energy  :  -116.1853637 Eh     change       -0.1631356E-04 Eh
 * total energy  :  -116.1853695 Eh     change       -0.5784314E-05 Eh
 * total energy  :  -116.1853758 Eh     change       -0.6350722E-05 Eh
 * total energy  :  -116.1853837 Eh     change       -0.7836688E-05 Eh
 * total energy  :  -116.1853885 Eh     change       -0.4785048E-05 Eh
   *** GEOMETRY OPTIMIZATION CONVERGED AFTER 101 ITERATIONS ***

 final structure:
================
84
 xtb: 6.7.1 (edcfbbe)
C            3.14313844216526        0.46421911506558       -0.98084045018611
C            1.78354574548638       -0.06464597892826       -0.66367381629366
C            0.64931008213587        0.69445347761518       -0.92542592800285
C           -0.62096477174442        0.23169742596371       -0.62153475562922
C           -1.83929337820310        1.05856526609521       -0.90037968348733
C           -0.73166029455024       -1.03110849222368       -0.03871021534228
C            0.38213209487393       -1.82184816653821        0.24247173458692
C            1.63158760682015       -1.31702870803751       -0.08018924626072
C            0.22394120549458       -3.17609663848791        0.86285816514113
N           -2.03394534886233       -1.52139983534965        0.28474722508851
C           -2.63623070805497       -1.44530657255591        1.50365725081566
C           -3.87926734383110       -1.98649902123351        1.37215154180541
N           -4.01129507197762       -2.39275825311595        0.07984989841232
C           -2.88496967157626       -2.09346645077747       -0.56089658083210
C           -5.20765155244324       -2.91815680347385       -0.52334406614047
C           -6.01241165833377       -1.84406946091361       -1.23662590216338
C           -5.72077662331414       -0.49876066359534       -1.07425933489247
C           -6.51077843291232        0.48649649742686       -1.65535245935182
C           -7.42158633003380        0.08571694343603       -2.62411689377412
C           -7.73827698494836       -1.24997276893036       -2.76595766151266
C           -7.13926278633051       -2.22256167745396       -1.97181231721420
C           -7.85272040688586       -3.52412756420043       -1.73720198608507
C           -8.65023106963818       -3.47807119331231       -0.38145721500947
C           -8.78498588383498       -2.06066566893535        0.09991198165286
C           -7.90287867735060       -1.53050329424868        1.03673711077264
C           -7.68775593581103       -0.16776059605887        1.09270421210601
C           -8.36140369954933        0.69576845609884        0.23420969762055
C           -7.76831497456789        2.03149420871037       -0.10368973439573
C           -6.54722225482765        1.87208280346478       -1.08441678066464
C           -9.47515856819640        0.19246327153522       -0.44924398096221
C           -9.66195073398961       -1.18119310507014       -0.51850985490523
P          -10.68337932588309        1.36835879492278       -1.21343984069448
C          -10.90459190820165        0.61385311500430       -2.87789996649816
C          -10.30266042209609        1.28563000945198       -3.93836014533085
C          -10.38742961487098        0.79360736051962       -5.22806003303316
C          -11.08960815684672       -0.37427128140630       -5.47405040771378
C          -11.72324826422772       -1.02940259209926       -4.43064705208222
C          -11.63914104950834       -0.53788293018013       -3.14003387412988
C          -12.19808422333765        0.76231021647177       -0.38438780383651
C          -13.42283418289279        0.99994257204401       -1.00581237804016
C          -14.60379260565122        0.64894863187691       -0.38095760239556
C          -14.57772020329919        0.07681217914806        0.88107049227916
C          -13.36619139059167       -0.12888570846000        1.51873062722290
C          -12.18079669989503        0.22014227390945        0.89631137314727
H            3.10327203442666        1.18210223686452       -1.79545382150972
H            3.55256324107588        0.97039605012380       -0.10646818246156
H            3.82227236049442       -0.34128265511857       -1.24727594704685
H            0.75706849264426        1.66945621513769       -1.37546563755305
H           -1.55198979502186        2.03447815884764       -1.27923777416192
H           -2.47712799667598        0.58158591416268       -1.64504873621141
H           -2.42625667448012        1.20469709207551        0.00646206953461
H            2.50666378084626       -1.91361006055694        0.12730823043697
H           -0.24677879538846       -3.10561448610271        1.84310615565824
H           -0.39331581180810       -3.82114602221478        0.23735703536812
H            1.19324964524519       -3.64911402446179        0.98595256986487
H           -2.14878611296276       -1.01576765715757        2.35495957394414
H           -4.66187249625258       -2.10300050080220        2.09329429935432
H           -2.68901834519493       -2.28326174126178       -1.59802252110662
H           -4.92618257327407       -3.69436761519717       -1.24150291772679
H           -5.81376653192206       -3.37523162698985        0.26209910152229
H           -4.93282603613941       -0.18765121123843       -0.40189852163207
H           -7.97134573825420        0.82367293537795       -3.18501951691871
H           -8.54237717296421       -1.52954474539505       -3.43001838645272
H           -7.17219774425786       -4.37623390011855       -1.72136081605548
H           -8.55948209442859       -3.67942388474000       -2.55141575362292
H           -9.62985135036325       -3.92576120203772       -0.54549218806494
H           -8.13297484510458       -4.07684922973811        0.37031597135289
H           -7.32980865383667       -2.19286471514045        1.67222262346610
H           -6.92554690156563        0.22924786277305        1.74940889321102
H           -8.53037533310394        2.64641986340630       -0.58419325648248
H           -7.42763962466428        2.54635846265103        0.79498682539796
H           -6.64167268658863        2.61395203443821       -1.87652928529546
H           -5.62301305052314        2.07073911309321       -0.53958402611750
H          -10.45121421231640       -1.57869782528979       -1.13737099697211
H           -9.78186668512922        2.21485453571327       -3.74510182271587
H           -9.91609108801689        1.32453173753301       -6.04219226312693
H          -11.16049017510821       -0.76264459103373       -6.47902127102544
H          -12.29523021134695       -1.92536734311565       -4.62481251000687
H          -12.17357806687603       -1.03860826294597       -2.34474075307870
H          -13.44219392388421        1.45382881129384       -1.98801660940874
H          -15.54706100532606        0.82477602541516       -0.87667292527659
H          -15.50023874641764       -0.19909167580796        1.36928328580011
H          -13.34261797932221       -0.55956539133613        2.50927923968264
H          -11.24017506377061        0.06713412436040        1.40722722105461

          :  Hamiltonian                  GFN2-xTB          :
         :: total energy            -116.185388465741 Eh    ::
         :: gradient norm              0.000452992196 Eh/a0 ::
         :: HOMO-LUMO gap              1.062122460630 eV    ::
         :: SCC energy              -118.254120957925 Eh    ::
         :: -> dispersion             -0.122056366784 Eh    ::
         :: repulsion energy           2.068732492184 Eh    ::

    * Orbital Energies and Occupations

         #    Occupation            Energy/Eh            Energy/eV
      -------------------------------------------------------------
         1        2.0000           -0.8750358             -23.8109
       ...           ...                  ...                  ...
        97        2.0000           -0.4941424             -13.4463
        98        2.0000           -0.4865210             -13.2389
        99        2.0000           -0.4809028             -13.0860
       100        2.0000           -0.4783859             -13.0175
       101        2.0000           -0.4766325             -12.9698
       102        2.0000           -0.4757819             -12.9467
       103        2.0000           -0.4688273             -12.7574
       104        2.0000           -0.4675159             -12.7218
       105        2.0000           -0.4628054             -12.5936
       106        2.0000           -0.4605044             -12.5310
       107        2.0000           -0.4577151             -12.4551
       108        2.0000           -0.4550362             -12.3822
       109        2.0000           -0.4263386             -11.6013 (HOMO)
       110                         -0.3873063             -10.5391 (LUMO)
       111                         -0.3523980              -9.5892
       112                         -0.3421391              -9.3101
       113                         -0.3348491              -9.1117
       114                         -0.3285536              -8.9404
       115                         -0.3220130              -8.7624
       116                         -0.3084749              -8.3940
       117                         -0.3023602              -8.2276
       118                         -0.2946399              -8.0176
       119                         -0.2880382              -7.8379
       120                         -0.2866641              -7.8005
       ...                                ...                  ...
       221                          0.7577809              20.6203
      -------------------------------------------------------------
                  HL-Gap            0.0390323 Eh            1.0621 eV

     #   Z          covCN         q      C6AA      α(0)
     1   6 C        3.759    -0.121    22.860     6.816
     2   6 C        2.962     0.033    27.258     8.564
     3   6 C        2.932    -0.048    29.187     8.860
     4   6 C        2.963     0.012    27.739     8.639
     5   6 C        3.757    -0.114    22.732     6.798
     6   6 C        2.930     0.008    27.850     8.655
     7   6 C        2.962     0.014    27.709     8.634
     8   6 C        2.933    -0.048    29.189     8.860
     9   6 C        3.757    -0.116    22.776     6.804
    10   7 N        2.878     0.068    20.050     6.650
    11   6 C        3.071    -0.004    28.040     8.682
    12   6 C        3.075    -0.005    28.073     8.687
    13   7 N        2.870     0.067    20.078     6.655
    14   6 C        3.101     0.054    26.659     8.461
    15   6 C        3.748    -0.023    21.046     6.543
    16   6 C        2.974    -0.012    28.300     8.726
    17   6 C        2.930    -0.053    29.323     8.881
    18   6 C        2.970     0.016    27.660     8.627
    19   6 C        2.926    -0.036    28.887     8.814
    20   6 C        2.928    -0.033    28.813     8.803
    21   6 C        2.972     0.003    27.958     8.673
    22   6 C        3.804    -0.065    21.748     6.639
    23   6 C        3.803    -0.059    21.642     6.623
    24   6 C        2.969     0.004    27.941     8.670
    25   6 C        2.926    -0.045    29.118     8.849
    26   6 C        2.925    -0.043    29.073     8.842
    27   6 C        3.031     0.008    27.804     8.649
    28   6 C        3.804    -0.062    21.695     6.631
    29   6 C        3.804    -0.059    21.642     6.623
    30   6 C        2.920     0.006    27.889     8.660
    31   6 C        2.982    -0.037    28.924     8.822
    32  15 P        3.173    -0.118   165.565    23.114
    33   6 C        2.916     0.014    27.697     8.630
    34   6 C        3.023    -0.029    28.708     8.789
    35   6 C        2.918    -0.030    28.742     8.791
    36   6 C        2.920    -0.028    28.691     8.784
    37   6 C        2.919    -0.030    28.751     8.793
    38   6 C        2.956    -0.027    28.669     8.782
    39   6 C        2.917     0.016    27.658     8.624
    40   6 C        3.007    -0.027    28.649     8.780
    41   6 C        2.918    -0.027    28.688     8.783
    42   6 C        2.920    -0.027    28.681     8.782
    43   6 C        2.919    -0.029    28.716     8.788
    44   6 C        2.973    -0.030    28.740     8.794
    45   1 H        0.925     0.062     2.177     2.308
    46   1 H        0.925     0.071     2.071     2.251
    47   1 H        0.925     0.063     2.164     2.300
    48   1 H        0.926     0.061     2.189     2.314
    49   1 H        0.925     0.067     2.117     2.275
    50   1 H        0.924     0.049     2.330     2.387
    51   1 H        0.925     0.046     2.367     2.406
    52   1 H        0.926     0.061     2.184     2.311
    53   1 H        0.925     0.052     2.292     2.367
    54   1 H        0.925     0.047     2.363     2.404
    55   1 H        0.925     0.068     2.109     2.271
    56   1 H        0.926     0.099     1.798     2.097
    57   1 H        0.926     0.101     1.780     2.086
    58   1 H        0.926     0.104     1.747     2.067
    59   1 H        0.924     0.078     1.996     2.209
    60   1 H        0.924     0.092     1.857     2.131
    61   1 H        0.925     0.014     2.830     2.631
    62   1 H        0.926     0.059     2.214     2.327
    63   1 H        0.926     0.049     2.331     2.387
    64   1 H        0.924     0.037     2.491     2.468
    65   1 H        0.925     0.054     2.274     2.358
    66   1 H        0.925     0.053     2.286     2.364
    67   1 H        0.924     0.032     2.563     2.504
    68   1 H        0.925     0.012     2.851     2.640
    69   1 H        0.925     0.025     2.660     2.550
    70   1 H        0.924     0.068     2.107     2.270
    71   1 H        0.924     0.049     2.339     2.391
    72   1 H        0.925     0.053     2.277     2.360
    73   1 H        0.924     0.036     2.504     2.474
    74   1 H        0.926     0.048     2.339     2.391
    75   1 H        0.925     0.037     2.486     2.466
    76   1 H        0.926     0.036     2.509     2.477
    77   1 H        0.926     0.037     2.489     2.467
    78   1 H        0.926     0.035     2.520     2.482
    79   1 H        0.926     0.036     2.498     2.471
    80   1 H        0.925     0.037     2.494     2.470
    81   1 H        0.926     0.038     2.479     2.462
    82   1 H        0.926     0.038     2.481     2.463
    83   1 H        0.926     0.033     2.545     2.495
    84   1 H        0.925     0.027     2.631     2.536

Wiberg/Mayer (AO) data.
largest (>0.10) Wiberg bond orders for each atom

     #   Z sym  total        # sym  WBO       # sym  WBO       # sym  WBO
 ---------------------------------------------------------------------------
     1   6 C    3.991 --     2 C    1.036    45 H    0.979    47 H    0.977
                            46 H    0.956
     2   6 C    3.985 --     3 C    1.403     8 C    1.403     1 C    1.036
     3   6 C    3.988 --     4 C    1.420     2 C    1.403    48 H    0.963
     4   6 C    3.986 --     3 C    1.420     6 C    1.364     5 C    1.027
     5   6 C    3.993 --     4 C    1.027    49 H    0.982    51 H    0.972
                            50 H    0.969
     6   6 C    3.911 --     7 C    1.365     4 C    1.364    10 N    0.951
     7   6 C    3.986 --     8 C    1.420     6 C    1.365     9 C    1.027
     8   6 C    3.988 --     7 C    1.420     2 C    1.403    52 H    0.964
     9   6 C    3.992 --     7 C    1.027    55 H    0.982    54 H    0.971
                            53 H    0.969
    10   7 N    3.715 --    14 C    1.362    11 C    1.226     6 C    0.951
    11   6 C    3.951 --    12 C    1.587    10 N    1.226    56 H    0.964
    12   6 C    3.948 --    11 C    1.587    13 N    1.227    57 H    0.961
    13   7 N    3.714 --    14 C    1.357    12 C    1.227    15 C    0.973
    14   6 C    3.947 --    10 N    1.362    13 N    1.357    58 H    0.957
    15   6 C    3.936 --    13 N    0.973    16 C    0.971    59 H    0.956
                            60 H    0.950
    16   6 C    3.972 --    17 C    1.434    21 C    1.369    15 C    0.971
                            19 C    0.101
    17   6 C    3.988 --    16 C    1.434    18 C    1.397    61 H    0.963
    18   6 C    3.986 --    19 C    1.398    17 C    1.397    29 C    1.022
                            21 C    0.110
    19   6 C    3.989 --    20 C    1.457    18 C    1.398    62 H    0.956
                            16 C    0.101
    20   6 C    3.988 --    19 C    1.457    21 C    1.403    63 H    0.963
    21   6 C    3.984 --    20 C    1.403    16 C    1.369    22 C    1.020
                            18 C    0.110
    22   6 C    3.993 --    21 C    1.020    65 H    0.977    64 H    0.971
                            23 C    0.951
    23   6 C    3.991 --    24 C    1.016    67 H    0.978    66 H    0.972
                            22 C    0.951
    24   6 C    3.986 --    31 C    1.411    25 C    1.390    23 C    1.016
                            27 C    0.107
    25   6 C    3.986 --    26 C    1.459    24 C    1.390    68 H    0.965
    26   6 C    3.990 --    25 C    1.459    27 C    1.399    69 H    0.966
                            31 C    0.100
    27   6 C    3.985 --    26 C    1.399    30 C    1.365    28 C    1.022
                            24 C    0.107
    28   6 C    3.990 --    27 C    1.022    71 H    0.971    70 H    0.956
                            29 C    0.947
    29   6 C    3.993 --    18 C    1.022    73 H    0.978    72 H    0.972
                            28 C    0.947
    30   6 C    3.975 --    31 C    1.415    27 C    1.365    32 P    0.983
    31   6 C    3.990 --    30 C    1.415    24 C    1.411    74 H    0.952
                            26 C    0.100
    32  15 P    3.420 --    39 C    1.024    33 C    0.999    30 C    0.983
    33   6 C    3.980 --    34 C    1.398    38 C    1.394    32 P    0.999
                            36 C    0.107
    34   6 C    3.990 --    35 C    1.444    33 C    1.398    75 H    0.961
                            37 C    0.107
    35   6 C    3.991 --    34 C    1.444    36 C    1.437    76 H    0.970
                            38 C    0.109
    36   6 C    3.985 --    35 C    1.437    37 C    1.434    77 H    0.971
                            33 C    0.107
    37   6 C    3.991 --    38 C    1.446    36 C    1.434    78 H    0.969
                            34 C    0.107
    38   6 C    3.991 --    37 C    1.446    33 C    1.394    79 H    0.959
                            35 C    0.109
    39   6 C    3.980 --    44 C    1.394    40 C    1.384    32 P    1.024
                            42 C    0.104
    40   6 C    3.991 --    41 C    1.454    39 C    1.384    80 H    0.962
                            43 C    0.109
    41   6 C    3.991 --    40 C    1.454    42 C    1.430    81 H    0.969
                            44 C    0.107
    42   6 C    3.991 --    43 C    1.439    41 C    1.430    82 H    0.971
                            39 C    0.104
    43   6 C    3.992 --    44 C    1.443    42 C    1.439    83 H    0.970
                            40 C    0.109
    44   6 C    3.991 --    43 C    1.443    39 C    1.394    84 H    0.963
                            41 C    0.107
    45   1 H    0.996 --     1 C    0.979
    46   1 H    0.994 --     1 C    0.956
    47   1 H    0.996 --     1 C    0.977
    48   1 H    0.994 --     3 C    0.963
    49   1 H    0.995 --     5 C    0.982
    50   1 H    0.997 --     5 C    0.969
    51   1 H    0.998 --     5 C    0.972
    52   1 H    0.994 --     8 C    0.964
    53   1 H    0.997 --     9 C    0.969
    54   1 H    0.998 --     9 C    0.971
    55   1 H    0.995 --     9 C    0.982
    56   1 H    0.990 --    11 C    0.964
    57   1 H    0.989 --    12 C    0.961
    58   1 H    0.989 --    14 C    0.957
    59   1 H    0.994 --    15 C    0.956
    60   1 H    0.991 --    15 C    0.950
    61   1 H    0.999 --    17 C    0.963
    62   1 H    0.996 --    19 C    0.956
    63   1 H    0.996 --    20 C    0.963
    64   1 H    0.998 --    22 C    0.971
    65   1 H    0.997 --    22 C    0.977
    66   1 H    0.996 --    23 C    0.972
    67   1 H    0.998 --    23 C    0.978
    68   1 H    0.999 --    25 C    0.965
    69   1 H    0.999 --    26 C    0.966
    70   1 H    0.995 --    28 C    0.956
    71   1 H    0.997 --    28 C    0.971
    72   1 H    0.996 --    29 C    0.972
    73   1 H    0.998 --    29 C    0.978
    74   1 H    0.997 --    31 C    0.952
    75   1 H    0.998 --    34 C    0.961
    76   1 H    0.998 --    35 C    0.970
    77   1 H    0.998 --    36 C    0.971
    78   1 H    0.999 --    37 C    0.969
    79   1 H    0.999 --    38 C    0.959
    80   1 H    0.998 --    40 C    0.962
    81   1 H    0.998 --    41 C    0.969
    82   1 H    0.998 --    42 C    0.971
    83   1 H    0.999 --    43 C    0.970
    84   1 H    0.999 --    44 C    0.963
 ---------------------------------------------------------------------------

molecular dipole:
                 x           y           z       tot (Debye)
 q only:       -5.885      -2.938      -0.672
   full:       -6.108      -3.422      -0.588      17.859

           -------------------------------------------------
          | TOTAL ENERGY             -116.185388465741 Eh   |
          | GRADIENT NORM               0.000452992196 Eh/α |
          | HOMO-LUMO GAP               1.062122460630 eV   |
           -------------------------------------------------

 * finished run on 2024/12/20 at 02:12:27.801
