   * xtb version 6.7.1 (edcfbbe) compiled by 'conda@3ef47c1a292c' on 2024-11-25

   ID    Z sym.   atoms
    1    7 N      1, 5, 10
    2    6 C      2-4, 6, 7, 9, 11-18, 20-25
    3    8 O      8, 19
    4    1 H      26-45

          program call               : xtb C0258.xyz --opt --namespace C0258 --charge +1
          :  Hamiltonian                  GFN2-xTB          :
 * total energy  :   -69.4511789 Eh     change       -0.6139089E-09 Eh
 * total energy  :   -69.4913475 Eh     change       -0.4016863E-01 Eh
 * total energy  :   -69.4966085 Eh     change       -0.5261015E-02 Eh
 * total energy  :   -69.4982633 Eh     change       -0.1654768E-02 Eh
 * total energy  :   -69.4990247 Eh     change       -0.7613972E-03 Eh
 * total energy  :   -69.4998009 Eh     change       -0.7762210E-03 Eh
 * total energy  :   -69.5004782 Eh     change       -0.6772640E-03 Eh
 * total energy  :   -69.5011925 Eh     change       -0.7143551E-03 Eh
 * total energy  :   -69.5020516 Eh     change       -0.8590538E-03 Eh
 * total energy  :   -69.5030172 Eh     change       -0.9656139E-03 Eh
 * total energy  :   -69.5170637 Eh     change       -0.3251825E-04 Eh
 * total energy  :   -69.5170826 Eh     change       -0.1890965E-04 Eh
 * total energy  :   -69.5171068 Eh     change       -0.2425705E-04 Eh
 * total energy  :   -69.5171145 Eh     change       -0.7684782E-05 Eh
 * total energy  :   -69.5171273 Eh     change       -0.1277608E-04 Eh
 * total energy  :   -69.5171323 Eh     change       -0.5029175E-05 Eh
 * total energy  :   -69.5171404 Eh     change       -0.8133097E-05 Eh
 * total energy  :   -69.5171459 Eh     change       -0.5440724E-05 Eh
 * total energy  :   -69.5171506 Eh     change       -0.4674211E-05 Eh
   *** GEOMETRY OPTIMIZATION CONVERGED AFTER 53 ITERATIONS ***

 final structure:
================
45
 xtb: 6.7.1 (edcfbbe)
N            1.23675368417272        2.41984184316818       -0.56033909629134
C            1.89953532881946        1.49200954026649       -0.49636762954017
C            2.80845441022654        0.38186736416823       -0.34588423715816
C            4.23956726176327        0.89872621979393       -0.07715740532132
N            4.20243379405284        2.13794968528226        0.66986584472552
C            4.44325047552548        3.37439435227435        0.22077450702146
C            4.95631200609094        3.73063205882568       -1.14631734562639
O            5.89868539418983        2.74970314139922       -1.53111050564504
C            3.79190535454506        3.83404338469382       -2.14574497334916
N            4.13901578338204        4.27335566363902        1.16853703001994
C            3.64796763694292        3.59560575517360        2.26994895127033
C            3.71322937550031        2.22887472858154        1.95759957824833
C            3.32206895282711        1.25674490194142        2.86999684831647
C            2.83654402711971        1.69491797388135        4.08424173899811
C            2.72847963969451        3.05552917600859        4.37982191654930
C            3.12958343528522        4.02723678836329        3.48617315771389
C            4.27718237710124        5.71023497384936        1.08577883411688
C            5.75603925197726        6.18202884448268        0.96801453195527
O            6.20276483073877        6.37394098362585       -0.14044443285368
C            6.52868940862850        6.41126758960616        2.18833297302074
C            6.19030210809737        5.88670444913518        3.43868153755383
C            6.98639617703401        6.14837018930818        4.53646410253828
C            8.11885897508901        6.94029951573549        4.41032231968850
C            8.46795769797273        7.46086801046808        3.17315810581193
C            7.68518965725129        7.19351913807305        2.06901876240609
H            2.44243744127174       -0.23290832034385        0.48029477401309
H            2.79593018700244       -0.22686483030179       -1.25221525371782
H            4.80031284869389        0.16021106054051        0.50071597952818
H            4.77168865748439        1.08439668097025       -1.00984835444468
H            5.45057920446150        4.70703496351978       -1.08248117974655
H            6.36664281065183        3.05550524471942       -2.31651564141301
H            2.99349389253611        4.45620434200313       -1.75240266746484
H            4.15274343225450        4.27604367458373       -3.07078936367326
H            3.38373884371604        2.85155769050445       -2.36529747565451
H            3.39738389678355        0.20456891232741        2.65104008338868
H            2.52163081144964        0.97253736563921        4.81999789086412
H            2.32031712295123        3.35332533268343        5.33228612985641
H            3.02255608975155        5.07180139313609        3.73129946918331
H            3.76072737005545        6.07468868987323        0.19230112893057
H            3.81244752494564        6.15236078551242        1.96594972278146
H            5.32984824861234        5.24843593774694        3.55839874706306
H            6.72327479180890        5.73398463842120        5.49772296448974
H            8.72933305491622        7.14671248544315        5.27573716654585
H            9.35058042340546        8.07277443744818        3.07204997515416
H            7.93968630321749        7.59085324391754        1.09831079010731

          :  Hamiltonian                  GFN2-xTB          :
         :: total energy             -69.517150558367 Eh    ::
         :: gradient norm              0.000553087741 Eh/a0 ::
         :: HOMO-LUMO gap              2.944257047678 eV    ::
         :: SCC energy               -70.627783580138 Eh    ::
         :: -> dispersion             -0.052623562036 Eh    ::
         :: repulsion energy           1.110633021771 Eh    ::

    * Orbital Energies and Occupations

         #    Occupation            Energy/Eh            Energy/eV
      -------------------------------------------------------------
         1        2.0000           -0.8720543             -23.7298
       ...           ...                  ...                  ...
        51        2.0000           -0.5841452             -15.8954
        52        2.0000           -0.5802282             -15.7888
        53        2.0000           -0.5750139             -15.6469
        54        2.0000           -0.5712156             -15.5436
        55        2.0000           -0.5553686             -15.1123
        56        2.0000           -0.5516694             -15.0117
        57        2.0000           -0.5454823             -14.8433
        58        2.0000           -0.5428039             -14.7704
        59        2.0000           -0.5419712             -14.7478
        60        2.0000           -0.5333405             -14.5129
        61        2.0000           -0.5245261             -14.2731
        62        2.0000           -0.5209255             -14.1751
        63        2.0000           -0.5181682             -14.1001 (HOMO)
        64                         -0.4099688             -11.1558 (LUMO)
        65                         -0.4067121             -11.0672
        66                         -0.3613278              -9.8322
        67                         -0.3544807              -9.6459
        68                         -0.3377714              -9.1912
        69                         -0.3304792              -8.9928
        70                         -0.3234492              -8.8015
        71                         -0.3144777              -8.5574
        72                         -0.2366215              -6.4388
        73                         -0.2037241              -5.5436
        74                         -0.1775884              -4.8324
       ...                                ...                  ...
       120                          1.0244118              27.8757
      -------------------------------------------------------------
                  HL-Gap            0.1081995 Eh            2.9443 eV

     #   Z          covCN         q      C6AA      α(0)
     1   7 N        0.911    -0.221    25.838     7.352
     2   6 C        1.898     0.115    28.265     8.586
     3   6 C        3.803    -0.065    21.737     6.638
     4   6 C        3.746    -0.015    20.908     6.522
     5   7 N        2.829     0.022    20.864     6.784
     6   6 C        3.077     0.117    25.355     8.256
     7   6 C        3.726     0.105    18.946     6.215
     8   8 O        1.656    -0.442    21.689     6.287
     9   6 C        3.753    -0.129    23.036     6.844
    10   7 N        2.829     0.011    21.068     6.817
    11   6 C        3.094     0.042    26.944     8.507
    12   6 C        3.103     0.040    26.966     8.509
    13   6 C        2.910    -0.033    28.821     8.803
    14   6 C        2.925    -0.019    28.486     8.753
    15   6 C        2.925    -0.019    28.483     8.752
    16   6 C        2.910    -0.033    28.826     8.804
    17   6 C        3.737    -0.044    21.445     6.608
    18   6 C        2.819     0.224    23.297     7.908
    19   8 O        0.858    -0.345    20.614     6.087
    20   6 C        2.970    -0.016    28.406     8.742
    21   6 C        2.919    -0.030    28.746     8.792
    22   6 C        2.917    -0.022    28.548     8.762
    23   6 C        2.920    -0.008    28.228     8.713
    24   6 C        2.916    -0.018    28.448     8.746
    25   6 C        2.928    -0.010    28.255     8.717
    26   1 H        0.924     0.091     1.867     2.137
    27   1 H        0.924     0.101     1.773     2.082
    28   1 H        0.924     0.087     1.911     2.162
    29   1 H        0.925     0.116     1.642     2.004
    30   1 H        0.924     0.087     1.912     2.162
    31   1 H        0.805     0.322     0.659     1.275
    32   1 H        0.925     0.065     2.140     2.287
    33   1 H        0.925     0.078     2.002     2.213
    34   1 H        0.925     0.066     2.133     2.284
    35   1 H        0.926     0.067     2.122     2.278
    36   1 H        0.926     0.079     1.989     2.205
    37   1 H        0.926     0.079     1.985     2.203
    38   1 H        0.926     0.068     2.106     2.269
    39   1 H        0.924     0.095     1.828     2.114
    40   1 H        0.925     0.095     1.836     2.119
    41   1 H        0.926     0.036     2.498     2.472
    42   1 H        0.926     0.055     2.264     2.353
    43   1 H        0.926     0.065     2.142     2.289
    44   1 H        0.926     0.066     2.134     2.284
    45   1 H        0.926     0.075     2.032     2.229

Wiberg/Mayer (AO) data.
largest (>0.10) Wiberg bond orders for each atom

     #   Z sym  total        # sym  WBO       # sym  WBO       # sym  WBO
 ---------------------------------------------------------------------------
     1   7 N    3.014 --     2 C    2.857
     2   6 C    3.949 --     1 N    2.857     3 C    1.052
     3   6 C    3.990 --     2 C    1.052     4 C    0.965    26 H    0.941
                            27 H    0.940
     4   6 C    3.940 --     5 N    0.974     3 C    0.965    28 H    0.961
                            29 H    0.953
     5   7 N    3.667 --     6 C    1.341    12 C    1.120     4 C    0.974
     6   6 C    3.950 --     5 N    1.341    10 N    1.330     7 C    0.995
     7   6 C    3.947 --     6 C    0.995     8 O    0.991     9 C    0.966
                            30 H    0.936
     8   8 O    1.962 --     7 C    0.991    31 H    0.880
     9   6 C    3.979 --    34 H    0.981    32 H    0.980    33 H    0.978
                             7 C    0.966
    10   7 N    3.659 --     6 C    1.330    11 C    1.117    17 C    0.976
    11   6 C    3.951 --    16 C    1.339    12 C    1.279    10 N    1.117
    12   6 C    3.954 --    13 C    1.341    11 C    1.279     5 N    1.120
    13   6 C    3.983 --    14 C    1.492    12 C    1.341    35 H    0.963
                            16 C    0.118
    14   6 C    3.984 --    13 C    1.492    15 C    1.381    36 H    0.966
    15   6 C    3.983 --    16 C    1.490    14 C    1.381    37 H    0.966
    16   6 C    3.984 --    15 C    1.490    11 C    1.339    38 H    0.959
                            13 C    0.118
    17   6 C    3.940 --    10 N    0.976    40 H    0.960    39 H    0.957
                            18 C    0.922
    18   6 C    3.927 --    19 O    1.814    20 C    1.077    17 C    0.922
    19   8 O    2.095 --    18 C    1.814
    20   6 C    3.986 --    21 C    1.358    25 C    1.350    18 C    1.077
    21   6 C    3.991 --    22 C    1.468    20 C    1.358    41 H    0.962
                            24 C    0.103
    22   6 C    3.991 --    21 C    1.468    23 C    1.420    42 H    0.969
                            25 C    0.100
    23   6 C    3.985 --    24 C    1.427    22 C    1.420    43 H    0.968
    24   6 C    3.989 --    25 C    1.464    23 C    1.427    44 H    0.967
                            21 C    0.103
    25   6 C    3.983 --    24 C    1.464    20 C    1.350    45 H    0.964
                            22 C    0.100
    26   1 H    0.992 --     3 C    0.941
    27   1 H    0.990 --     3 C    0.940
    28   1 H    0.992 --     4 C    0.961
    29   1 H    0.986 --     4 C    0.953
    30   1 H    0.991 --     7 C    0.936
    31   1 H    0.896 --     8 O    0.880
    32   1 H    0.996 --     9 C    0.980
    33   1 H    0.993 --     9 C    0.978
    34   1 H    0.996 --     9 C    0.981
    35   1 H    0.995 --    13 C    0.963
    36   1 H    0.993 --    14 C    0.966
    37   1 H    0.993 --    15 C    0.966
    38   1 H    0.995 --    16 C    0.959
    39   1 H    0.990 --    17 C    0.957
    40   1 H    0.991 --    17 C    0.960
    41   1 H    0.999 --    21 C    0.962
    42   1 H    0.996 --    22 C    0.969
    43   1 H    0.995 --    23 C    0.968
    44   1 H    0.995 --    24 C    0.967
    45   1 H    0.994 --    25 C    0.964
 ---------------------------------------------------------------------------

molecular dipole:
                 x           y           z       tot (Debye)
 q only:        8.697       6.108       3.097
   full:        8.868       5.862       3.036      28.099

           -------------------------------------------------
          | TOTAL ENERGY              -69.517150558367 Eh   |
          | GRADIENT NORM               0.000553087741 Eh/α |
          | HOMO-LUMO GAP               2.944257047678 eV   |
           -------------------------------------------------

 * finished run on 2024/12/20 at 02:12:46.841
