   * xtb version 6.7.1 (edcfbbe) compiled by 'conda@3ef47c1a292c' on 2024-11-25

   ID    Z sym.   atoms
    1    6 C      1, 2, 4, 6-10
    2    8 O      3
    3    7 N      5
    4    1 H      11-20

          program call               : xtb C0251.xyz --opt --namespace C0251 --charge +1
          :  Hamiltonian                  GFN2-xTB          :
 * total energy  :   -28.7727841 Eh     change       -0.2833858E-09 Eh
 * total energy  :   -28.7772474 Eh     change       -0.4463377E-02 Eh
 * total energy  :   -28.7782175 Eh     change       -0.9700757E-03 Eh
 * total energy  :   -28.7784458 Eh     change       -0.2282538E-03 Eh
 * total energy  :   -28.7787086 Eh     change       -0.2628725E-03 Eh
 * total energy  :   -28.7789265 Eh     change       -0.2178299E-03 Eh
 * total energy  :   -28.7793115 Eh     change       -0.3850194E-03 Eh
 * total energy  :   -28.7799429 Eh     change       -0.6314169E-03 Eh
 * total energy  :   -28.7805791 Eh     change       -0.6362105E-03 Eh
 * total energy  :   -28.7809269 Eh     change       -0.3477857E-03 Eh
 * total energy  :   -28.7904261 Eh     change       -0.2371427E-03 Eh
 * total energy  :   -28.7904462 Eh     change       -0.2015747E-04 Eh
 * total energy  :   -28.7904718 Eh     change       -0.2554472E-04 Eh
 * total energy  :   -28.7904824 Eh     change       -0.1063527E-04 Eh
 * total energy  :   -28.7905049 Eh     change       -0.2247691E-04 Eh
 * total energy  :   -28.7905158 Eh     change       -0.1093761E-04 Eh
 * total energy  :   -28.7905317 Eh     change       -0.1586730E-04 Eh
 * total energy  :   -28.7905404 Eh     change       -0.8688318E-05 Eh
 * total energy  :   -28.7905446 Eh     change       -0.4220974E-05 Eh
   *** GEOMETRY OPTIMIZATION CONVERGED AFTER 37 ITERATIONS ***

 final structure:
================
20
 xtb: 6.7.1 (edcfbbe)
C            1.57807866215048        0.38756451510666        0.93398525517236
C            0.86762060100644       -0.78192847103763        0.35595109400531
O            0.57039361243502       -0.94350082977776       -0.79107208434653
C            0.50320218097337       -1.88354356429892        1.40200153062039
N            0.18579833178863       -3.09985892114223        0.70206631856252
C            1.01345072199300       -4.15439242759141        0.74270575792965
C            0.79158706850279       -5.26329152105253       -0.04254142499506
C           -0.29525566711876       -5.27660963416821       -0.91108748228283
C           -1.13523025074053       -4.17344089471720       -0.94475858147548
C           -0.87000995094726       -3.09418685991538       -0.12494704593582
H            1.43632079516470        1.25952820582793        0.30003021547864
H            2.64642233714051        0.16841321792235        0.95322322533072
H            1.25834941213396        0.59832865874624        1.95014390763145
H            1.32990800964665       -2.03521111620279        2.09623786307750
H           -0.36652902795496       -1.52067340718431        1.95769644069164
H            1.85586790054175       -4.09997706662337        1.41657095417528
H            1.46670677871288       -6.10170957478496        0.01701706960639
H           -0.48047394297646       -6.13011008973513       -1.54396209106644
H           -1.98893934385154       -4.14252301976209       -1.60252222703287
H           -1.50967822860087       -2.22499719960907       -0.11604869514669

          :  Hamiltonian                  GFN2-xTB          :
         :: total energy             -28.790544579995 Eh    ::
         :: gradient norm              0.000702672288 Eh/a0 ::
         :: HOMO-LUMO gap              2.908613860923 eV    ::
         :: SCC energy               -29.238683154846 Eh    ::
         :: -> dispersion             -0.014566718398 Eh    ::
         :: repulsion energy           0.448138574851 Eh    ::

    * Orbital Energies and Occupations

         #    Occupation            Energy/Eh            Energy/eV
      -------------------------------------------------------------
         1        2.0000           -0.8862653             -24.1165
       ...           ...                  ...                  ...
        14        2.0000           -0.7028948             -19.1267
        15        2.0000           -0.6922335             -18.8366
        16        2.0000           -0.6813518             -18.5405
        17        2.0000           -0.6760239             -18.3955
        18        2.0000           -0.6626772             -18.0324
        19        2.0000           -0.6555944             -17.8396
        20        2.0000           -0.6322202             -17.2036
        21        2.0000           -0.6226796             -16.9440
        22        2.0000           -0.6223371             -16.9347
        23        2.0000           -0.6206939             -16.8899
        24        2.0000           -0.6153330             -16.7441
        25        2.0000           -0.6114439             -16.6382
        26        2.0000           -0.5661835             -15.4066 (HOMO)
        27                         -0.4592939             -12.4980 (LUMO)
        28                         -0.4269791             -11.6187
        29                         -0.4103684             -11.1667
        30                         -0.3075094              -8.3678
        31                         -0.1710707              -4.6551
        32                         -0.1104643              -3.0059
        33                         -0.0803051              -2.1852
        34                         -0.0414753              -1.1286
        35                         -0.0291220              -0.7925
        36                         -0.0137043              -0.3729
        37                         -0.0074757              -0.2034
       ...                                ...                  ...
        50                          0.4992061              13.5841
      -------------------------------------------------------------
                  HL-Gap            0.1068896 Eh            2.9086 eV

     #   Z          covCN         q      C6AA      α(0)
     1   6 C        3.754    -0.156    23.582     6.924
     2   6 C        2.807     0.248    22.836     7.829
     3   8 O        0.857    -0.311    19.974     5.992
     4   6 C        3.763    -0.067    21.827     6.660
     5   7 N        2.751     0.119    19.213     6.510
     6   6 C        2.888     0.030    27.328     8.571
     7   6 C        2.915    -0.009    28.244     8.715
     8   6 C        2.924     0.015    27.678     8.628
     9   6 C        2.915    -0.006    28.176     8.704
    10   6 C        2.895     0.042    27.057     8.528
    11   1 H        0.925     0.113     1.671     2.021
    12   1 H        0.924     0.114     1.661     2.016
    13   1 H        0.925     0.090     1.876     2.142
    14   1 H        0.925     0.108     1.717     2.049
    15   1 H        0.924     0.117     1.639     2.002
    16   1 H        0.926     0.105     1.741     2.064
    17   1 H        0.926     0.109     1.701     2.039
    18   1 H        0.926     0.109     1.702     2.040
    19   1 H        0.926     0.112     1.678     2.026
    20   1 H        0.926     0.117     1.638     2.002

Wiberg/Mayer (AO) data.
largest (>0.10) Wiberg bond orders for each atom

     #   Z sym  total        # sym  WBO       # sym  WBO       # sym  WBO
 ---------------------------------------------------------------------------
     1   6 C    3.978 --     2 C    1.033    13 H    0.966    11 H    0.962
                            12 H    0.926
     2   6 C    3.922 --     3 O    1.895     1 C    1.033     4 C    0.909
     3   8 O    2.155 --     2 C    1.895
     4   6 C    3.945 --     5 N    0.996    14 H    0.956    15 H    0.936
                             2 C    0.909
     5   7 N    3.763 --    10 C    1.310     6 C    1.306     4 C    0.996
     6   6 C    3.957 --     7 C    1.478     5 N    1.306    16 H    0.955
     7   6 C    3.981 --     6 C    1.478     8 C    1.406    17 H    0.959
     8   6 C    3.967 --     9 C    1.433     7 C    1.406    18 H    0.961
     9   6 C    3.980 --    10 C    1.450     8 C    1.433    19 H    0.958
    10   6 C    3.954 --     9 C    1.450     5 N    1.310    20 H    0.954
    11   1 H    0.986 --     1 C    0.962
    12   1 H    0.987 --     1 C    0.926
    13   1 H    0.992 --     1 C    0.966
    14   1 H    0.988 --     4 C    0.956
    15   1 H    0.986 --     4 C    0.936
    16   1 H    0.989 --     6 C    0.955
    17   1 H    0.988 --     7 C    0.959
    18   1 H    0.988 --     8 C    0.961
    19   1 H    0.987 --     9 C    0.958
    20   1 H    0.986 --    10 C    0.954
 ---------------------------------------------------------------------------

molecular dipole:
                 x           y           z       tot (Debye)
 q only:        0.664      -5.930       1.415
   full:        0.712      -5.924       1.621      15.716

           -------------------------------------------------
          | TOTAL ENERGY              -28.790544579995 Eh   |
          | GRADIENT NORM               0.000702672288 Eh/α |
          | HOMO-LUMO GAP               2.908613860923 eV   |
           -------------------------------------------------

 * finished run on 2024/12/20 at 02:12:09.917
