   * xtb version 6.7.1 (edcfbbe) compiled by 'conda@3ef47c1a292c' on 2024-11-25

   ID    Z sym.   atoms
    1    6 C      1, 3-6
    2    7 N      2
    3    8 O      7, 8
    4    1 H      9-20

          program call               : xtb C0259.xyz --opt --namespace C0259 --charge +1
          :  Hamiltonian                  GFN2-xTB          :
 * total energy  :   -27.4513653 Eh     change       -0.2525979E-10 Eh
 * total energy  :   -27.4602310 Eh     change       -0.8865733E-02 Eh
 * total energy  :   -27.4623756 Eh     change       -0.2144570E-02 Eh
 * total energy  :   -27.4625698 Eh     change       -0.1941892E-03 Eh
 * total energy  :   -27.4626779 Eh     change       -0.1080636E-03 Eh
 * total energy  :   -27.4627282 Eh     change       -0.5038177E-04 Eh
 * total energy  :   -27.4627745 Eh     change       -0.4623033E-04 Eh
 * total energy  :   -27.4628000 Eh     change       -0.2550238E-04 Eh
 * total energy  :   -27.4628111 Eh     change       -0.1113145E-04 Eh
 * total energy  :   -27.4628164 Eh     change       -0.5334442E-05 Eh
 * total energy  :   -27.4628219 Eh     change       -0.5481172E-05 Eh
 * total energy  :   -27.4628243 Eh     change       -0.2353449E-05 Eh
   *** GEOMETRY OPTIMIZATION CONVERGED AFTER 12 ITERATIONS ***

 final structure:
================
20
 xtb: 6.7.1 (edcfbbe)
C            0.85271419085183        0.02031191904030        0.16809610950083
N            0.53602992165687       -0.77199962891059       -1.03876114946893
C            1.07886517908876       -2.13528479906054       -0.87221438267448
C           -0.93082272507242       -0.85729087636857       -1.19959468316054
C            1.15850065203487       -0.16089125515112       -2.24118190133634
C            0.69421635148844        1.28851007345936       -2.55372903958090
O            1.26354685868490        1.82372981134530       -3.61174920569668
O           -0.11146528167488        1.86536077290960       -1.89042818592246
H            0.42950201382861       -0.46248942449675        1.04641819270723
H            0.42947601714606        1.01958289538597        0.08059220226175
H            1.93083105079605        0.09841133065077        0.29791234409052
H            0.63136100958622       -2.60797601468451        0.00019195318533
H            0.85632266357788       -2.74599321985284       -1.74588455735574
H            2.15803896513514       -2.10363528900261       -0.73043999339424
H           -1.35356445193855        0.14007847172057       -1.30629688858060
H           -1.18181792785741       -1.44873990123796       -2.07823357271153
H           -1.36950130194042       -1.32994270516475       -0.32361777253152
H            2.24472044963528       -0.14673387066189       -2.10297976741078
H            0.92573885391527       -0.78477346113931       -3.11055516897062
H            1.90722751105743        1.28942517121954       -4.09762453295041

          :  Hamiltonian                  GFN2-xTB          :
         :: total energy             -27.462824281484 Eh    ::
         :: gradient norm              0.000665920743 Eh/a0 ::
         :: HOMO-LUMO gap              5.151699015220 eV    ::
         :: SCC energy               -27.770201061641 Eh    ::
         :: -> dispersion             -0.012435460817 Eh    ::
         :: repulsion energy           0.307376780157 Eh    ::

    * Orbital Energies and Occupations

         #    Occupation            Energy/Eh            Energy/eV
      -------------------------------------------------------------
         1        2.0000           -0.9121428             -24.8207
       ...           ...                  ...                  ...
        12        2.0000           -0.7342451             -19.9798
        13        2.0000           -0.7264968             -19.7690
        14        2.0000           -0.7092998             -19.3010
        15        2.0000           -0.6848715             -18.6363
        16        2.0000           -0.6793102             -18.4850
        17        2.0000           -0.6731465             -18.3172
        18        2.0000           -0.6703454             -18.2410
        19        2.0000           -0.6621638             -18.0184
        20        2.0000           -0.6553501             -17.8330
        21        2.0000           -0.6521315             -17.7454
        22        2.0000           -0.6509813             -17.7141
        23        2.0000           -0.6338951             -17.2492
        24        2.0000           -0.5880081             -16.0005 (HOMO)
        25                         -0.3986867             -10.8488 (LUMO)
        26                         -0.2494646              -6.7883
        27                         -0.1816200              -4.9421
        28                         -0.1716025              -4.6695
        29                         -0.1621292              -4.4118
        30                         -0.1062458              -2.8911
        31                         -0.0893336              -2.4309
        32                         -0.0618172              -1.6821
        33                         -0.0117606              -0.3200
        34                          0.0090772               0.2470
        35                          0.0103832               0.2825
       ...                                ...                  ...
        44                          0.4949098              13.4672
      -------------------------------------------------------------
                  HL-Gap            0.1893215 Eh            5.1517 eV

     #   Z          covCN         q      C6AA      α(0)
     1   6 C        3.720    -0.109    22.708     6.806
     2   7 N        3.622     0.157    18.591     6.404
     3   6 C        3.727    -0.103    22.572     6.783
     4   6 C        3.720    -0.109    22.713     6.807
     5   6 C        3.762    -0.083    22.121     6.704
     6   6 C        2.683     0.366    20.795     7.463
     7   8 O        1.660    -0.317    19.302     5.931
     8   8 O        0.856    -0.338    20.472     6.066
     9   1 H        0.925     0.107     1.722     2.052
    10   1 H        0.925     0.129     1.543     1.943
    11   1 H        0.925     0.098     1.807     2.102
    12   1 H        0.925     0.110     1.696     2.037
    13   1 H        0.925     0.101     1.777     2.085
    14   1 H        0.925     0.101     1.776     2.084
    15   1 H        0.925     0.129     1.541     1.942
    16   1 H        0.925     0.098     1.805     2.101
    17   1 H        0.925     0.107     1.722     2.052
    18   1 H        0.924     0.104     1.749     2.068
    19   1 H        0.924     0.105     1.744     2.065
    20   1 H        0.805     0.347     0.596     1.212

Wiberg/Mayer (AO) data.
largest (>0.10) Wiberg bond orders for each atom

     #   Z sym  total        # sym  WBO       # sym  WBO       # sym  WBO
 ---------------------------------------------------------------------------
     1   6 C    3.911 --    11 H    0.976     9 H    0.973    10 H    0.964
                             2 N    0.949
     2   7 N    3.821 --     5 C    0.956     3 C    0.954     1 C    0.949
                             4 C    0.949
     3   6 C    3.923 --    13 H    0.975    14 H    0.975    12 H    0.972
                             2 N    0.954
     4   6 C    3.910 --    16 H    0.976    17 H    0.973    15 H    0.963
                             2 N    0.949
     5   6 C    3.946 --     2 N    0.956    18 H    0.954    19 H    0.953
                             6 C    0.929
     6   6 C    3.936 --     8 O    1.790     7 O    1.190     5 C    0.929
     7   8 O    2.279 --     6 C    1.190    20 H    0.856     8 O    0.180
     8   8 O    2.110 --     6 C    1.790     7 O    0.180
     9   1 H    0.989 --     1 C    0.973
    10   1 H    0.983 --     1 C    0.964
    11   1 H    0.990 --     1 C    0.976
    12   1 H    0.987 --     3 C    0.972
    13   1 H    0.990 --     3 C    0.975
    14   1 H    0.990 --     3 C    0.975
    15   1 H    0.983 --     4 C    0.963
    16   1 H    0.990 --     4 C    0.976
    17   1 H    0.989 --     4 C    0.973
    18   1 H    0.989 --     5 C    0.954
    19   1 H    0.989 --     5 C    0.953
    20   1 H    0.880 --     7 O    0.856
 ---------------------------------------------------------------------------

molecular dipole:
                 x           y           z       tot (Debye)
 q only:        1.882      -2.142      -2.643
   full:        2.189      -2.475      -2.826      11.051

           -------------------------------------------------
          | TOTAL ENERGY              -27.462824281484 Eh   |
          | GRADIENT NORM               0.000665920743 Eh/α |
          | HOMO-LUMO GAP               5.151699015220 eV   |
           -------------------------------------------------

 * finished run on 2024/12/20 at 02:12:47.204
