   * xtb version 6.7.1 (edcfbbe) compiled by 'conda@3ef47c1a292c' on 2024-11-25

   ID    Z sym.   atoms
    1    6 C      1-7, 9-11, 13-15, 17-21, 23-31, 33-36, 39-42, 45-48
    2    7 N      8, 16, 22, 32
    3   17 Cl     12, 43, 44, 51
    4    8 O      37, 38, 49, 50
    5    1 H      52-102

          program call               : xtb C0257.xyz --opt --namespace C0257 --charge +1
          :  Hamiltonian                  GFN2-xTB          :
 * total energy  :  -155.4293227 Eh     change       -0.6674952E-08 Eh
 * total energy  :  -155.4524693 Eh     change       -0.2314659E-01 Eh
 * total energy  :  -155.4633695 Eh     change       -0.1090017E-01 Eh
 * total energy  :  -155.4686127 Eh     change       -0.5243196E-02 Eh
 * total energy  :  -155.4728277 Eh     change       -0.4215019E-02 Eh
 * total energy  :  -155.4757100 Eh     change       -0.2882358E-02 Eh
 * total energy  :  -155.4780460 Eh     change       -0.2335975E-02 Eh
 * total energy  :  -155.4799521 Eh     change       -0.1906068E-02 Eh
 * total energy  :  -155.4814939 Eh     change       -0.1541825E-02 Eh
 * total energy  :  -155.4827591 Eh     change       -0.1265183E-02 Eh
 * total energy  :  -155.5011623 Eh     change       -0.3051051E-04 Eh
 * total energy  :  -155.5011780 Eh     change       -0.1575433E-04 Eh
 * total energy  :  -155.5011898 Eh     change       -0.1178076E-04 Eh
 * total energy  :  -155.5012022 Eh     change       -0.1238966E-04 Eh
 * total energy  :  -155.5012120 Eh     change       -0.9827913E-05 Eh
 * total energy  :  -155.5012179 Eh     change       -0.5893327E-05 Eh
 * total energy  :  -155.5012231 Eh     change       -0.5228847E-05 Eh
 * total energy  :  -155.5012286 Eh     change       -0.5457871E-05 Eh
 * total energy  :  -155.5012333 Eh     change       -0.4719038E-05 Eh
   *** GEOMETRY OPTIMIZATION CONVERGED AFTER 85 ITERATIONS ***

 final structure:
================
102
 xtb: 6.7.1 (edcfbbe)
C            0.17941294915103        1.07869142251962        1.10757417770621
C            0.62771199746188        0.90947995668226       -0.33884063251958
C            1.42579216955060       -0.37419753916304       -0.57261861062331
C            0.66541280214162       -1.67401728035173       -0.29486087267064
C           -0.65287199594241       -1.83706118701835       -1.05632216534339
C           -0.52967343757618       -1.71794586077175       -2.57635929075425
C            0.21565209052111       -2.89163643892003       -3.22343246386012
N           -0.62522242609599       -4.05128320171208       -3.39709714219821
C           -0.58512594210240       -5.16579242861900       -2.58811614947194
C            0.12382861827444       -5.44172502551529       -1.43158676602009
C           -0.05748623921212       -6.68613715187432       -0.84592152813212
Cl           0.80055372257082       -7.06082001413342        0.59544240049475
C           -0.92459268402616       -7.63553081378821       -1.40720065162303
C           -1.63518689490647       -7.36017268180050       -2.56647039755473
C           -1.45690106863363       -6.11607206011360       -3.14751621535607
N           -2.00561509048834       -5.55114057324263       -4.27422898625880
C           -1.51099481323842       -4.27909458926083       -4.41427600521798
C           -1.94340263351103       -3.44126020332646       -5.43676034175101
C           -1.55950807195785       -2.16565142743677       -5.81799310219743
C           -2.11490061054143       -1.60678340997246       -6.95798527001660
C           -1.80743129047016       -0.43891976826616       -7.64982574496125
N           -1.02695438415562        0.62015198323396       -7.27819635252117
C           -0.43470315307518        0.84274173437683       -5.98139199408056
C            0.95440550285963        0.20184568977885       -5.84428746831407
C            2.10019468198844        1.07538488671490       -6.35770943049774
C            2.34317584212452        2.35297580099182       -5.54945621680961
C            2.58240679618983        2.14385614901675       -4.05146733003851
C            3.73687945628101        1.20283028395401       -3.70279606888019
C            5.08557469247665        1.69754112655477       -4.21048132581640
C           -0.97426370618413        1.51805537906229       -8.32182426819258
C           -1.76233805773620        0.99285584210461       -9.36064797599097
N           -2.27894779535837       -0.20077428507568       -8.91489759199061
C           -3.19358863842161       -1.00589382887488       -9.69254713149946
C           -2.49529746951662       -1.97506051463988      -10.65462327285385
C           -1.75583570763648       -3.12243754270189       -9.96809077484897
C           -2.63986328457063       -4.04692770561316       -9.15366891381646
O           -2.22749301668941       -4.69703875571486       -8.22195019611843
O           -3.89890130944043       -4.06535534419068       -9.54809333207084
C           -1.91059964064800        1.66517022222490      -10.56216468993923
C           -1.25763808814161        2.88106081591716      -10.70267315208540
C           -0.47909787207977        3.41044909008398       -9.66231731812783
C           -0.32981020064475        2.73546823801142       -8.45958435723582
Cl           0.31149032655609        4.92201125925935       -9.87247024445520
Cl          -1.40984909076452        3.74683846033773      -12.17917331127859
C           -2.82136717474576       -6.29217475901636       -5.21121475570920
C           -4.30464759231849       -6.32566727862824       -4.82511784487205
C           -4.99726134125337       -4.96654933053355       -4.93351909603649
C           -5.10075406727333       -4.49119001071380       -6.36596829887759
O           -5.00437982304139       -5.20508111868341       -7.32664149853429
O           -5.31551637541013       -3.17625446525837       -6.53110740733364
Cl          -1.11797565783019       -9.16631822837706       -0.65042076350169
H           -0.53318906867429        0.30909483088588        1.39283463788187
H           -0.29722012584119        2.04648164128789        1.24246572823620
H            1.03333082961357        1.02296040388979        1.77824099780750
H           -0.24466272344471        0.93627997419887       -0.99567984313366
H            1.26383635474804        1.75504162823179       -0.61120409263245
H            1.79627682138962       -0.37965682759968       -1.60100252916266
H            2.30195625426290       -0.35812217957708        0.07902977062629
H            1.33687493288956       -2.50473920418257       -0.52444422949781
H            0.44337282593615       -1.73628086321529        0.77079989501711
H           -1.08692887543649       -2.80775041919573       -0.80451371831711
H           -1.35144723211281       -1.07325739708724       -0.71261952473351
H           -1.53190037387699       -1.65787382930891       -3.00677013342742
H           -0.00764831792096       -0.79246539297699       -2.81887355514387
H            0.61724453695496       -2.61352496449750       -4.20084706400872
H            1.05717982120049       -3.18671732854846       -2.59675828042501
H            0.79450730857571       -4.73460257304365       -0.97485837309243
H           -2.29467607992390       -8.10307494179348       -2.98150966702104
H           -2.65603197604991       -3.90488346990937       -6.09804014794229
H           -0.81553196836823       -1.62967203956506       -5.26194689442537
H           -2.84050262403649       -2.22965493102892       -7.45559974258298
H           -0.36316862215834        1.92064936154033       -5.83223791611304
H           -1.12176701498532        0.44954967347549       -5.22805140494482
H            1.13287716209650       -0.02629198613490       -4.79323447928719
H            0.96275977074865       -0.73950528211778       -6.39868801978648
H            3.01006420251649        0.47410132798930       -6.34306226678109
H            1.91154604513308        1.34463762886547       -7.39913891842134
H            3.20791971348681        2.85892185579371       -5.97964689154410
H            1.49564148951558        3.03481058050259       -5.65698702963871
H            2.79029246187487        3.12088081789351       -3.61013310206725
H            1.66696232958641        1.77327155389558       -3.58221920036758
H            3.78233660673000        1.11573200120106       -2.61452428268965
H            3.54322652791497        0.20414064362741       -4.10076822908898
H            5.27736067237805        2.70715630893224       -3.85558656813222
H            5.88214019559884        1.05211419415061       -3.84882623440226
H            5.12199922801007        1.70103026634456       -5.29667352859713
H           -3.86069948563342       -1.55353792177470       -9.02607624272600
H           -3.80685913424199       -0.31454652423245      -10.27527473359526
H           -3.26035998367502       -2.39131373913124      -11.30976947274217
H           -1.78413165001698       -1.41833718124728      -11.26717546966179
H           -1.28443055137529       -3.74506273016836      -10.73288213879775
H           -0.96135985489859       -2.75859219235670       -9.31426049066140
H           -4.44178773618860       -4.64209473954891       -8.95743585849733
H           -2.50277143620213        1.27713278691404      -11.37322037958835
H            0.27541257919124        3.16659646989775       -7.68106489148677
H           -2.69036521473634       -5.88612561767635       -6.21596693850878
H           -2.44307715344903       -7.31702910317813       -5.22241988627769
H           -4.80454334698118       -7.02557355096546       -5.49471510205375
H           -4.40535255283851       -6.69191051890712       -3.80259574633752
H           -6.01941375821386       -5.05623314908632       -4.55233437211460
H           -4.47827024292113       -4.21783725664166       -4.32893439248935
H           -5.43715656873129       -2.69752961245315       -5.70098090607354

          :  Hamiltonian                  GFN2-xTB          :
         :: total energy            -155.501233307884 Eh    ::
         :: gradient norm              0.000523718530 Eh/a0 ::
         :: HOMO-LUMO gap              1.664204025490 eV    ::
         :: SCC energy              -157.477663481974 Eh    ::
         :: -> dispersion             -0.131113334144 Eh    ::
         :: repulsion energy           1.976430174090 Eh    ::

    * Orbital Energies and Occupations

         #    Occupation            Energy/Eh            Energy/eV
      -------------------------------------------------------------
         1        2.0000           -1.1355008             -30.8985
       ...           ...                  ...                  ...
       127        2.0000           -0.5021578             -13.6644
       128        2.0000           -0.5003674             -13.6157
       129        2.0000           -0.5000303             -13.6065
       130        2.0000           -0.4994954             -13.5920
       131        2.0000           -0.4992878             -13.5863
       132        2.0000           -0.4989073             -13.5760
       133        2.0000           -0.4970223             -13.5247
       134        2.0000           -0.4961014             -13.4996
       135        2.0000           -0.4915004             -13.3744
       136        2.0000           -0.4910178             -13.3613
       137        2.0000           -0.4880008             -13.2792
       138        2.0000           -0.4794026             -13.0452
       139        2.0000           -0.4481599             -12.1951 (HOMO)
       140                         -0.3870015             -10.5308 (LUMO)
       141                         -0.3455779              -9.4037
       142                         -0.3432160              -9.3394
       143                         -0.3291185              -8.9558
       144                         -0.3284075              -8.9364
       145                         -0.3282454              -8.9320
       146                         -0.3130068              -8.5173
       147                         -0.2861870              -7.7875
       148                         -0.2320181              -6.3135
       149                         -0.2280865              -6.2065
       150                         -0.2276876              -6.1957
       ...                                ...                  ...
       275                          0.5759726              15.6730
      -------------------------------------------------------------
                  HL-Gap            0.0611584 Eh            1.6642 eV

     #   Z          covCN         q      C6AA      α(0)
     1   6 C        3.752    -0.106    22.583     6.777
     2   6 C        3.799    -0.053    21.526     6.606
     3   6 C        3.800    -0.060    21.660     6.626
     4   6 C        3.800    -0.061    21.665     6.627
     5   6 C        3.800    -0.063    21.717     6.635
     6   6 C        3.801    -0.065    21.738     6.638
     7   6 C        3.740    -0.014    20.899     6.523
     8   7 N        2.814    -0.020    21.632     6.908
     9   6 C        3.068     0.038    27.081     8.533
    10   6 C        2.954    -0.059    29.474     8.905
    11   6 C        2.922     0.086    26.090     8.376
    12  17 Cl       0.999    -0.112   102.652    15.500
    13   6 C        2.922     0.087    26.071     8.373
    14   6 C        2.952    -0.060    29.494     8.908
    15   6 C        3.068     0.037    27.100     8.536
    16   7 N        2.819    -0.021    21.650     6.911
    17   6 C        3.022     0.107    25.603     8.300
    18   6 C        2.912    -0.101    30.554     9.064
    19   6 C        2.892    -0.025    28.633     8.773
    20   6 C        2.912    -0.100    30.526     9.060
    21   6 C        3.024     0.107    25.612     8.301
    22   7 N        2.815    -0.020    21.631     6.908
    23   6 C        3.739    -0.014    20.901     6.523
    24   6 C        3.800    -0.064    21.732     6.637
    25   6 C        3.800    -0.065    21.740     6.639
    26   6 C        3.800    -0.061    21.667     6.628
    27   6 C        3.800    -0.060    21.650     6.625
    28   6 C        3.799    -0.053    21.523     6.606
    29   6 C        3.752    -0.106    22.588     6.778
    30   6 C        3.069     0.038    27.073     8.532
    31   6 C        3.069     0.038    27.089     8.534
    32   7 N        2.819    -0.021    21.644     6.910
    33   6 C        3.739    -0.017    20.963     6.533
    34   6 C        3.801    -0.069    21.820     6.651
    35   6 C        3.802    -0.095    22.310     6.725
    36   6 C        2.687     0.363    20.843     7.472
    37   8 O        0.856    -0.445    22.591     6.372
    38   8 O        1.657    -0.377    20.403     6.098
    39   6 C        2.953    -0.060    29.482     8.906
    40   6 C        2.922     0.087    26.064     8.372
    41   6 C        2.922     0.086    26.090     8.376
    42   6 C        2.954    -0.060    29.481     8.906
    43  17 Cl       1.000    -0.111   102.627    15.499
    44  17 Cl       0.999    -0.110   102.580    15.495
    45   6 C        3.740    -0.027    21.133     6.559
    46   6 C        3.802    -0.069    21.812     6.649
    47   6 C        3.801    -0.103    22.465     6.748
    48   6 C        2.688     0.362    20.852     7.473
    49   8 O        0.857    -0.372    21.124     6.162
    50   8 O        1.659    -0.371    20.288     6.081
    51  17 Cl       0.999    -0.111   102.618    15.498
    52   1 H        0.925     0.036     2.510     2.477
    53   1 H        0.925     0.038     2.482     2.464
    54   1 H        0.925     0.041     2.439     2.442
    55   1 H        0.924     0.024     2.675     2.558
    56   1 H        0.924     0.032     2.553     2.499
    57   1 H        0.924     0.023     2.684     2.562
    58   1 H        0.924     0.041     2.442     2.444
    59   1 H        0.924     0.024     2.670     2.555
    60   1 H        0.924     0.047     2.355     2.400
    61   1 H        0.924     0.033     2.544     2.494
    62   1 H        0.924     0.048     2.347     2.396
    63   1 H        0.924     0.036     2.499     2.472
    64   1 H        0.925     0.051     2.309     2.376
    65   1 H        0.924     0.061     2.185     2.312
    66   1 H        0.925     0.078     2.004     2.214
    67   1 H        0.926     0.083     1.946     2.182
    68   1 H        0.926     0.083     1.943     2.180
    69   1 H        0.926     0.067     2.120     2.277
    70   1 H        0.926     0.050     2.318     2.381
    71   1 H        0.926     0.056     2.247     2.344
    72   1 H        0.924     0.077     2.010     2.217
    73   1 H        0.924     0.060     2.201     2.320
    74   1 H        0.924     0.049     2.332     2.388
    75   1 H        0.924     0.040     2.444     2.445
    76   1 H        0.924     0.050     2.321     2.383
    77   1 H        0.924     0.036     2.504     2.475
    78   1 H        0.924     0.048     2.344     2.394
    79   1 H        0.924     0.023     2.687     2.563
    80   1 H        0.924     0.040     2.447     2.446
    81   1 H        0.924     0.021     2.715     2.577
    82   1 H        0.924     0.032     2.556     2.500
    83   1 H        0.924     0.024     2.675     2.558
    84   1 H        0.925     0.040     2.442     2.444
    85   1 H        0.925     0.038     2.475     2.460
    86   1 H        0.925     0.036     2.497     2.471
    87   1 H        0.924     0.079     1.987     2.204
    88   1 H        0.924     0.074     2.038     2.233
    89   1 H        0.925     0.080     1.980     2.201
    90   1 H        0.924     0.058     2.225     2.333
    91   1 H        0.924     0.086     1.921     2.167
    92   1 H        0.924     0.065     2.146     2.291
    93   1 H        0.802     0.365     0.555     1.171
    94   1 H        0.926     0.084     1.939     2.177
    95   1 H        0.926     0.086     1.923     2.169
    96   1 H        0.924     0.107     1.727     2.055
    97   1 H        0.924     0.078     1.997     2.210
    98   1 H        0.925     0.082     1.956     2.187
    99   1 H        0.924     0.061     2.190     2.314
   100   1 H        0.924     0.084     1.941     2.179
   101   1 H        0.924     0.058     2.221     2.331
   102   1 H        0.805     0.328     0.643     1.259

Wiberg/Mayer (AO) data.
largest (>0.10) Wiberg bond orders for each atom

     #   Z sym  total        # sym  WBO       # sym  WBO       # sym  WBO
 ---------------------------------------------------------------------------
     1   6 C    3.996 --     2 C    1.020    54 H    0.987    53 H    0.987
                            52 H    0.986
     2   6 C    3.998 --     1 C    1.020     3 C    1.008    56 H    0.978
                            55 H    0.976
     3   6 C    3.997 --     2 C    1.008     4 C    1.007    58 H    0.976
                            57 H    0.974
     4   6 C    3.996 --     5 C    1.008     3 C    1.007    60 H    0.974
                            59 H    0.971
     5   6 C    3.994 --     4 C    1.008     6 C    1.007    61 H    0.976
                            62 H    0.973
     6   6 C    3.990 --     5 C    1.007     7 C    0.991    63 H    0.974
                            64 H    0.967
     7   6 C    3.954 --     6 C    0.991     8 N    0.981    66 H    0.960
                            65 H    0.960
     8   7 N    3.572 --    17 C    1.197     9 C    1.136     7 C    0.981
     9   6 C    3.961 --    10 C    1.361    15 C    1.253     8 N    1.136
    10   6 C    3.967 --    11 C    1.412     9 C    1.361    67 H    0.955
    11   6 C    3.915 --    10 C    1.412    13 C    1.324    12 Cl   1.016
    12  17 Cl   1.165 --    11 C    1.016
    13   6 C    3.916 --    14 C    1.413    11 C    1.324    51 Cl   1.017
    14   6 C    3.967 --    13 C    1.413    15 C    1.358    68 H    0.959
    15   6 C    3.963 --    14 C    1.358     9 C    1.253    16 N    1.143
    16   7 N    3.571 --    17 C    1.191    15 C    1.143    45 C    0.979
    17   6 C    3.916 --    18 C    1.322     8 N    1.197    16 N    1.191
    18   6 C    3.935 --    19 C    1.418    17 C    1.322    69 H    0.939
    19   6 C    3.961 --    20 C    1.420    18 C    1.418    70 H    0.950
    20   6 C    3.935 --    19 C    1.420    21 C    1.316    71 H    0.944
    21   6 C    3.916 --    20 C    1.316    22 N    1.200    32 N    1.194
    22   7 N    3.573 --    21 C    1.200    30 C    1.135    23 C    0.981
    23   6 C    3.954 --    24 C    0.989    22 N    0.981    73 H    0.963
                            72 H    0.960
    24   6 C    3.990 --    25 C    1.007    23 C    0.989    75 H    0.974
                            74 H    0.967
    25   6 C    3.994 --    26 C    1.008    24 C    1.007    77 H    0.975
                            76 H    0.972
    26   6 C    3.996 --    25 C    1.008    27 C    1.007    78 H    0.974
                            79 H    0.971
    27   6 C    3.997 --    28 C    1.008    26 C    1.007    80 H    0.976
                            81 H    0.975
    28   6 C    3.998 --    29 C    1.020    27 C    1.008    82 H    0.977
                            83 H    0.976
    29   6 C    3.996 --    28 C    1.020    84 H    0.987    85 H    0.987
                            86 H    0.986
    30   6 C    3.961 --    42 C    1.360    31 C    1.254    22 N    1.135
    31   6 C    3.962 --    39 C    1.358    30 C    1.254    32 N    1.142
    32   7 N    3.574 --    21 C    1.194    31 C    1.142    33 C    0.980
    33   6 C    3.954 --    34 C    0.992    32 N    0.980    88 H    0.963
                            87 H    0.958
    34   6 C    3.986 --    35 C    1.008    33 C    0.992    90 H    0.974
                            89 H    0.968
    35   6 C    3.993 --    34 C    1.008    36 C    0.973    92 H    0.966
                            91 H    0.943
    36   6 C    3.919 --    37 O    1.713    38 O    1.193    35 C    0.973
    37   8 O    2.005 --    36 C    1.713    38 O    0.181
    38   8 O    2.227 --    36 C    1.193    93 H    0.797    37 O    0.181
    39   6 C    3.967 --    40 C    1.414    31 C    1.358    94 H    0.959
    40   6 C    3.917 --    39 C    1.414    41 C    1.323    44 Cl   1.018
    41   6 C    3.915 --    42 C    1.412    40 C    1.323    43 Cl   1.017
    42   6 C    3.967 --    41 C    1.412    30 C    1.360    95 H    0.955
    43  17 Cl   1.165 --    41 C    1.017
    44  17 Cl   1.168 --    40 C    1.018
    45   6 C    3.948 --    46 C    0.996    16 N    0.979    97 H    0.961
                            96 H    0.951
    46   6 C    3.986 --    47 C    1.005    45 C    0.996    99 H    0.974
                            98 H    0.968
    47   6 C    3.995 --    46 C    1.005    48 C    0.980   101 H    0.961
                           100 H    0.942
    48   6 C    3.912 --    49 O    1.761    50 O    1.127    47 C    0.980
    49   8 O    2.092 --    48 C    1.761    50 O    0.158
    50   8 O    2.207 --    48 C    1.127   102 H    0.870    49 O    0.158
    51  17 Cl   1.167 --    13 C    1.017
    52   1 H    0.999 --     1 C    0.986
    53   1 H    0.999 --     1 C    0.987
    54   1 H    0.998 --     1 C    0.987
    55   1 H    0.999 --     2 C    0.976
    56   1 H    0.999 --     2 C    0.978
    57   1 H    0.999 --     3 C    0.974
    58   1 H    0.998 --     3 C    0.976
    59   1 H    0.999 --     4 C    0.971
    60   1 H    0.998 --     4 C    0.974
    61   1 H    0.999 --     5 C    0.976
    62   1 H    0.997 --     5 C    0.973
    63   1 H    0.999 --     6 C    0.974
    64   1 H    0.997 --     6 C    0.967
    65   1 H    0.995 --     7 C    0.960
    66   1 H    0.993 --     7 C    0.960
    67   1 H    0.992 --    10 C    0.955
    68   1 H    0.992 --    14 C    0.959
    69   1 H    0.995 --    18 C    0.939
    70   1 H    0.997 --    19 C    0.950
    71   1 H    0.996 --    20 C    0.944
    72   1 H    0.993 --    23 C    0.960
    73   1 H    0.995 --    23 C    0.963
    74   1 H    0.997 --    24 C    0.967
    75   1 H    0.998 --    24 C    0.974
    76   1 H    0.997 --    25 C    0.972
    77   1 H    0.999 --    25 C    0.975
    78   1 H    0.998 --    26 C    0.974
    79   1 H    0.999 --    26 C    0.971
    80   1 H    0.998 --    27 C    0.976
    81   1 H    1.000 --    27 C    0.975
    82   1 H    0.999 --    28 C    0.977
    83   1 H    0.999 --    28 C    0.976
    84   1 H    0.998 --    29 C    0.987
    85   1 H    0.999 --    29 C    0.987
    86   1 H    0.999 --    29 C    0.986
    87   1 H    0.993 --    33 C    0.958
    88   1 H    0.992 --    33 C    0.963
    89   1 H    0.993 --    34 C    0.968
    90   1 H    0.997 --    34 C    0.974
    91   1 H    0.992 --    35 C    0.943
    92   1 H    0.996 --    35 C    0.966
    93   1 H    0.867 --    38 O    0.797
    94   1 H    0.992 --    39 C    0.959
    95   1 H    0.992 --    42 C    0.955
    96   1 H    0.988 --    45 C    0.951
    97   1 H    0.992 --    45 C    0.961
    98   1 H    0.992 --    46 C    0.968
    99   1 H    0.996 --    46 C    0.974
   100   1 H    0.993 --    47 C    0.942
   101   1 H    0.997 --    47 C    0.961
   102   1 H    0.892 --    50 O    0.870
 ---------------------------------------------------------------------------

molecular dipole:
                 x           y           z       tot (Debye)
 q only:       -3.644      -3.557     -10.294
   full:       -3.533      -3.425      -9.985      28.294

           -------------------------------------------------
          | TOTAL ENERGY             -155.501233307884 Eh   |
          | GRADIENT NORM               0.000523718530 Eh/α |
          | HOMO-LUMO GAP               1.664204025490 eV   |
           -------------------------------------------------

 * finished run on 2024/12/20 at 02:12:44.298
