   * xtb version 6.7.1 (edcfbbe) compiled by 'conda@3ef47c1a292c' on 2024-11-25

   ID    Z sym.   atoms
    1    6 C      1, 3, 5-10
    2    7 N      2, 4
    3    1 H      11-19

          program call               : xtb C0253.xyz --opt --namespace C0253 --charge +1
          :  Hamiltonian                  GFN2-xTB          :
 * total energy  :   -27.0669480 Eh     change       -0.1175628E-08 Eh
 * total energy  :   -27.0996681 Eh     change       -0.3272004E-01 Eh
 * total energy  :   -27.1014894 Eh     change       -0.1821292E-02 Eh
 * total energy  :   -27.1017435 Eh     change       -0.2541646E-03 Eh
 * total energy  :   -27.1018254 Eh     change       -0.8189838E-04 Eh
 * total energy  :   -27.1018839 Eh     change       -0.5845320E-04 Eh
 * total energy  :   -27.1019510 Eh     change       -0.6711316E-04 Eh
 * total energy  :   -27.1019919 Eh     change       -0.4089914E-04 Eh
 * total energy  :   -27.1020510 Eh     change       -0.5909169E-04 Eh
 * total energy  :   -27.1020867 Eh     change       -0.3576854E-04 Eh
 * total energy  :   -27.1021029 Eh     change       -0.1616276E-04 Eh
 * total energy  :   -27.1021054 Eh     change       -0.2532067E-05 Eh
 * total energy  :   -27.1021070 Eh     change       -0.1531924E-05 Eh
 * total energy  :   -27.1021077 Eh     change       -0.6876628E-06 Eh
   *** GEOMETRY OPTIMIZATION CONVERGED AFTER 14 ITERATIONS ***

 final structure:
================
19
 xtb: 6.7.1 (edcfbbe)
C            1.10216146260523        0.10042107111509        0.05747633782285
N           -0.02587853386067        0.25088429869669        0.10207743540729
C            2.54455914230854       -0.08088292482548       -0.03210854311442
N            3.06497901190870        0.55858364600844       -1.23438168630723
C            3.14212976844217        1.90585461795042       -1.30528023009864
C            3.61524012133043        2.48453073445637       -2.47907779603918
C            3.98904512320419        1.70267434164303       -3.55611361385475
C            3.88568401679351        0.31845383803307       -3.44756113576119
C            3.41860151069269       -0.21863722560466       -2.27337466114615
C            2.73121684728952        2.73601850779052       -0.14767797513310
H            3.01117189122673        0.34186613320853        0.86416058253268
H            2.75461753265231       -1.15438584717000       -0.05865625656020
H            3.68157896779261        3.55945325464984       -2.53626901391711
H            4.35174781702852        2.15743201675789       -4.46448859586002
H            4.16220543592438       -0.33100792756908       -4.26191270447008
H            3.31898361251922       -1.28678597827828       -2.14779377936438
H            1.70610346266662        2.51986306416827        0.15479493604675
H            3.37679832797392        2.55932415190776        0.71461612756874
H            2.79649448150133        3.79053022706173       -0.39949942775187

          :  Hamiltonian                  GFN2-xTB          :
         :: total energy             -27.102107656198 Eh    ::
         :: gradient norm              0.000167707243 Eh/a0 ::
         :: HOMO-LUMO gap              3.139498037062 eV    ::
         :: SCC energy               -27.603093735693 Eh    ::
         :: -> dispersion             -0.014801324479 Eh    ::
         :: repulsion energy           0.500986079495 Eh    ::

    * Orbital Energies and Occupations

         #    Occupation            Energy/Eh            Energy/eV
      -------------------------------------------------------------
         1        2.0000           -0.8942314             -24.3333
       ...           ...                  ...                  ...
        13        2.0000           -0.7042226             -19.1629
        14        2.0000           -0.6954065             -18.9230
        15        2.0000           -0.6882733             -18.7289
        16        2.0000           -0.6769331             -18.4203
        17        2.0000           -0.6657372             -18.1156
        18        2.0000           -0.6472098             -17.6115
        19        2.0000           -0.6461852             -17.5836
        20        2.0000           -0.6400720             -17.4172
        21        2.0000           -0.6332869             -17.2326
        22        2.0000           -0.6308847             -17.1672
        23        2.0000           -0.6239757             -16.9792
        24        2.0000           -0.6090225             -16.5723
        25        2.0000           -0.5846362             -15.9088 (HOMO)
        26                         -0.4692618             -12.7693 (LUMO)
        27                         -0.4350166             -11.8374
        28                         -0.3802140             -10.3462
        29                         -0.3669765              -9.9859
        30                         -0.3167457              -8.6191
        31                         -0.1821827              -4.9574
        32                         -0.1014868              -2.7616
        33                         -0.0670267              -1.8239
        34                         -0.0579312              -1.5764
        35                         -0.0539581              -1.4683
        36                         -0.0353690              -0.9624
       ...                                ...                  ...
        49                          0.9866679              26.8486
      -------------------------------------------------------------
                  HL-Gap            0.1153744 Eh            3.1395 eV

     #   Z          covCN         q      C6AA      α(0)
     1   6 C        1.896     0.110    28.383     8.604
     2   7 N        0.911    -0.138    23.992     7.084
     3   6 C        3.759    -0.021    21.002     6.533
     4   7 N        2.757     0.088    19.721     6.596
     5   6 C        2.923     0.095    25.897     8.345
     6   6 C        2.921    -0.022    28.561     8.764
     7   6 C        2.922     0.014    27.693     8.630
     8   6 C        2.915    -0.013    28.348     8.731
     9   6 C        2.883     0.032    27.291     8.564
    10   6 C        3.758    -0.141    23.261     6.876
    11   1 H        0.924     0.126     1.563     1.955
    12   1 H        0.924     0.123     1.593     1.973
    13   1 H        0.926     0.108     1.711     2.046
    14   1 H        0.926     0.111     1.691     2.034
    15   1 H        0.926     0.111     1.684     2.029
    16   1 H        0.926     0.107     1.725     2.054
    17   1 H        0.924     0.106     1.730     2.057
    18   1 H        0.924     0.102     1.769     2.080
    19   1 H        0.925     0.102     1.762     2.076

Wiberg/Mayer (AO) data.
largest (>0.10) Wiberg bond orders for each atom

     #   Z sym  total        # sym  WBO       # sym  WBO       # sym  WBO
 ---------------------------------------------------------------------------
     1   6 C    3.955 --     2 N    2.894     3 C    1.015
     2   7 N    3.046 --     1 C    2.894
     3   6 C    3.949 --     1 C    1.015     4 N    0.963    12 H    0.936
                            11 H    0.927
     4   7 N    3.740 --     9 C    1.298     5 C    1.283     3 C    0.963
     5   6 C    3.955 --     6 C    1.396     4 N    1.283    10 C    1.057
     6   6 C    3.982 --     7 C    1.457     5 C    1.396    13 H    0.957
     7   6 C    3.966 --     6 C    1.457     8 C    1.388    14 H    0.960
     8   6 C    3.981 --     9 C    1.492     7 C    1.388    15 H    0.958
     9   6 C    3.958 --     8 C    1.492     4 N    1.298    16 H    0.954
    10   6 C    3.977 --     5 C    1.057    19 H    0.973    17 H    0.942
                            18 H    0.938
    11   1 H    0.984 --     3 C    0.927
    12   1 H    0.985 --     3 C    0.936
    13   1 H    0.988 --     6 C    0.957
    14   1 H    0.988 --     7 C    0.960
    15   1 H    0.987 --     8 C    0.958
    16   1 H    0.988 --     9 C    0.954
    17   1 H    0.989 --    10 C    0.942
    18   1 H    0.990 --    10 C    0.938
    19   1 H    0.989 --    10 C    0.973
 ---------------------------------------------------------------------------

molecular dipole:
                 x           y           z       tot (Debye)
 q only:        6.642       1.982      -2.953
   full:        7.130       1.827      -2.980      20.184

           -------------------------------------------------
          | TOTAL ENERGY              -27.102107656198 Eh   |
          | GRADIENT NORM               0.000167707243 Eh/α |
          | HOMO-LUMO GAP               3.139498037062 eV   |
           -------------------------------------------------

 * finished run on 2024/12/20 at 02:12:15.848
