   * xtb version 6.7.1 (edcfbbe) compiled by 'conda@3ef47c1a292c' on 2024-11-25

   ID    Z sym.   atoms
    1    6 C      1, 2, 5-8, 10-14
    2    8 O      3, 4, 15
    3    7 N      9
    4    1 H      16-31

          program call               : xtb C0255.xyz --opt --namespace C0255 --charge +1
          :  Hamiltonian                  GFN2-xTB          :
 * total energy  :   -46.4491896 Eh     change       -0.4041354E-09 Eh
 * total energy  :   -46.4544536 Eh     change       -0.5264005E-02 Eh
 * total energy  :   -46.4555551 Eh     change       -0.1101450E-02 Eh
 * total energy  :   -46.4557475 Eh     change       -0.1924048E-03 Eh
 * total energy  :   -46.4559500 Eh     change       -0.2025430E-03 Eh
 * total energy  :   -46.4561068 Eh     change       -0.1568013E-03 Eh
 * total energy  :   -46.4563085 Eh     change       -0.2016278E-03 Eh
 * total energy  :   -46.4565433 Eh     change       -0.2347939E-03 Eh
 * total energy  :   -46.4567009 Eh     change       -0.1576156E-03 Eh
 * total energy  :   -46.4567907 Eh     change       -0.8982524E-04 Eh
 * total energy  :   -46.4573580 Eh     change       -0.1708147E-04 Eh
 * total energy  :   -46.4573685 Eh     change       -0.1055260E-04 Eh
 * total energy  :   -46.4573761 Eh     change       -0.7614290E-05 Eh
 * total energy  :   -46.4573832 Eh     change       -0.7116002E-05 Eh
 * total energy  :   -46.4573911 Eh     change       -0.7854603E-05 Eh
 * total energy  :   -46.4573996 Eh     change       -0.8548928E-05 Eh
 * total energy  :   -46.4574073 Eh     change       -0.7622686E-05 Eh
 * total energy  :   -46.4574131 Eh     change       -0.5833815E-05 Eh
 * total energy  :   -46.4574176 Eh     change       -0.4519993E-05 Eh
   *** GEOMETRY OPTIMIZATION CONVERGED AFTER 38 ITERATIONS ***

 final structure:
================
31
 xtb: 6.7.1 (edcfbbe)
C            0.59450717476909       -0.17384778831752        0.18751624516738
C            0.06308537649512        1.10266985456306        0.75306607219558
O           -1.02451408452926        1.57739826049157        0.52002392349938
O            0.94407105984294        1.68431951572234        1.57504344554206
C            0.53093404196207        2.85294714256705        2.27264752846074
C            1.13075128385489        4.13403940930063        1.68376482293805
C            0.90403031952997        4.33594933088304        0.18352267569480
C           -0.56242306052442        4.43892238787005       -0.25904043773775
N           -1.27027683673349        5.51625730486562        0.41212656693926
C           -2.18768857801296        5.23849211752296        1.33599203801002
C           -2.84647812611717        6.25762094961284        2.00584358976182
C           -2.55459803137926        7.57242401377297        1.71297627476296
C           -1.59177502138435        7.85685296918739        0.72873779985811
C           -0.96737672087799        6.78174896722984        0.09957877670114
O           -1.32890561673411        9.12385464688347        0.44793752927525
H            0.26383217205263       -0.29189206063300       -0.84076167224476
H            0.18723326558403       -1.00198734531039        0.76629035760636
H            1.67739290926252       -0.19818152982597        0.25672244402635
H           -0.56336292153509        2.88676018846295        2.27532958056292
H            0.88491285725063        2.73351408302824        3.29935320523313
H            0.73203525189199        4.97674952591779        2.25317407740922
H            2.20931023311717        4.10671458345567        1.84467552038044
H            1.44934375933337        5.23119834702124       -0.12115386151750
H            1.33618210832228        3.49237541180030       -0.35648464156736
H           -0.59112523918278        4.61908927870410       -1.33623773054533
H           -1.07299879901561        3.49400787595875       -0.05416353732813
H           -2.40560450009047        4.19876467079650        1.52619423338865
H           -3.58728491076596        6.01212878717546        2.74928039358383
H           -3.04718960652656        8.39391995160199        2.20816971328020
H           -0.22395456221595        6.93586144206829       -0.67026565859019
H           -0.66872519764678        9.24754770762843       -0.24843927474454

          :  Hamiltonian                  GFN2-xTB          :
         :: total energy             -46.457417616128 Eh    ::
         :: gradient norm              0.000220611329 Eh/a0 ::
         :: HOMO-LUMO gap              2.067139128105 eV    ::
         :: SCC energy               -47.055336874898 Eh    ::
         :: -> dispersion             -0.025943924319 Eh    ::
         :: repulsion energy           0.597919258769 Eh    ::

    * Orbital Energies and Occupations

         #    Occupation            Energy/Eh            Energy/eV
      -------------------------------------------------------------
         1        2.0000           -0.8887171             -24.1832
       ...           ...                  ...                  ...
        29        2.0000           -0.6339621             -17.2510
        30        2.0000           -0.6244123             -16.9911
        31        2.0000           -0.6146049             -16.7243
        32        2.0000           -0.6115012             -16.6398
        33        2.0000           -0.5955738             -16.2064
        34        2.0000           -0.5922554             -16.1161
        35        2.0000           -0.5881946             -16.0056
        36        2.0000           -0.5792694             -15.7627
        37        2.0000           -0.5747455             -15.6396
        38        2.0000           -0.5723291             -15.5739
        39        2.0000           -0.5664341             -15.4135
        40        2.0000           -0.5551071             -15.1052
        41        2.0000           -0.5274768             -14.3534 (HOMO)
        42                         -0.4515109             -12.2862 (LUMO)
        43                         -0.4124103             -11.2223
        44                         -0.3369376              -9.1685
        45                         -0.2969883              -8.0815
        46                         -0.1674012              -4.5552
        47                         -0.1048479              -2.8531
        48                         -0.0991614              -2.6983
        49                         -0.0715685              -1.9475
        50                         -0.0624979              -1.7007
        51                         -0.0494961              -1.3469
        52                         -0.0395576              -1.0764
       ...                                ...                  ...
        76                          0.5307221              14.4417
      -------------------------------------------------------------
                  HL-Gap            0.0759660 Eh            2.0671 eV

     #   Z          covCN         q      C6AA      α(0)
     1   6 C        3.754    -0.154    23.536     6.918
     2   6 C        2.713     0.364    20.819     7.469
     3   8 O        0.856    -0.439    22.478     6.356
     4   8 O        1.705    -0.254    18.206     5.761
     5   6 C        3.698     0.067    19.617     6.335
     6   6 C        3.799    -0.074    21.918     6.666
     7   6 C        3.800    -0.064    21.737     6.638
     8   6 C        3.760    -0.050    21.519     6.613
     9   7 N        2.748     0.118    19.227     6.512
    10   6 C        2.891     0.017    27.629     8.618
    11   6 C        2.914    -0.014    28.364     8.733
    12   6 C        2.923    -0.017    28.433     8.744
    13   6 C        2.839     0.176    24.218     8.065
    14   6 C        2.892    -0.020    28.501     8.753
    15   8 O        1.661    -0.318    19.328     5.935
    16   1 H        0.925     0.091     1.873     2.140
    17   1 H        0.925     0.102     1.770     2.081
    18   1 H        0.925     0.085     1.929     2.172
    19   1 H        0.924     0.054     2.270     2.356
    20   1 H        0.924     0.073     2.056     2.242
    21   1 H        0.924     0.041     2.442     2.444
    22   1 H        0.924     0.077     2.015     2.220
    23   1 H        0.924     0.055     2.254     2.348
    24   1 H        0.924     0.081     1.973     2.196
    25   1 H        0.924     0.090     1.877     2.142
    26   1 H        0.924     0.130     1.536     1.938
    27   1 H        0.926     0.119     1.625     1.994
    28   1 H        0.926     0.112     1.682     2.028
    29   1 H        0.926     0.119     1.618     1.989
    30   1 H        0.925     0.098     1.804     2.100
    31   1 H        0.805     0.338     0.618     1.235

Wiberg/Mayer (AO) data.
largest (>0.10) Wiberg bond orders for each atom

     #   Z sym  total        # sym  WBO       # sym  WBO       # sym  WBO
 ---------------------------------------------------------------------------
     1   6 C    3.986 --     2 C    1.007    18 H    0.977    16 H    0.967
                            17 H    0.942
     2   6 C    3.910 --     3 O    1.707     4 O    1.137     1 C    1.007
     3   8 O    2.017 --     2 C    1.707     4 O    0.166
     4   8 O    2.320 --     2 C    1.137     5 C    0.951     3 O    0.166
     5   6 C    3.933 --     6 C    0.997    20 H    0.967    19 H    0.964
                             4 O    0.951
     6   6 C    3.993 --     7 C    1.010     5 C    0.997    21 H    0.974
                            22 H    0.971
     7   6 C    3.987 --     6 C    1.010     8 C    0.982    23 H    0.973
                            24 H    0.966
     8   6 C    3.922 --     7 C    0.982     9 N    0.959    25 H    0.957
                            26 H    0.938
     9   7 N    3.771 --    10 C    1.350    14 C    1.320     8 C    0.959
    10   6 C    3.957 --    11 C    1.411     9 N    1.350    27 H    0.950
    11   6 C    3.981 --    12 C    1.482    10 C    1.411    28 H    0.958
    12   6 C    3.976 --    11 C    1.482    13 C    1.302    29 H    0.957
    13   6 C    3.953 --    14 C    1.364    12 C    1.302    15 O    1.171
    14   6 C    3.961 --    13 C    1.364     9 N    1.320    30 H    0.954
    15   8 O    2.234 --    13 C    1.171    31 H    0.863
    16   1 H    0.992 --     1 C    0.967
    17   1 H    0.989 --     1 C    0.942
    18   1 H    0.993 --     1 C    0.977
    19   1 H    0.997 --     5 C    0.964
    20   1 H    0.995 --     5 C    0.967
    21   1 H    0.998 --     6 C    0.974
    22   1 H    0.994 --     6 C    0.971
    23   1 H    0.997 --     7 C    0.973
    24   1 H    0.993 --     7 C    0.966
    25   1 H    0.992 --     8 C    0.957
    26   1 H    0.983 --     8 C    0.938
    27   1 H    0.986 --    10 C    0.950
    28   1 H    0.987 --    11 C    0.958
    29   1 H    0.986 --    12 C    0.957
    30   1 H    0.990 --    14 C    0.954
    31   1 H    0.886 --    15 O    0.863
 ---------------------------------------------------------------------------

molecular dipole:
                 x           y           z       tot (Debye)
 q only:       -1.440      10.770       1.326
   full:       -1.257      10.700       1.199      27.554

           -------------------------------------------------
          | TOTAL ENERGY              -46.457417616128 Eh   |
          | GRADIENT NORM               0.000220611329 Eh/α |
          | HOMO-LUMO GAP               2.067139128105 eV   |
           -------------------------------------------------

 * finished run on 2024/12/20 at 02:12:28.795
