   * xtb version 6.7.1 (edcfbbe) compiled by 'conda@3ef47c1a292c' on 2024-11-25

   ID    Z sym.   atoms
    1    6 C      1-5, 7-12
    2    7 N      6
    3    1 H      13-30

          program call               : xtb C0256.xyz --opt --namespace C0256 --charge +1
          :  Hamiltonian                  GFN2-xTB          :
 * total energy  :   -35.2657367 Eh     change       -0.3923262E-09 Eh
 * total energy  :   -35.2681767 Eh     change       -0.2440018E-02 Eh
 * total energy  :   -35.2686015 Eh     change       -0.4247620E-03 Eh
 * total energy  :   -35.2686756 Eh     change       -0.7409027E-04 Eh
 * total energy  :   -35.2687382 Eh     change       -0.6259083E-04 Eh
 * total energy  :   -35.2687736 Eh     change       -0.3546421E-04 Eh
 * total energy  :   -35.2688123 Eh     change       -0.3865267E-04 Eh
 * total energy  :   -35.2688523 Eh     change       -0.4003455E-04 Eh
 * total energy  :   -35.2688843 Eh     change       -0.3199163E-04 Eh
 * total energy  :   -35.2688969 Eh     change       -0.1264429E-04 Eh
 * total energy  :   -35.2689140 Eh     change       -0.1707514E-04 Eh
 * total energy  :   -35.2689350 Eh     change       -0.2099946E-04 Eh
 * total energy  :   -35.2689588 Eh     change       -0.2375302E-04 Eh
 * total energy  :   -35.2689828 Eh     change       -0.2398689E-04 Eh
 * total energy  :   -35.2690015 Eh     change       -0.1871138E-04 Eh
 * total energy  :   -35.2690123 Eh     change       -0.1087401E-04 Eh
 * total energy  :   -35.2690177 Eh     change       -0.5396093E-05 Eh
 * total energy  :   -35.2690213 Eh     change       -0.3542520E-05 Eh
   *** GEOMETRY OPTIMIZATION CONVERGED AFTER 18 ITERATIONS ***

 final structure:
================
30
 xtb: 6.7.1 (edcfbbe)
C            1.18397342087068       -0.13896538631670        0.32285990420335
C            0.81564986469572        0.54383888844489       -0.98863844364767
C            1.07298384997970       -0.33012665174709       -2.21943858440947
C            0.24981655889329       -1.61676648073214       -2.27829263618189
C           -1.26007438926322       -1.39064275491633       -2.44566938095509
N           -1.54886712157376       -0.79249348733260       -3.73681473178240
C           -1.65638126651961       -1.57563485771145       -4.81403303317652
C           -1.85766867932038       -1.02973465129347       -6.06577384075071
C           -1.93983953378846        0.34614578698299       -6.20359040001755
C           -1.82194593822113        1.16203234458068       -5.07570281810013
C           -1.62596589252767        0.53691200388636       -3.85266110414435
C           -1.90042418491993        2.64322418253477       -5.17820326848110
H            0.52187662476815       -0.97243969546077        0.54178116508131
H            1.10842534775441        0.56892220337475        1.14373945898960
H            2.20543574416451       -0.50723597360866        0.28634136257910
H           -0.22901639512639        0.86053403301201       -0.94461024876406
H            1.41886706582239        1.44655617576624       -1.09400234936276
H            0.90612229990228        0.25953042050971       -3.12637414657191
H            2.12603737177912       -0.61496088652989       -2.21700944725979
H            0.60953942978475       -2.23281237701315       -3.10516001413446
H            0.39669789691429       -2.18241111331473       -1.35925067178024
H           -1.78081442464669       -2.34746650972094       -2.37773690464074
H           -1.62885383940649       -0.73533742012995       -1.65642684158296
H           -1.58476522058764       -2.64198183211476       -4.66307710434088
H           -1.94881095960935       -1.67871563986631       -6.92154569329543
H           -2.09599520833923        0.79038825949143       -7.17458335076372
H           -1.53853423809841        1.11648087203829       -2.94558631609822
H           -1.09319808231503        3.01741130193395       -5.80642038214604
H           -2.83593230956993        2.93897224216107       -5.64925585842938
H           -1.83202779149496        3.11679700309271       -4.20387432003703

          :  Hamiltonian                  GFN2-xTB          :
         :: total energy             -35.269021281047 Eh    ::
         :: gradient norm              0.000892190433 Eh/a0 ::
         :: HOMO-LUMO gap              2.369913958884 eV    ::
         :: SCC energy               -35.850879531675 Eh    ::
         :: -> dispersion             -0.023078454261 Eh    ::
         :: repulsion energy           0.581858250628 Eh    ::

    * Orbital Energies and Occupations

         #    Occupation            Energy/Eh            Energy/eV
      -------------------------------------------------------------
         1        2.0000           -0.8718082             -23.7231
       ...           ...                  ...                  ...
        21        2.0000           -0.6254548             -17.0195
        22        2.0000           -0.6237917             -16.9742
        23        2.0000           -0.6163786             -16.7725
        24        2.0000           -0.6137030             -16.6997
        25        2.0000           -0.6095916             -16.5878
        26        2.0000           -0.6039460             -16.4342
        27        2.0000           -0.5927398             -16.1293
        28        2.0000           -0.5853646             -15.9286
        29        2.0000           -0.5808226             -15.8050
        30        2.0000           -0.5721723             -15.5696
        31        2.0000           -0.5508726             -14.9900
        32        2.0000           -0.5417759             -14.7425
        33        2.0000           -0.5367550             -14.6058 (HOMO)
        34                         -0.4496623             -12.2359 (LUMO)
        35                         -0.4163609             -11.3298
        36                         -0.2997463              -8.1565
        37                         -0.1648491              -4.4858
        38                         -0.0791594              -2.1540
        39                         -0.0617721              -1.6809
        40                         -0.0479511              -1.3048
        41                         -0.0374970              -1.0203
        42                         -0.0335411              -0.9127
        43                         -0.0093914              -0.2556
        44                         -0.0071831              -0.1955
       ...                                ...                  ...
        66                          0.4452255              12.1152
      -------------------------------------------------------------
                  HL-Gap            0.0870927 Eh            2.3699 eV

     #   Z          covCN         q      C6AA      α(0)
     1   6 C        3.752    -0.112    22.710     6.796
     2   6 C        3.799    -0.057    21.605     6.618
     3   6 C        3.801    -0.067    21.783     6.645
     4   6 C        3.801    -0.070    21.831     6.652
     5   6 C        3.760    -0.035    21.241     6.570
     6   7 N        2.749     0.109    19.369     6.536
     7   6 C        2.894     0.025    27.435     8.588
     8   6 C        2.913    -0.014    28.373     8.735
     9   6 C        2.930    -0.003    28.109     8.695
    10   6 C        2.961     0.048    26.923     8.511
    11   6 C        2.899     0.018    27.601     8.614
    12   6 C        3.759    -0.133    23.111     6.854
    13   1 H        0.925     0.037     2.491     2.468
    14   1 H        0.925     0.051     2.306     2.375
    15   1 H        0.925     0.048     2.341     2.393
    16   1 H        0.924     0.022     2.704     2.572
    17   1 H        0.924     0.047     2.356     2.400
    18   1 H        0.924     0.025     2.661     2.551
    19   1 H        0.924     0.063     2.159     2.298
    20   1 H        0.924     0.052     2.296     2.370
    21   1 H        0.925     0.084     1.939     2.178
    22   1 H        0.924     0.087     1.909     2.161
    23   1 H        0.925     0.094     1.838     2.120
    24   1 H        0.926     0.104     1.752     2.070
    25   1 H        0.926     0.103     1.760     2.074
    26   1 H        0.926     0.100     1.783     2.088
    27   1 H        0.926     0.105     1.743     2.065
    28   1 H        0.925     0.096     1.820     2.110
    29   1 H        0.925     0.096     1.825     2.113
    30   1 H        0.925     0.077     2.008     2.216

Wiberg/Mayer (AO) data.
largest (>0.10) Wiberg bond orders for each atom

     #   Z sym  total        # sym  WBO       # sym  WBO       # sym  WBO
 ---------------------------------------------------------------------------
     1   6 C    3.994 --     2 C    1.020    15 H    0.986    13 H    0.985
                            14 H    0.985
     2   6 C    3.996 --     1 C    1.020     3 C    1.007    17 H    0.976
                            16 H    0.973
     3   6 C    3.993 --     4 C    1.010     2 C    1.007    18 H    0.973
                            19 H    0.969
     4   6 C    3.982 --     3 C    1.010    20 H    0.974     5 C    0.974
                            21 H    0.961
     5   6 C    3.934 --     4 C    0.974     6 N    0.964    22 H    0.963
                            23 H    0.960
     6   7 N    3.766 --     7 C    1.328    11 C    1.325     5 C    0.964
     7   6 C    3.960 --     8 C    1.448     6 N    1.328    24 H    0.956
     8   6 C    3.983 --     7 C    1.448     9 C    1.441    25 H    0.960
     9   6 C    3.975 --     8 C    1.441    10 C    1.375    26 H    0.962
    10   6 C    3.981 --    11 C    1.412     9 C    1.375    12 C    1.046
    11   6 C    3.958 --    10 C    1.412     6 N    1.325    27 H    0.951
    12   6 C    3.983 --    10 C    1.046    30 H    0.980    29 H    0.954
                            28 H    0.951
    13   1 H    0.999 --     1 C    0.985
    14   1 H    0.997 --     1 C    0.985
    15   1 H    0.998 --     1 C    0.986
    16   1 H    0.999 --     2 C    0.973
    17   1 H    0.998 --     2 C    0.976
    18   1 H    0.999 --     3 C    0.973
    19   1 H    0.995 --     3 C    0.969
    20   1 H    0.997 --     4 C    0.974
    21   1 H    0.991 --     4 C    0.961
    22   1 H    0.992 --     5 C    0.963
    23   1 H    0.991 --     5 C    0.960
    24   1 H    0.989 --     7 C    0.956
    25   1 H    0.989 --     8 C    0.960
    26   1 H    0.990 --     9 C    0.962
    27   1 H    0.989 --    11 C    0.951
    28   1 H    0.990 --    12 C    0.951
    29   1 H    0.991 --    12 C    0.954
    30   1 H    0.994 --    12 C    0.980
 ---------------------------------------------------------------------------

molecular dipole:
                 x           y           z       tot (Debye)
 q only:       -2.573      -0.415      -7.776
   full:       -2.646      -0.502      -7.826      21.036

           -------------------------------------------------
          | TOTAL ENERGY              -35.269021281047 Eh   |
          | GRADIENT NORM               0.000892190433 Eh/α |
          | HOMO-LUMO GAP               2.369913958884 eV   |
           -------------------------------------------------

 * finished run on 2024/12/20 at 02:12:29.494
