   * xtb version 6.7.1 (edcfbbe) compiled by 'conda@3ef47c1a292c' on 2024-11-25

   ID    Z sym.   atoms
    1    7 N      1-3, 6, 8
    2    6 C      4, 5, 7, 9-12
    3   35 Br     13
    4    1 H      14-24

          program call               : xtb C0266.xyz --opt --namespace C0266 --charge +1
          :  Hamiltonian                  GFN2-xTB          :
 * total energy  :   -38.8441812 Eh     change       -0.1346763E-09 Eh
 * total energy  :   -38.8526814 Eh     change       -0.8500265E-02 Eh
 * total energy  :   -38.8467926 Eh     change        0.5888821E-02 Eh
 * total energy  :   -38.8554244 Eh     change       -0.8631828E-02 Eh
 * total energy  :   -38.8563490 Eh     change       -0.9245740E-03 Eh
 * total energy  :   -38.8568658 Eh     change       -0.5168356E-03 Eh
 * total energy  :   -38.8574846 Eh     change       -0.6187592E-03 Eh
 * total energy  :   -38.8577876 Eh     change       -0.3030414E-03 Eh
 * total energy  :   -38.8580755 Eh     change       -0.2878967E-03 Eh
 * total energy  :   -38.8583450 Eh     change       -0.2694293E-03 Eh
 * total energy  :   -38.8588294 Eh     change       -0.1241078E-04 Eh
 * total energy  :   -38.8588417 Eh     change       -0.1237350E-04 Eh
 * total energy  :   -38.8588617 Eh     change       -0.1997418E-04 Eh
 * total energy  :   -38.8588785 Eh     change       -0.1683259E-04 Eh
 * total energy  :   -38.8588987 Eh     change       -0.2018108E-04 Eh
 * total energy  :   -38.8589118 Eh     change       -0.1311609E-04 Eh
 * total energy  :   -38.8588333 Eh     change        0.7851793E-04 Eh
 * total energy  :   -38.8589229 Eh     change       -0.8955561E-04 Eh
 * total energy  :   -38.8589271 Eh     change       -0.4254002E-05 Eh
   *** GEOMETRY OPTIMIZATION CONVERGED AFTER 24 ITERATIONS ***

 final structure:
================
24
 xtb: 6.7.1 (edcfbbe)
N            1.15958915925885        0.07342930886639       -0.09941349032456
N            0.31604217269423       -0.40466798819716        0.60192980327393
N           -0.61990492159528       -0.75938654147547        1.09573642686116
C            2.57830399471041        0.00406543062837        0.07271529134850
C            3.20799212733528        0.31558552132533       -1.30613495892775
N            2.71682389759392        1.56257837509146       -1.83663194762130
C            3.34166922892808        2.73938383696978       -1.82453720260796
N            2.55006906008447        3.66494997920638       -2.35888392044436
C            1.38108235444725        3.06426989931812       -2.71410625634143
C            1.48511620076057        1.74590853788382       -2.38811925903226
C            2.85694895579468        5.06149015639240       -2.51739322564572
C            3.07351920393025        0.98958655665572        1.14016459821350
Br           2.45127376949324        0.44889227933788        2.93268874464741
H            2.89556173329197       -1.00997417786860        0.35733487556060
H            4.29415084391839        0.35957331469965       -1.21759083386889
H            2.93619955448845       -0.48385180088475       -1.99935498012187
H            4.33524551592091        2.91274305683254       -1.45819228878988
H            0.57153247372739        3.59916534523537       -3.16776620441625
H            0.78223309374050        0.94678107452595       -2.50367420988512
H            2.51071186975673        5.62780067379851       -1.65057052860921
H            3.93115358438014        5.20093623294406       -2.62130763570982
H            2.35818984552543        5.44838782646750       -3.40413954403397
H            4.16144807552619        1.00167995440043        1.18148654275991
H            2.68612820628742        1.99353314784612        0.96757020371580

          :  Hamiltonian                  GFN2-xTB          :
         :: total energy             -38.858927130557 Eh    ::
         :: gradient norm              0.000419954011 Eh/a0 ::
         :: HOMO-LUMO gap              2.554123037975 eV    ::
         :: SCC energy               -39.370006066742 Eh    ::
         :: -> dispersion             -0.021506477804 Eh    ::
         :: repulsion energy           0.511078936184 Eh    ::

    * Orbital Energies and Occupations

         #    Occupation            Energy/Eh            Energy/eV
      -------------------------------------------------------------
         1        2.0000           -0.9453504             -25.7243
       ...           ...                  ...                  ...
        23        2.0000           -0.6622390             -18.0204
        24        2.0000           -0.6597318             -17.9522
        25        2.0000           -0.6500482             -17.6887
        26        2.0000           -0.6469328             -17.6039
        27        2.0000           -0.6319937             -17.1974
        28        2.0000           -0.6227635             -16.9463
        29        2.0000           -0.6037863             -16.4299
        30        2.0000           -0.6003746             -16.3370
        31        2.0000           -0.5817149             -15.8293
        32        2.0000           -0.5497234             -14.9587
        33        2.0000           -0.5283764             -14.3779
        34        2.0000           -0.5173047             -14.0766
        35        2.0000           -0.5163198             -14.0498 (HOMO)
        36                         -0.4224575             -11.4957 (LUMO)
        37                         -0.3830581             -10.4235
        38                         -0.3702844             -10.0760
        39                         -0.3379977              -9.1974
        40                         -0.3342392              -9.0951
        41                         -0.2014361              -5.4814
        42                         -0.1437329              -3.9112
        43                         -0.1200002              -3.2654
        44                         -0.1117947              -3.0421
        45                         -0.0808806              -2.2009
        46                         -0.0735074              -2.0002
       ...                                ...                  ...
        68                          0.9767444              26.5786
      -------------------------------------------------------------
                  HL-Gap            0.0938623 Eh            2.5541 eV

     #   Z          covCN         q      C6AA      α(0)
     1   7 N        1.910    -0.230    26.876     7.686
     2   7 N        1.973     0.322    16.716     6.063
     3   7 N        0.992    -0.166    24.153     7.064
     4   6 C        3.844     0.059    19.563     6.292
     5   6 C        3.748    -0.036    21.286     6.580
     6   7 N        2.869     0.075    19.934     6.631
     7   6 C        3.095     0.039    27.018     8.519
     8   7 N        2.866     0.084    19.784     6.606
     9   6 C        3.073    -0.007    28.118     8.694
    10   6 C        3.069    -0.002    28.001     8.677
    11   6 C        3.692    -0.089    22.398     6.772
    12   6 C        3.740    -0.004    20.728     6.496
    13  35 Br       0.966    -0.147   189.043    22.169
    14   1 H        0.923     0.076     2.017     2.221
    15   1 H        0.924     0.091     1.867     2.137
    16   1 H        0.924     0.110     1.694     2.035
    17   1 H        0.926     0.113     1.670     2.021
    18   1 H        0.926     0.116     1.646     2.006
    19   1 H        0.926     0.123     1.587     1.970
    20   1 H        0.924     0.109     1.701     2.040
    21   1 H        0.925     0.103     1.756     2.072
    22   1 H        0.925     0.112     1.684     2.029
    23   1 H        0.926     0.079     1.992     2.207
    24   1 H        0.925     0.069     2.095     2.263

Wiberg/Mayer (AO) data.
largest (>0.10) Wiberg bond orders for each atom

     #   Z sym  total        # sym  WBO       # sym  WBO       # sym  WBO
 ---------------------------------------------------------------------------
     1   7 N    3.187 --     2 N    1.538     4 C    0.986     3 N    0.613
     2   7 N    3.838 --     3 N    2.263     1 N    1.538
     3   7 N    2.968 --     2 N    2.263     1 N    0.613
     4   6 C    3.979 --     1 N    0.986    12 C    0.984     5 C    0.960
                            14 H    0.947
     5   6 C    3.945 --     6 N    0.982    15 H    0.965     4 C    0.960
                            16 H    0.957
     6   7 N    3.719 --     7 C    1.351    10 C    1.227     5 C    0.982
     7   6 C    3.944 --     8 N    1.366     6 N    1.351    17 H    0.954
     8   7 N    3.725 --     7 C    1.366     9 C    1.229    11 C    0.989
     9   6 C    3.946 --    10 C    1.589     8 N    1.229    18 H    0.959
    10   6 C    3.945 --     9 C    1.589     6 N    1.227    19 H    0.957
    11   6 C    3.930 --     8 N    0.989    21 H    0.972    22 H    0.969
                            20 H    0.957
    12   6 C    3.966 --    13 Br   0.989     4 C    0.984    24 H    0.975
                            23 H    0.970
    13  35 Br   1.049 --    12 C    0.989
    14   1 H    0.993 --     4 C    0.947
    15   1 H    0.990 --     5 C    0.965
    16   1 H    0.987 --     5 C    0.957
    17   1 H    0.987 --     7 C    0.954
    18   1 H    0.986 --     9 C    0.959
    19   1 H    0.984 --    10 C    0.957
    20   1 H    0.987 --    11 C    0.957
    21   1 H    0.989 --    11 C    0.972
    22   1 H    0.987 --    11 C    0.969
    23   1 H    0.994 --    12 C    0.970
    24   1 H    0.995 --    12 C    0.975
 ---------------------------------------------------------------------------

molecular dipole:
                 x           y           z       tot (Debye)
 q only:        5.534       5.093      -4.389
   full:        6.086       5.192      -4.438      23.253

           -------------------------------------------------
          | TOTAL ENERGY              -38.858927130557 Eh   |
          | GRADIENT NORM               0.000419954011 Eh/α |
          | HOMO-LUMO GAP               2.554123037975 eV   |
           -------------------------------------------------

 * finished run on 2024/12/20 at 02:13:01.009
