   * xtb version 6.7.1 (edcfbbe) compiled by 'conda@3ef47c1a292c' on 2024-11-25

   ID    Z sym.   atoms
    1    6 C      1-4, 6-12
    2    7 N      5
    3    1 H      13-30

          program call               : xtb C0261.xyz --opt --namespace C0261 --charge +1
          :  Hamiltonian                  GFN2-xTB          :
 * total energy  :   -35.2726525 Eh     change       -0.3126814E-09 Eh
 * total energy  :   -35.2762799 Eh     change       -0.3627399E-02 Eh
 * total energy  :   -35.2768698 Eh     change       -0.5898999E-03 Eh
 * total energy  :   -35.2769749 Eh     change       -0.1050816E-03 Eh
 * total energy  :   -35.2770579 Eh     change       -0.8299378E-04 Eh
 * total energy  :   -35.2770915 Eh     change       -0.3358045E-04 Eh
 * total energy  :   -35.2771411 Eh     change       -0.4960486E-04 Eh
 * total energy  :   -35.2771878 Eh     change       -0.4671874E-04 Eh
 * total energy  :   -35.2772347 Eh     change       -0.4691488E-04 Eh
 * total energy  :   -35.2772570 Eh     change       -0.2226091E-04 Eh
 * total energy  :   -35.2772969 Eh     change       -0.3988866E-04 Eh
 * total energy  :   -35.2773196 Eh     change       -0.2274440E-04 Eh
 * total energy  :   -35.2773453 Eh     change       -0.2570817E-04 Eh
 * total energy  :   -35.2773636 Eh     change       -0.1825687E-04 Eh
 * total energy  :   -35.2773739 Eh     change       -0.1034070E-04 Eh
 * total energy  :   -35.2773824 Eh     change       -0.8435988E-05 Eh
 * total energy  :   -35.2773897 Eh     change       -0.7317411E-05 Eh
 * total energy  :   -35.2773930 Eh     change       -0.3279166E-05 Eh
   *** GEOMETRY OPTIMIZATION CONVERGED AFTER 18 ITERATIONS ***

 final structure:
================
30
 xtb: 6.7.1 (edcfbbe)
C            1.15121592250018       -0.35823358981349        0.60094978008718
C            0.60664072584900        0.61577483927338        1.63911824710967
C            0.95687458253960        2.07582629314021        1.34806575195867
C            0.25273076463026        2.65858148727611        0.11241132054464
N           -1.18420941665640        2.77702432879733        0.32082050209741
C           -1.94081350059653        1.72519545733753       -0.02990306420110
C           -3.29876040453333        1.71707665270922        0.17732586362275
C           -3.89021662250244        2.83563528947985        0.74450106328912
C           -3.11309265525323        3.93466763100639        1.09306881647795
C           -1.72636006607841        3.87609508452469        0.88472158295353
C           -0.84811670404165        5.02423038012717        1.24319772081068
C           -3.76292354684106        5.14686134020845        1.67233214933281
H            0.73152354676139       -0.19068744075282       -0.38871711967893
H            0.91517822508132       -1.37758043911466        0.89213664383481
H            2.23193421621292       -0.26996968581361        0.52932646319336
H           -0.47644219769522        0.49886110722367        1.73600191881761
H            1.03984617809508        0.36109376720925        2.60731220700683
H            0.71546703403573        2.67541657840293        2.22749132761326
H            2.03101275095585        2.15528387508347        1.17652777842938
H            0.66829067494731        3.63549531393953       -0.13172398441616
H            0.42259865641127        2.00065308629749       -0.74048243632344
H           -1.43932800866380        0.89089833964628       -0.49414824255301
H           -3.88330145835569        0.85835116118959       -0.10815419835772
H           -4.95627246785946        2.85985331450883        0.90736444433696
H           -0.56203804012163        5.57273875134230        0.34356642633417
H           -1.36734961854539        5.71610427523891        1.89762238084823
H            0.06095497610896        4.70510741877584        1.74565234328888
H           -4.84170410666234        5.02471630452194        1.68838437332316
H           -3.42898505336556        5.31792132002314        2.69483605277738
H           -3.52818438636013        6.03304775820955        1.08582388744239

          :  Hamiltonian                  GFN2-xTB          :
         :: total energy             -35.277392976092 Eh    ::
         :: gradient norm              0.000657670884 Eh/a0 ::
         :: HOMO-LUMO gap              3.047161650402 eV    ::
         :: SCC energy               -35.859014425412 Eh    ::
         :: -> dispersion             -0.023983690261 Eh    ::
         :: repulsion energy           0.581621449320 Eh    ::

    * Orbital Energies and Occupations

         #    Occupation            Energy/Eh            Energy/eV
      -------------------------------------------------------------
         1        2.0000           -0.8622008             -23.4617
       ...           ...                  ...                  ...
        21        2.0000           -0.6317045             -17.1896
        22        2.0000           -0.6298803             -17.1399
        23        2.0000           -0.6182909             -16.8246
        24        2.0000           -0.6160340             -16.7631
        25        2.0000           -0.6068664             -16.5137
        26        2.0000           -0.6050881             -16.4653
        27        2.0000           -0.5973646             -16.2551
        28        2.0000           -0.5938258             -16.1588
        29        2.0000           -0.5885592             -16.0155
        30        2.0000           -0.5719093             -15.5624
        31        2.0000           -0.5662682             -15.4089
        32        2.0000           -0.5572626             -15.1639
        33        2.0000           -0.5510522             -14.9949 (HOMO)
        34                         -0.4390711             -11.9477 (LUMO)
        35                         -0.4070321             -11.0759
        36                         -0.2913759              -7.9287
        37                         -0.1665854              -4.5330
        38                         -0.0832579              -2.2656
        39                         -0.0637262              -1.7341
        40                         -0.0466343              -1.2690
        41                         -0.0380486              -1.0354
        42                         -0.0349127              -0.9500
        43                         -0.0265037              -0.7212
        44                         -0.0237635              -0.6466
       ...                                ...                  ...
        66                          0.4506314              12.2623
      -------------------------------------------------------------
                  HL-Gap            0.1119811 Eh            3.0472 eV

     #   Z          covCN         q      C6AA      α(0)
     1   6 C        3.751    -0.113    22.726     6.798
     2   6 C        3.799    -0.062    21.684     6.630
     3   6 C        3.801    -0.069    21.813     6.650
     4   6 C        3.759    -0.035    21.243     6.571
     5   7 N        2.750     0.083    19.810     6.610
     6   6 C        2.891     0.024    27.477     8.594
     7   6 C        2.912    -0.022    28.557     8.763
     8   6 C        2.930    -0.007    28.195     8.708
     9   6 C        2.964     0.033    27.265     8.565
    10   6 C        2.926     0.078    26.264     8.404
    11   6 C        3.758    -0.140    23.253     6.875
    12   6 C        3.759    -0.130    23.056     6.846
    13   1 H        0.925     0.030     2.581     2.512
    14   1 H        0.925     0.055     2.253     2.347
    15   1 H        0.925     0.053     2.283     2.363
    16   1 H        0.924     0.031     2.579     2.512
    17   1 H        0.924     0.060     2.196     2.318
    18   1 H        0.924     0.049     2.329     2.387
    19   1 H        0.924     0.076     2.024     2.225
    20   1 H        0.925     0.088     1.900     2.156
    21   1 H        0.924     0.090     1.875     2.141
    22   1 H        0.926     0.103     1.758     2.074
    23   1 H        0.926     0.097     1.809     2.103
    24   1 H        0.926     0.094     1.840     2.121
    25   1 H        0.924     0.095     1.831     2.116
    26   1 H        0.925     0.097     1.816     2.108
    27   1 H        0.925     0.090     1.877     2.143
    28   1 H        0.925     0.081     1.968     2.194
    29   1 H        0.925     0.085     1.924     2.169
    30   1 H        0.925     0.085     1.925     2.169

Wiberg/Mayer (AO) data.
largest (>0.10) Wiberg bond orders for each atom

     #   Z sym  total        # sym  WBO       # sym  WBO       # sym  WBO
 ---------------------------------------------------------------------------
     1   6 C    3.993 --     2 C    1.021    15 H    0.986    14 H    0.984
                            13 H    0.982
     2   6 C    3.994 --     1 C    1.021     3 C    1.008    16 H    0.972
                            17 H    0.971
     3   6 C    3.985 --     2 C    1.008     4 C    0.978    18 H    0.972
                            19 H    0.966
     4   6 C    3.937 --     3 C    0.978     5 N    0.964    20 H    0.961
                            21 H    0.960
     5   7 N    3.745 --     6 C    1.304    10 C    1.299     4 C    0.964
     6   6 C    3.960 --     7 C    1.472     5 N    1.304    22 H    0.952
     7   6 C    3.985 --     6 C    1.472     8 C    1.411    23 H    0.961
     8   6 C    3.977 --     9 C    1.411     7 C    1.411    24 H    0.961
     9   6 C    3.984 --     8 C    1.411    10 C    1.358    12 C    1.041
    10   6 C    3.960 --     9 C    1.358     5 N    1.299    11 C    1.048
    11   6 C    3.980 --    10 C    1.048    26 H    0.968    27 H    0.957
                            25 H    0.940
    12   6 C    3.984 --     9 C    1.041    28 H    0.978    30 H    0.959
                            29 H    0.953
    13   1 H    0.999 --     1 C    0.982
    14   1 H    0.997 --     1 C    0.984
    15   1 H    0.997 --     1 C    0.986
    16   1 H    0.999 --     2 C    0.972
    17   1 H    0.996 --     2 C    0.971
    18   1 H    0.998 --     3 C    0.972
    19   1 H    0.993 --     3 C    0.966
    20   1 H    0.992 --     4 C    0.961
    21   1 H    0.991 --     4 C    0.960
    22   1 H    0.989 --     6 C    0.952
    23   1 H    0.990 --     7 C    0.961
    24   1 H    0.991 --     8 C    0.961
    25   1 H    0.991 --    11 C    0.940
    26   1 H    0.990 --    11 C    0.968
    27   1 H    0.992 --    11 C    0.957
    28   1 H    0.993 --    12 C    0.978
    29   1 H    0.993 --    12 C    0.953
    30   1 H    0.992 --    12 C    0.959
 ---------------------------------------------------------------------------

molecular dipole:
                 x           y           z       tot (Debye)
 q only:       -2.921       5.854       1.355
   full:       -2.950       5.826       1.279      16.912

           -------------------------------------------------
          | TOTAL ENERGY              -35.277392976092 Eh   |
          | GRADIENT NORM               0.000657670884 Eh/α |
          | HOMO-LUMO GAP               3.047161650402 eV   |
           -------------------------------------------------

 * finished run on 2024/12/20 at 02:12:48.957
