   * xtb version 6.7.1 (edcfbbe) compiled by 'conda@3ef47c1a292c' on 2024-11-25

   ID    Z sym.   atoms
    1    6 C      1-5, 7-12
    2    7 N      6
    3    1 H      13-36

          program call               : xtb C0260.xyz --opt --namespace C0260 --charge +1
          :  Hamiltonian                  GFN2-xTB          :
 * total energy  :   -38.3374761 Eh     change       -0.5370282E-10 Eh
 * total energy  :   -38.3432561 Eh     change       -0.5779967E-02 Eh
 * total energy  :   -38.3447308 Eh     change       -0.1474737E-02 Eh
 * total energy  :   -38.3448027 Eh     change       -0.7182427E-04 Eh
 * total energy  :   -38.3448362 Eh     change       -0.3357537E-04 Eh
 * total energy  :   -38.3448464 Eh     change       -0.1013915E-04 Eh
 * total energy  :   -38.3448592 Eh     change       -0.1286504E-04 Eh
 * total energy  :   -38.3448678 Eh     change       -0.8558684E-05 Eh
 * total energy  :   -38.3448828 Eh     change       -0.1498189E-04 Eh
 * total energy  :   -38.3448999 Eh     change       -0.1710184E-04 Eh
 * total energy  :   -38.3449779 Eh     change       -0.2114900E-04 Eh
 * total energy  :   -38.3449969 Eh     change       -0.1902205E-04 Eh
 * total energy  :   -38.3450129 Eh     change       -0.1601451E-04 Eh
 * total energy  :   -38.3450260 Eh     change       -0.1311341E-04 Eh
 * total energy  :   -38.3450371 Eh     change       -0.1102348E-04 Eh
 * total energy  :   -38.3450470 Eh     change       -0.9962149E-05 Eh
 * total energy  :   -38.3450569 Eh     change       -0.9866023E-05 Eh
 * total energy  :   -38.3450673 Eh     change       -0.1037613E-04 Eh
 * total energy  :   -38.3450715 Eh     change       -0.4244621E-05 Eh
   *** GEOMETRY OPTIMIZATION CONVERGED AFTER 22 ITERATIONS ***

 final structure:
================
36
 xtb: 6.7.1 (edcfbbe)
C            1.07988827292221       -0.49327533960123        0.29289064498912
C            1.04176965238706        0.86522440647492       -0.39631626709130
C            1.45394322843312        0.81593564010616       -1.86964337809208
C            0.64163390796512       -0.14643232045892       -2.74812800078832
C           -0.88184105669765        0.01875819683766       -2.71602364960474
N           -1.50893245642802        0.92934187448523       -3.72869346610808
C           -1.34126217715813        0.35483905786915       -5.07473818332549
C           -2.96160836521160        1.02152659470859       -3.39173313253987
C           -3.72941550032000        2.03092429238687       -4.23683597476784
C           -3.09881583790553        3.41286007055787       -4.10858173658806
C           -1.62683612607499        3.33198373313771       -4.49538863001316
C           -0.90212266443443        2.28631853446793       -3.65390395257689
H            0.32077116771557       -1.16670904672952       -0.09839864428459
H            0.90229225496585       -0.37272319328190        1.35787772053991
H            2.05437884114869       -0.95643655265095        0.16358648313099
H            0.04717215142788        1.30573706304464       -0.28455640233582
H            1.73624667970504        1.53510742380753        0.11267556935856
H            1.43320147625648        1.83035048431813       -2.27008788041955
H            2.49106652808462        0.47969719337128       -1.91837474621154
H            1.02419926686713       -0.09692124968810       -3.76772177397356
H            0.84710450415987       -1.15767032823440       -2.39520405046188
H           -1.34679355463416       -0.95871939018983       -2.86064553734736
H           -1.16751998554624        0.37810091675284       -1.72663312611691
H           -0.28628555596156        0.28934311986231       -5.32928733680628
H           -1.77244746950626       -0.64396610703339       -5.10797357617981
H           -1.83464829478471        0.97216983579111       -5.81905356844990
H           -3.03750920982761        1.32204093742247       -2.34416201596375
H           -3.39970553157881        0.02711745763647       -3.49616675602611
H           -4.75701630790130        2.05102253185761       -3.87322062045816
H           -3.76709879038466        1.72685743639918       -5.28301152824456
H           -3.61640496701187        4.12285955590600       -4.75108882996535
H           -3.19197433891061        3.76683192129942       -3.08031926524580
H           -1.52878407963762        3.11494918741294       -5.55947538945837
H           -1.13954141902488        4.29119295197414       -4.31901447776654
H            0.13623845509488        2.21222887857099       -3.97605834706714
H           -0.92535269819236        2.59467423140690       -2.60658017373838

          :  Hamiltonian                  GFN2-xTB          :
         :: total energy             -38.345071511443 Eh    ::
         :: gradient norm              0.000197153529 Eh/a0 ::
         :: HOMO-LUMO gap              8.349070838635 eV    ::
         :: SCC energy               -38.893303318129 Eh    ::
         :: -> dispersion             -0.027995879012 Eh    ::
         :: repulsion energy           0.548231806686 Eh    ::

    * Orbital Energies and Occupations

         #    Occupation            Energy/Eh            Energy/eV
      -------------------------------------------------------------
         1        2.0000           -0.8569756             -23.3195
       ...           ...                  ...                  ...
        24        2.0000           -0.6293573             -17.1257
        25        2.0000           -0.6235054             -16.9664
        26        2.0000           -0.6118586             -16.6495
        27        2.0000           -0.6041202             -16.4389
        28        2.0000           -0.5909313             -16.0801
        29        2.0000           -0.5849716             -15.9179
        30        2.0000           -0.5832737             -15.8717
        31        2.0000           -0.5820582             -15.8386
        32        2.0000           -0.5738025             -15.6140
        33        2.0000           -0.5709859             -15.5373
        34        2.0000           -0.5476022             -14.9010
        35        2.0000           -0.5414075             -14.7324
        36        2.0000           -0.5366826             -14.6039 (HOMO)
        37                         -0.2298599              -6.2548 (LUMO)
        38                         -0.1621405              -4.4121
        39                         -0.1559953              -4.2448
        40                         -0.1398948              -3.8067
        41                         -0.0779428              -2.1209
        42                         -0.0724979              -1.9728
        43                         -0.0601059              -1.6356
        44                         -0.0542635              -1.4766
        45                         -0.0352678              -0.9597
        46                         -0.0314203              -0.8550
        47                         -0.0242110              -0.6588
       ...                                ...                  ...
        72                          0.1924532               5.2369
      -------------------------------------------------------------
                  HL-Gap            0.3068227 Eh            8.3491 eV

     #   Z          covCN         q      C6AA      α(0)
     1   6 C        3.751    -0.112    22.711     6.796
     2   6 C        3.799    -0.058    21.619     6.620
     3   6 C        3.800    -0.071    21.868     6.658
     4   6 C        3.798    -0.074    21.908     6.665
     5   6 C        3.762    -0.040    21.337     6.585
     6   7 N        3.620     0.119    19.193     6.507
     7   6 C        3.713    -0.089    22.329     6.752
     8   6 C        3.769    -0.033    21.191     6.560
     9   6 C        3.805    -0.072    21.871     6.658
    10   6 C        3.807    -0.071    21.862     6.656
    11   6 C        3.805    -0.073    21.886     6.660
    12   6 C        3.761    -0.032    21.191     6.562
    13   1 H        0.925     0.032     2.561     2.503
    14   1 H        0.925     0.051     2.313     2.378
    15   1 H        0.925     0.048     2.339     2.392
    16   1 H        0.924     0.021     2.723     2.581
    17   1 H        0.924     0.051     2.303     2.373
    18   1 H        0.924     0.034     2.529     2.487
    19   1 H        0.924     0.060     2.202     2.321
    20   1 H        0.925     0.050     2.323     2.384
    21   1 H        0.924     0.078     2.000     2.211
    22   1 H        0.924     0.075     2.028     2.227
    23   1 H        0.924     0.089     1.892     2.151
    24   1 H        0.925     0.094     1.844     2.124
    25   1 H        0.925     0.091     1.874     2.141
    26   1 H        0.925     0.101     1.774     2.083
    27   1 H        0.924     0.082     1.956     2.187
    28   1 H        0.924     0.078     1.995     2.209
    29   1 H        0.924     0.077     2.006     2.215
    30   1 H        0.925     0.061     2.193     2.316
    31   1 H        0.925     0.070     2.087     2.259
    32   1 H        0.924     0.056     2.243     2.342
    33   1 H        0.924     0.059     2.206     2.323
    34   1 H        0.924     0.076     2.019     2.222
    35   1 H        0.925     0.086     1.920     2.167
    36   1 H        0.924     0.085     1.923     2.169

Wiberg/Mayer (AO) data.
largest (>0.10) Wiberg bond orders for each atom

     #   Z sym  total        # sym  WBO       # sym  WBO       # sym  WBO
 ---------------------------------------------------------------------------
     1   6 C    3.994 --     2 C    1.020    13 H    0.986    15 H    0.986
                            14 H    0.985
     2   6 C    3.996 --     1 C    1.020     3 C    1.008    17 H    0.975
                            16 H    0.973
     3   6 C    3.992 --     2 C    1.008     4 C    1.005    18 H    0.974
                            19 H    0.973
     4   6 C    3.984 --     3 C    1.005     5 C    1.004    20 H    0.966
                            21 H    0.965
     5   6 C    3.929 --     4 C    1.004    22 H    0.969    23 H    0.959
                             6 N    0.924
     6   7 N    3.805 --     7 C    0.963    12 C    0.932     8 C    0.930
                             5 C    0.924
     7   6 C    3.933 --    25 H    0.976    24 H    0.970    26 H    0.967
                             6 N    0.963
     8   6 C    3.936 --     9 C    1.008    28 H    0.969    27 H    0.967
                             6 N    0.930
     9   6 C    3.987 --    10 C    1.009     8 C    1.008    30 H    0.970
                            29 H    0.965
    10   6 C    3.992 --    11 C    1.009     9 C    1.009    32 H    0.975
                            31 H    0.973
    11   6 C    3.988 --    10 C    1.009    12 C    1.007    33 H    0.971
                            34 H    0.966
    12   6 C    3.934 --    11 C    1.007    36 H    0.967    35 H    0.964
                             6 N    0.932
    13   1 H    0.999 --     1 C    0.986
    14   1 H    0.997 --     1 C    0.985
    15   1 H    0.998 --     1 C    0.986
    16   1 H    1.000 --     2 C    0.973
    17   1 H    0.997 --     2 C    0.975
    18   1 H    0.999 --     3 C    0.974
    19   1 H    0.996 --     3 C    0.973
    20   1 H    0.998 --     4 C    0.966
    21   1 H    0.994 --     4 C    0.965
    22   1 H    0.994 --     5 C    0.969
    23   1 H    0.992 --     5 C    0.959
    24   1 H    0.991 --     7 C    0.970
    25   1 H    0.992 --     7 C    0.976
    26   1 H    0.990 --     7 C    0.967
    27   1 H    0.993 --     8 C    0.967
    28   1 H    0.994 --     8 C    0.969
    29   1 H    0.994 --     9 C    0.965
    30   1 H    0.996 --     9 C    0.970
    31   1 H    0.995 --    10 C    0.973
    32   1 H    0.997 --    10 C    0.975
    33   1 H    0.996 --    11 C    0.971
    34   1 H    0.994 --    11 C    0.966
    35   1 H    0.993 --    12 C    0.964
    36   1 H    0.993 --    12 C    0.967
 ---------------------------------------------------------------------------

molecular dipole:
                 x           y           z       tot (Debye)
 q only:       -2.707       2.123      -6.868
   full:       -2.714       2.008      -6.862      19.438

           -------------------------------------------------
          | TOTAL ENERGY              -38.345071511443 Eh   |
          | GRADIENT NORM               0.000197153529 Eh/α |
          | HOMO-LUMO GAP               8.349070838635 eV   |
           -------------------------------------------------

 * finished run on 2024/12/20 at 02:12:48.255
