   * xtb version 6.7.1 (edcfbbe) compiled by 'conda@3ef47c1a292c' on 2024-11-25

   ID    Z sym.   atoms
    1    6 C      1-9, 11, 13-15
    2    7 N      10, 12
    3    1 H      16-38

          program call               : xtb C0267.xyz --opt --namespace C0267 --charge +1
          :  Hamiltonian                  GFN2-xTB          :
 * total energy  :   -44.9983319 Eh     change       -0.1073033E-08 Eh
 * total energy  :   -45.0024494 Eh     change       -0.4117551E-02 Eh
 * total energy  :   -45.0031736 Eh     change       -0.7241013E-03 Eh
 * total energy  :   -45.0033293 Eh     change       -0.1557335E-03 Eh
 * total energy  :   -45.0035267 Eh     change       -0.1973825E-03 Eh
 * total energy  :   -45.0036336 Eh     change       -0.1069193E-03 Eh
 * total energy  :   -45.0037653 Eh     change       -0.1317632E-03 Eh
 * total energy  :   -45.0039182 Eh     change       -0.1528825E-03 Eh
 * total energy  :   -45.0040520 Eh     change       -0.1337992E-03 Eh
 * total energy  :   -45.0041669 Eh     change       -0.1149020E-03 Eh
 * total energy  :   -45.0047147 Eh     change       -0.3332867E-04 Eh
 * total energy  :   -45.0047314 Eh     change       -0.1666373E-04 Eh
 * total energy  :   -45.0047441 Eh     change       -0.1269630E-04 Eh
 * total energy  :   -45.0047526 Eh     change       -0.8495856E-05 Eh
 * total energy  :   -45.0047656 Eh     change       -0.1305857E-04 Eh
 * total energy  :   -45.0047713 Eh     change       -0.5649600E-05 Eh
 * total energy  :   -45.0047781 Eh     change       -0.6833661E-05 Eh
 * total energy  :   -45.0047754 Eh     change        0.2748991E-05 Eh
 * total energy  :   -45.0047800 Eh     change       -0.4682795E-05 Eh
   *** GEOMETRY OPTIMIZATION CONVERGED AFTER 27 ITERATIONS ***

 final structure:
================
38
 xtb: 6.7.1 (edcfbbe)
C            1.07636684568126        0.03328951545252        0.02136035899384
C            0.47141784993379        0.44313826253363       -1.32855135397205
C            0.98028641473821       -0.35808400113639       -2.52845127829771
C            0.50703521254892       -1.81143966041132       -2.62972152298160
C           -1.00809590236112       -2.01658434099183       -2.57527255853214
C           -1.79628935147605       -1.26999518015129       -3.65393555427093
C           -1.42047947640234       -1.63353289410026       -5.09277489169117
C           -1.59724638808394       -3.10906280568507       -5.45501368560709
C           -3.03829489029472       -3.59099221840044       -5.33702883253442
N            0.58909508493522       -1.25014827226924        0.49341283427877
C            1.40052181637844       -2.32143748354324        0.57273139581612
N            1.01132767735285       -3.49626467376781        0.96823879618627
C           -0.25684051248479       -3.67574390411914        1.31046162249154
C           -1.16874131408434       -2.62508494212762        1.26405765137641
C           -0.69831111022797       -1.39741303042877        0.83729189404696
H            0.82039747298862        0.78805001797328        0.77012068559632
H            2.16290242238056       -0.01930592545615       -0.06459337654313
H           -0.61652293486335        0.39878930492322       -1.28306583154468
H            0.74561481841421        1.48809212574844       -1.48036647738097
H            0.65780581301418        0.16960119327207       -3.42629442150032
H            2.07229838911627       -0.34624466072330       -2.52943510846430
H            0.87022404074615       -2.20337945386515       -3.58017554045227
H            0.97498082168995       -2.42174790644479       -1.85097280463224
H           -1.20484283494204       -3.08586575387036       -2.66811294182221
H           -1.39552282571230       -1.71251638572833       -1.59459858295229
H           -2.85601491878205       -1.48076307407976       -3.50238764575901
H           -1.66330594630885       -0.19318077084610       -3.52725238127996
H           -2.04906916794485       -1.03722373965018       -5.75724193272228
H           -0.38511831709595       -1.34512898646880       -5.28549477693809
H           -1.26906884546608       -3.23907538610213       -6.48827711610264
H           -0.95057079757569       -3.73130099156682       -4.83249073720377
H           -3.70026885447493       -2.95421703415311       -5.91920685593222
H           -3.12528570836756       -4.60696976430568       -5.71377829456444
H           -3.37676618324443       -3.58663668318095       -4.30324984825446
H            2.44163511576715       -2.19757858178108        0.30282851294578
H           -0.52967772047518       -4.67170384709427        1.62908055283378
H           -2.20105444974615       -2.75263717674382        1.54629191059624
H           -1.33206134526638       -0.52220089070460        0.79187813677443

          :  Hamiltonian                  GFN2-xTB          :
         :: total energy             -45.004780042719 Eh    ::
         :: gradient norm              0.000566103626 Eh/a0 ::
         :: HOMO-LUMO gap              0.632894385382 eV    ::
         :: SCC energy               -45.693185665203 Eh    ::
         :: -> dispersion             -0.032625011206 Eh    ::
         :: repulsion energy           0.688405622484 Eh    ::

    * Orbital Energies and Occupations

         #    Occupation            Energy/Eh            Energy/eV
      -------------------------------------------------------------
         1        2.0000           -0.9004462             -24.5024
       ...           ...                  ...                  ...
        30        2.0000           -0.5902701             -16.0621
        31        2.0000           -0.5869474             -15.9717
        32        2.0000           -0.5782440             -15.7348
        33        2.0000           -0.5704589             -15.5230
        34        2.0000           -0.5685766             -15.4718
        35        2.0000           -0.5618995             -15.2901
        36        2.0000           -0.5548922             -15.0994
        37        2.0000           -0.5449941             -14.8300
        38        2.0000           -0.5390096             -14.6672
        39        2.0000           -0.5334315             -14.5154
        40        2.0000           -0.5113657             -13.9150
        41        2.0000           -0.5079305             -13.8215
        42        2.0000           -0.5034514             -13.6996 (HOMO)
        43        0.0000           -0.4801930             -13.0667 (LUMO)
        44                         -0.4538828             -12.3508
        45                         -0.3314862              -9.0202
        46                         -0.1843835              -5.0173
        47                         -0.0900111              -2.4493
        48                         -0.0807681              -2.1978
        49                         -0.0618286              -1.6824
        50                         -0.0488057              -1.3281
        51                         -0.0354017              -0.9633
        52                         -0.0324478              -0.8829
        53                         -0.0220376              -0.5997
       ...                                ...                  ...
        83                          0.4068329              11.0705
      -------------------------------------------------------------
                  HL-Gap            0.0232584 Eh            0.6329 eV

     #   Z          covCN         q      C6AA      α(0)
     1   6 C        3.753    -0.034    21.241     6.572
     2   6 C        3.800    -0.069    21.829     6.652
     3   6 C        3.800    -0.071    21.866     6.658
     4   6 C        3.799    -0.063    21.712     6.634
     5   6 C        3.799    -0.054    21.541     6.608
     6   6 C        3.800    -0.060    21.657     6.626
     7   6 C        3.801    -0.061    21.679     6.629
     8   6 C        3.799    -0.055    21.557     6.611
     9   6 C        3.751    -0.105    22.564     6.774
    10   7 N        2.746     0.098    19.560     6.569
    11   6 C        2.885     0.124    25.271     8.241
    12   7 N        1.837    -0.140    24.805     7.381
    13   6 C        2.920     0.094    25.910     8.347
    14   6 C        2.908    -0.017    28.440     8.745
    15   6 C        2.903     0.056    26.742     8.479
    16   1 H        0.924     0.096     1.826     2.113
    17   1 H        0.924     0.094     1.839     2.121
    18   1 H        0.925     0.063     2.166     2.302
    19   1 H        0.924     0.078     1.999     2.211
    20   1 H        0.924     0.069     2.096     2.264
    21   1 H        0.924     0.046     2.367     2.406
    22   1 H        0.924     0.063     2.163     2.300
    23   1 H        0.924     0.008     2.925     2.675
    24   1 H        0.924     0.042     2.420     2.433
    25   1 H        0.924    -0.000     3.064     2.737
    26   1 H        0.924     0.043     2.405     2.425
    27   1 H        0.924     0.030     2.581     2.512
    28   1 H        0.924     0.043     2.408     2.427
    29   1 H        0.924     0.031     2.575     2.509
    30   1 H        0.924     0.039     2.459     2.452
    31   1 H        0.924     0.027     2.632     2.537
    32   1 H        0.925     0.041     2.433     2.439
    33   1 H        0.925     0.040     2.444     2.445
    34   1 H        0.925     0.029     2.596     2.520
    35   1 H        0.925     0.122     1.600     1.978
    36   1 H        0.926     0.122     1.599     1.977
    37   1 H        0.926     0.116     1.649     2.008
    38   1 H        0.925     0.115     1.656     2.012

Wiberg/Mayer (AO) data.
largest (>0.10) Wiberg bond orders for each atom

     #   Z sym  total        # sym  WBO       # sym  WBO       # sym  WBO
 ---------------------------------------------------------------------------
     1   6 C    3.928 --     2 C    0.975    17 H    0.964    10 N    0.959
                            16 H    0.952
     2   6 C    3.978 --     3 C    1.007     1 C    0.975    18 H    0.967
                            19 H    0.965
     3   6 C    3.991 --     4 C    1.007     2 C    1.007    21 H    0.975
                            20 H    0.968
     4   6 C    3.995 --     5 C    1.007     3 C    1.007    23 H    0.969
                            22 H    0.968
     5   6 C    3.996 --     4 C    1.007     6 C    1.006    24 H    0.973
                            25 H    0.964
     6   6 C    3.993 --     5 C    1.006     7 C    1.005    27 H    0.975
                            26 H    0.974
     7   6 C    3.992 --     8 C    1.008     6 C    1.005    28 H    0.975
                            29 H    0.975
     8   6 C    3.997 --     9 C    1.020     7 C    1.008    30 H    0.976
                            31 H    0.976
     9   6 C    3.996 --     8 C    1.020    32 H    0.987    33 H    0.987
                            34 H    0.986
    10   7 N    3.762 --    15 C    1.325    11 C    1.295     1 C    0.959
    11   6 C    3.946 --    12 N    1.507    10 N    1.295    35 H    0.942
                            14 C    0.105
    12   7 N    3.106 --    11 C    1.507    13 C    1.406
    13   6 C    3.944 --    12 N    1.406    14 C    1.406    36 H    0.952
    14   6 C    3.978 --    15 C    1.460    13 C    1.406    37 H    0.957
                            11 C    0.105
    15   6 C    3.952 --    14 C    1.460    10 N    1.325    38 H    0.952
    16   1 H    0.991 --     1 C    0.952
    17   1 H    0.991 --     1 C    0.964
    18   1 H    0.996 --     2 C    0.967
    19   1 H    0.993 --     2 C    0.965
    20   1 H    0.994 --     3 C    0.968
    21   1 H    0.998 --     3 C    0.975
    22   1 H    0.996 --     4 C    0.968
    23   1 H    1.000 --     4 C    0.969
    24   1 H    0.998 --     5 C    0.973
    25   1 H    1.000 --     5 C    0.964
    26   1 H    0.998 --     6 C    0.974
    27   1 H    0.999 --     6 C    0.975
    28   1 H    0.997 --     7 C    0.975
    29   1 H    0.999 --     7 C    0.975
    30   1 H    0.998 --     8 C    0.976
    31   1 H    0.999 --     8 C    0.976
    32   1 H    0.998 --     9 C    0.987
    33   1 H    0.998 --     9 C    0.987
    34   1 H    0.999 --     9 C    0.986
    35   1 H    0.985 --    11 C    0.942
    36   1 H    0.985 --    13 C    0.952
    37   1 H    0.986 --    14 C    0.957
    38   1 H    0.987 --    15 C    0.952
 ---------------------------------------------------------------------------

molecular dipole:
                 x           y           z       tot (Debye)
 q only:        0.158      -2.742       0.213
   full:       -0.033      -2.467       0.342       6.330

           -------------------------------------------------
          | TOTAL ENERGY              -45.004780042719 Eh   |
          | GRADIENT NORM               0.000566103626 Eh/α |
          | HOMO-LUMO GAP               0.632894385382 eV   |
           -------------------------------------------------

 * finished run on 2024/12/20 at 02:13:02.153
