   * xtb version 6.7.1 (edcfbbe) compiled by 'conda@3ef47c1a292c' on 2024-11-25

   ID    Z sym.   atoms
    1    6 C      1-4, 6-31
    2   15 P      5
    3    1 H      32-95

          program call               : xtb C0264.xyz --opt --namespace C0264 --charge +1
          :  Hamiltonian                  GFN2-xTB          :
 * total energy  :   -99.0450090 Eh     change       -0.2482778E-09 Eh
 * total energy  :   -99.0516997 Eh     change       -0.6690727E-02 Eh
 * total energy  :   -99.0534131 Eh     change       -0.1713394E-02 Eh
 * total energy  :   -99.0536914 Eh     change       -0.2782708E-03 Eh
 * total energy  :   -99.0539036 Eh     change       -0.2122736E-03 Eh
 * total energy  :   -99.0541175 Eh     change       -0.2138423E-03 Eh
 * total energy  :   -99.0544354 Eh     change       -0.3179527E-03 Eh
 * total energy  :   -99.0548233 Eh     change       -0.3878422E-03 Eh
 * total energy  :   -99.0552612 Eh     change       -0.4378984E-03 Eh
 * total energy  :   -99.0557341 Eh     change       -0.4729126E-03 Eh
 * total energy  :   -99.0643088 Eh     change       -0.1219182E-04 Eh
 * total energy  :   -99.0643244 Eh     change       -0.1564915E-04 Eh
 * total energy  :   -99.0643351 Eh     change       -0.1065050E-04 Eh
 * total energy  :   -99.0643481 Eh     change       -0.1305874E-04 Eh
 * total energy  :   -99.0643627 Eh     change       -0.1453351E-04 Eh
 * total energy  :   -99.0643740 Eh     change       -0.1135806E-04 Eh
 * total energy  :   -99.0643817 Eh     change       -0.7673919E-05 Eh
 * total energy  :   -99.0643869 Eh     change       -0.5172751E-05 Eh
 * total energy  :   -99.0643906 Eh     change       -0.3741331E-05 Eh
   *** GEOMETRY OPTIMIZATION CONVERGED AFTER 67 ITERATIONS ***

 final structure:
================
95
 xtb: 6.7.1 (edcfbbe)
C            0.52891059730515       -0.61393251967579        0.79426802097835
C           -0.70788564175538       -1.05844137832595        0.00928431621301
C           -0.47580553230180       -2.40074337251847       -0.69052322526119
C           -0.28996357153571       -3.56414437947475        0.27650229738595
P            0.37008060870359        1.01816673347658        1.59962363294980
C            0.79388134628260        2.37235063204395        0.43935317081103
C            0.16609268842431        2.38795107589577       -0.95654720976611
C           -1.34030271568430        2.64290967355495       -1.00904247562448
C           -1.80806743605478        3.91771624078491       -0.30536733304909
C           -1.21014436678993        5.21342284637908       -0.85753524896264
C           -1.54703512787737        5.50427440169788       -2.32160811659177
C           -3.04284790201043        5.57429608119320       -2.63878233003073
C           -3.83893857792527        6.56687603087666       -1.78922637487419
C           -3.37496372881311        8.02078880140135       -1.89025138202601
C           -3.49459036028515        8.64074758967066       -3.28355152657115
C           -4.90991135468457        8.65504518493256       -3.86531909889929
C           -5.96113900235964        9.34613936606724       -2.99434769066128
C           -5.66324339796278       10.80841179283416       -2.65844378629583
C           -5.55536070802247       11.73984933556966       -3.86697465012423
C           -6.81115701569485       11.81717289227240       -4.73743313238693
C           -8.08158631614907       12.25577017015811       -4.00554798837006
C           -7.99513626651903       13.62076755939048       -3.32123684430409
C           -7.75069775354242       14.76744051179946       -4.29455606106173
C           -1.30698331199150        1.24946845118977        2.28975773035240
C           -1.73202423818019        0.21090131620692        3.33903672210042
C           -1.51052893179157        0.67722167705042        4.77992705036572
C           -2.49689363659013        1.75907976034790        5.20447257127395
C            1.62214828305400        1.20990118864265        2.92693916808282
C            1.90209919139443       -0.03509457440030        3.77908890789844
C            3.09471033672836       -0.84697653322691        3.26510223359834
C            4.43163261620292       -0.18962953485155        3.58770656391320
H            1.39821165100642       -0.55708306987841        0.13101953060276
H            0.74961835134571       -1.34457366916922        1.57540611894735
H           -1.55972604308082       -1.15733116795714        0.68503172236663
H           -0.95995119432170       -0.31361901553577       -0.74663265125152
H           -1.34318067263568       -2.60349376253604       -1.32029393885346
H            0.39468624989133       -2.32587258386918       -1.34507401401241
H           -1.11753350843018       -3.61523621898381        0.98053610788620
H           -0.26096390863722       -4.49877050852886       -0.27586429478766
H            0.64027024424427       -3.48239634767968        0.83362790612862
H            0.58606913787186        3.31058154792042        0.96157310253586
H            1.88123040548128        2.29868650774868        0.32130236663964
H            0.67013052594247        3.17563837374084       -1.51937682364261
H            0.38569226639959        1.44667496898663       -1.46502969737757
H           -1.62745978572894        2.69707464467800       -2.05962866281512
H           -1.87307757250483        1.78994861874539       -0.58063799074989
H           -2.89380530285875        3.96705414358139       -0.39193074889269
H           -1.57982520760986        3.85711427330304        0.76256130997396
H           -1.57338764137094        6.03783972004299       -0.24235868410359
H           -0.12253526018459        5.19442887593755       -0.75091070087520
H           -1.08223854256124        6.45468751714492       -2.58814068520506
H           -1.09553815364864        4.74165691938360       -2.96091990536236
H           -3.15010713515113        5.84042581632802       -3.69130727065259
H           -3.48795130615762        4.58348128521980       -2.51701666200822
H           -4.88562075188428        6.50561723363973       -2.09129448668576
H           -3.79493001286513        6.26490355112000       -0.73984638193127
H           -3.96336814290323        8.61257167408507       -1.18677351493895
H           -2.33260862582556        8.09303212699347       -1.57115617873971
H           -3.12117692958098        9.66509758148407       -3.22937975941675
H           -2.84454216386431        8.10274484196384       -3.97752805491502
H           -4.87007818627231        9.14890981956143       -4.83791653489647
H           -5.23712826824863        7.62823208109950       -4.04541335009750
H           -6.92109499828087        9.28646189884891       -3.51055449089582
H           -6.07122553795603        8.79567834026362       -2.05703277525132
H           -6.45237904743446       11.17201546543034       -1.99737281761762
H           -4.72757805690108       10.86658641905877       -2.09768802635103
H           -5.31033396434289       12.73979943629569       -3.50342509839348
H           -4.72271903153758       11.41890479702897       -4.49692312322688
H           -6.61393743610004       12.51100566971727       -5.55692541360277
H           -6.99842556727278       10.83991712789875       -5.18804812172424
H           -8.89698685816823       12.28336999816319       -4.73311683112395
H           -8.34399589437577       11.50586931566156       -3.25623231005086
H           -8.93912988860211       13.79762237597571       -2.79944749728988
H           -7.20614382392797       13.60914369064444       -2.56732108339509
H           -8.50617518599384       14.76943475889621       -5.07717944798874
H           -7.79648615797337       15.72073866879878       -3.77288686138006
H           -6.77227428930916       14.68456635520347       -4.76050749295122
H           -1.33642661012106        2.25536813447266        2.71672123892253
H           -1.99553036461523        1.23775384741862        1.44298552494087
H           -2.79636952608003        0.00463531756070        3.21228903465636
H           -1.20274433984011       -0.73026131531895        3.17245301617294
H           -1.63459033170725       -0.18260274246777        5.44002334940293
H           -0.49028658163450        1.04275950192053        4.90522025966165
H           -3.51837791151924        1.39736768880246        5.12039303523006
H           -2.32067725219120        2.03653631195383        6.23979025142633
H           -2.40223442545668        2.65688392837102        4.59765716210698
H            2.54942985778983        1.54163506891818        2.45305632436215
H            1.26546208922352        2.03892130055076        3.54601432186016
H            2.12258449477289        0.28016941072755        4.80023350812988
H            1.01657429841934       -0.67105172725564        3.82772917924674
H            3.07117397621098       -1.83159698681166        3.73456791435114
H            3.01391051744603       -0.99120766862861        2.18528058590231
H            4.55094545192280       -0.07854312670229        4.66227320551778
H            5.24766666157350       -0.80415777670625        3.21845725355800
H            4.51968244449140        0.79375371565792        3.13127114186241

          :  Hamiltonian                  GFN2-xTB          :
         :: total energy             -99.064390599478 Eh    ::
         :: gradient norm              0.000449122145 Eh/a0 ::
         :: HOMO-LUMO gap              4.319202396336 eV    ::
         :: SCC energy              -100.527908436396 Eh    ::
         :: -> dispersion             -0.085644556116 Eh    ::
         :: repulsion energy           1.463517836918 Eh    ::

    * Orbital Energies and Occupations

         #    Occupation            Energy/Eh            Energy/eV
      -------------------------------------------------------------
         1        2.0000           -0.8409696             -22.8839
       ...           ...                  ...                  ...
        82        2.0000           -0.4989010             -13.5758
        83        2.0000           -0.4947452             -13.4627
        84        2.0000           -0.4913733             -13.3709
        85        2.0000           -0.4852737             -13.2050
        86        2.0000           -0.4805831             -13.0773
        87        2.0000           -0.4776002             -12.9962
        88        2.0000           -0.4734283             -12.8826
        89        2.0000           -0.4652260             -12.6594
        90        2.0000           -0.4636444             -12.6164
        91        2.0000           -0.4616171             -12.5612
        92        2.0000           -0.4533369             -12.3359
        93        2.0000           -0.4474244             -12.1750
        94        2.0000           -0.4463708             -12.1464 (HOMO)
        95                         -0.2876431              -7.8272 (LUMO)
        96                         -0.2741499              -7.4600
        97                         -0.2668401              -7.2611
        98                         -0.1931255              -5.2552
        99                         -0.1109218              -3.0183
       100                         -0.0807153              -2.1964
       101                         -0.0548209              -1.4918
       102                         -0.0524497              -1.4272
       103                         -0.0451917              -1.2297
       104                         -0.0332686              -0.9053
       105                         -0.0272420              -0.7413
       ...                                ...                  ...
       193                          0.7918529              21.5474
      -------------------------------------------------------------
                  HL-Gap            0.1587278 Eh            4.3192 eV

     #   Z          covCN         q      C6AA      α(0)
     1   6 C        3.751    -0.069    21.879     6.671
     2   6 C        3.855    -0.062    21.653     6.618
     3   6 C        3.801    -0.060    21.657     6.626
     4   6 C        3.751    -0.112    22.695     6.794
     5  15 P        3.899     0.173   152.769    22.203
     6   6 C        3.749    -0.075    22.000     6.690
     7   6 C        3.826    -0.062    21.665     6.623
     8   6 C        3.800    -0.063    21.716     6.635
     9   6 C        3.800    -0.061    21.676     6.629
    10   6 C        3.800    -0.060    21.648     6.625
    11   6 C        3.800    -0.059    21.635     6.623
    12   6 C        3.800    -0.058    21.621     6.620
    13   6 C        3.800    -0.057    21.605     6.618
    14   6 C        3.800    -0.057    21.598     6.617
    15   6 C        3.800    -0.057    21.593     6.616
    16   6 C        3.800    -0.056    21.590     6.616
    17   6 C        3.800    -0.056    21.586     6.615
    18   6 C        3.800    -0.056    21.585     6.615
    19   6 C        3.800    -0.056    21.583     6.615
    20   6 C        3.800    -0.057    21.593     6.616
    21   6 C        3.800    -0.057    21.595     6.616
    22   6 C        3.799    -0.052    21.503     6.602
    23   6 C        3.751    -0.101    22.499     6.764
    24   6 C        3.750    -0.072    21.937     6.680
    25   6 C        3.847    -0.061    21.646     6.618
    26   6 C        3.800    -0.061    21.676     6.629
    27   6 C        3.752    -0.112    22.697     6.794
    28   6 C        3.750    -0.077    22.037     6.695
    29   6 C        3.840    -0.064    21.695     6.626
    30   6 C        3.800    -0.061    21.668     6.628
    31   6 C        3.752    -0.112    22.698     6.794
    32   1 H        0.927     0.088     1.903     2.157
    33   1 H        0.927     0.096     1.819     2.109
    34   1 H        0.924     0.053     2.278     2.360
    35   1 H        0.924     0.051     2.309     2.376
    36   1 H        0.924     0.054     2.270     2.356
    37   1 H        0.924     0.043     2.410     2.428
    38   1 H        0.925     0.042     2.424     2.435
    39   1 H        0.925     0.055     2.259     2.351
    40   1 H        0.925     0.035     2.522     2.484
    41   1 H        0.927     0.091     1.865     2.135
    42   1 H        0.928     0.082     1.955     2.186
    43   1 H        0.924     0.068     2.109     2.271
    44   1 H        0.924     0.047     2.353     2.399
    45   1 H        0.924     0.059     2.216     2.328
    46   1 H        0.924     0.025     2.663     2.552
    47   1 H        0.924     0.049     2.329     2.387
    48   1 H        0.924     0.016     2.790     2.612
    49   1 H        0.924     0.043     2.414     2.430
    50   1 H        0.924     0.022     2.698     2.568
    51   1 H        0.924     0.040     2.443     2.444
    52   1 H        0.924     0.025     2.660     2.550
    53   1 H        0.924     0.039     2.461     2.453
    54   1 H        0.924     0.023     2.689     2.564
    55   1 H        0.924     0.037     2.494     2.470
    56   1 H        0.924     0.022     2.704     2.571
    57   1 H        0.924     0.034     2.531     2.488
    58   1 H        0.924     0.025     2.665     2.553
    59   1 H        0.924     0.033     2.542     2.494
    60   1 H        0.924     0.026     2.648     2.545
    61   1 H        0.924     0.033     2.543     2.494
    62   1 H        0.924     0.025     2.659     2.550
    63   1 H        0.924     0.032     2.556     2.500
    64   1 H        0.924     0.025     2.664     2.552
    65   1 H        0.924     0.031     2.572     2.508
    66   1 H        0.924     0.026     2.646     2.544
    67   1 H        0.924     0.031     2.571     2.508
    68   1 H        0.924     0.027     2.632     2.537
    69   1 H        0.924     0.032     2.564     2.504
    70   1 H        0.924     0.027     2.625     2.534
    71   1 H        0.924     0.028     2.609     2.526
    72   1 H        0.924     0.027     2.624     2.533
    73   1 H        0.924     0.026     2.643     2.542
    74   1 H        0.924     0.030     2.587     2.515
    75   1 H        0.925     0.034     2.534     2.489
    76   1 H        0.925     0.031     2.570     2.507
    77   1 H        0.925     0.034     2.526     2.485
    78   1 H        0.927     0.093     1.854     2.129
    79   1 H        0.927     0.092     1.856     2.130
    80   1 H        0.924     0.064     2.156     2.296
    81   1 H        0.924     0.046     2.371     2.408
    82   1 H        0.924     0.052     2.300     2.372
    83   1 H        0.924     0.037     2.494     2.470
    84   1 H        0.925     0.049     2.337     2.391
    85   1 H        0.925     0.052     2.290     2.366
    86   1 H        0.925     0.034     2.534     2.489
    87   1 H        0.926     0.089     1.884     2.146
    88   1 H        0.927     0.084     1.936     2.176
    89   1 H        0.924     0.065     2.137     2.286
    90   1 H        0.924     0.049     2.330     2.387
    91   1 H        0.924     0.051     2.307     2.375
    92   1 H        0.924     0.033     2.538     2.492
    93   1 H        0.925     0.049     2.332     2.388
    94   1 H        0.925     0.053     2.286     2.365
    95   1 H        0.925     0.035     2.523     2.484

Wiberg/Mayer (AO) data.
largest (>0.10) Wiberg bond orders for each atom

     #   Z sym  total        # sym  WBO       # sym  WBO       # sym  WBO
 ---------------------------------------------------------------------------
     1   6 C    3.986 --     5 P    1.007     2 C    0.985    32 H    0.932
                            33 H    0.928
     2   6 C    3.989 --     3 C    1.001     1 C    0.985    34 H    0.970
                            35 H    0.967
     3   6 C    3.991 --     4 C    1.021     2 C    1.001    37 H    0.977
                            36 H    0.974
     4   6 C    3.994 --     3 C    1.021    38 H    0.987    40 H    0.986
                            39 H    0.984
     5  15 P    4.568 --     6 C    1.009    24 C    1.008     1 C    1.007
                            28 C    1.007
     6   6 C    3.986 --     5 P    1.009     7 C    0.989    42 H    0.932
                            41 H    0.930
     7   6 C    3.985 --     8 C    1.007     6 C    0.989    44 H    0.970
                            43 H    0.966
     8   6 C    3.994 --     9 C    1.007     7 C    1.007    45 H    0.970
                            46 H    0.963
     9   6 C    3.996 --     8 C    1.007    10 C    1.007    47 H    0.972
                            48 H    0.972
    10   6 C    3.996 --    11 C    1.007     9 C    1.007    50 H    0.975
                            49 H    0.973
    11   6 C    3.996 --    10 C    1.007    12 C    1.007    52 H    0.976
                            51 H    0.974
    12   6 C    3.997 --    13 C    1.008    11 C    1.007    54 H    0.976
                            53 H    0.974
    13   6 C    3.997 --    14 C    1.008    12 C    1.008    56 H    0.975
                            55 H    0.974
    14   6 C    3.997 --    15 C    1.008    13 C    1.008    58 H    0.975
                            57 H    0.974
    15   6 C    3.997 --    14 C    1.008    16 C    1.007    60 H    0.976
                            59 H    0.975
    16   6 C    3.997 --    17 C    1.008    15 C    1.007    62 H    0.976
                            61 H    0.975
    17   6 C    3.998 --    18 C    1.008    16 C    1.008    64 H    0.975
                            63 H    0.975
    18   6 C    3.998 --    19 C    1.008    17 C    1.008    66 H    0.975
                            65 H    0.975
    19   6 C    3.998 --    20 C    1.008    18 C    1.008    68 H    0.975
                            67 H    0.975
    20   6 C    3.998 --    19 C    1.008    21 C    1.008    69 H    0.976
                            70 H    0.975
    21   6 C    3.998 --    22 C    1.008    20 C    1.008    71 H    0.977
                            72 H    0.976
    22   6 C    3.998 --    23 C    1.020    21 C    1.008    73 H    0.979
                            74 H    0.976
    23   6 C    3.997 --    22 C    1.020    75 H    0.988    76 H    0.988
                            77 H    0.986
    24   6 C    3.986 --     5 P    1.008    25 C    0.982    79 H    0.929
                            78 H    0.928
    25   6 C    3.988 --    26 C    1.006    24 C    0.982    80 H    0.972
                            81 H    0.963
    26   6 C    3.994 --    27 C    1.021    25 C    1.006    82 H    0.975
                            83 H    0.972
    27   6 C    3.994 --    26 C    1.021    84 H    0.986    85 H    0.985
                            86 H    0.984
    28   6 C    3.985 --     5 P    1.007    29 C    0.987    88 H    0.934
                            87 H    0.933
    29   6 C    3.986 --    30 C    1.006    28 C    0.987    89 H    0.971
                            90 H    0.964
    30   6 C    3.995 --    31 C    1.021    29 C    1.006    91 H    0.976
                            92 H    0.972
    31   6 C    3.993 --    30 C    1.021    93 H    0.986    94 H    0.985
                            95 H    0.984
    32   1 H    0.992 --     1 C    0.932
    33   1 H    0.991 --     1 C    0.928
    34   1 H    0.997 --     2 C    0.970
    35   1 H    0.997 --     2 C    0.967
    36   1 H    0.996 --     3 C    0.974
    37   1 H    0.998 --     3 C    0.977
    38   1 H    0.998 --     4 C    0.987
    39   1 H    0.997 --     4 C    0.984
    40   1 H    0.999 --     4 C    0.986
    41   1 H    0.991 --     6 C    0.930
    42   1 H    0.993 --     6 C    0.932
    43   1 H    0.995 --     7 C    0.966
    44   1 H    0.998 --     7 C    0.970
    45   1 H    0.996 --     8 C    0.970
    46   1 H    0.999 --     8 C    0.963
    47   1 H    0.998 --     9 C    0.972
    48   1 H    1.000 --     9 C    0.972
    49   1 H    0.998 --    10 C    0.973
    50   1 H    0.999 --    10 C    0.975
    51   1 H    0.998 --    11 C    0.974
    52   1 H    0.999 --    11 C    0.976
    53   1 H    0.998 --    12 C    0.974
    54   1 H    0.999 --    12 C    0.976
    55   1 H    0.999 --    13 C    0.974
    56   1 H    1.000 --    13 C    0.975
    57   1 H    0.999 --    14 C    0.974
    58   1 H    0.999 --    14 C    0.975
    59   1 H    0.999 --    15 C    0.975
    60   1 H    0.999 --    15 C    0.976
    61   1 H    0.999 --    16 C    0.975
    62   1 H    0.999 --    16 C    0.976
    63   1 H    0.999 --    17 C    0.975
    64   1 H    0.999 --    17 C    0.975
    65   1 H    0.999 --    18 C    0.975
    66   1 H    0.999 --    18 C    0.975
    67   1 H    0.999 --    19 C    0.975
    68   1 H    0.999 --    19 C    0.975
    69   1 H    0.999 --    20 C    0.976
    70   1 H    0.999 --    20 C    0.975
    71   1 H    0.999 --    21 C    0.977
    72   1 H    0.999 --    21 C    0.976
    73   1 H    0.999 --    22 C    0.979
    74   1 H    0.999 --    22 C    0.976
    75   1 H    0.999 --    23 C    0.988
    76   1 H    0.999 --    23 C    0.988
    77   1 H    0.999 --    23 C    0.986
    78   1 H    0.991 --    24 C    0.928
    79   1 H    0.991 --    24 C    0.929
    80   1 H    0.996 --    25 C    0.972
    81   1 H    0.998 --    25 C    0.963
    82   1 H    0.997 --    26 C    0.975
    83   1 H    0.999 --    26 C    0.972
    84   1 H    0.998 --    27 C    0.986
    85   1 H    0.997 --    27 C    0.985
    86   1 H    0.999 --    27 C    0.984
    87   1 H    0.992 --    28 C    0.933
    88   1 H    0.992 --    28 C    0.934
    89   1 H    0.995 --    29 C    0.971
    90   1 H    0.997 --    29 C    0.964
    91   1 H    0.997 --    30 C    0.976
    92   1 H    0.999 --    30 C    0.972
    93   1 H    0.997 --    31 C    0.986
    94   1 H    0.997 --    31 C    0.985
    95   1 H    0.999 --    31 C    0.984
 ---------------------------------------------------------------------------

molecular dipole:
                 x           y           z       tot (Debye)
 q only:        0.261       1.888       2.885
   full:        0.361       1.962       2.891       8.928

           -------------------------------------------------
          | TOTAL ENERGY              -99.064390599478 Eh   |
          | GRADIENT NORM               0.000449122145 Eh/α |
          | HOMO-LUMO GAP               4.319202396336 eV   |
           -------------------------------------------------

 * finished run on 2024/12/20 at 02:12:59.713
