   * xtb version 6.7.1 (edcfbbe) compiled by 'conda@3ef47c1a292c' on 2024-11-25

   ID    Z sym.   atoms
    1    6 C      1-8, 10-27
    2   15 P      9
    3    1 H      28-83

          program call               : xtb C0269.xyz --opt --namespace C0269 --charge +1
          :  Hamiltonian                  GFN2-xTB          :
 * total energy  :   -86.3939169 Eh     change       -0.2921041E-09 Eh
 * total energy  :   -86.4006840 Eh     change       -0.6767106E-02 Eh
 * total energy  :   -86.4024801 Eh     change       -0.1796058E-02 Eh
 * total energy  :   -86.4028272 Eh     change       -0.3470914E-03 Eh
 * total energy  :   -86.4031125 Eh     change       -0.2853263E-03 Eh
 * total energy  :   -86.4033603 Eh     change       -0.2477605E-03 Eh
 * total energy  :   -86.4036487 Eh     change       -0.2884017E-03 Eh
 * total energy  :   -86.4039393 Eh     change       -0.2906163E-03 Eh
 * total energy  :   -86.4041554 Eh     change       -0.2161694E-03 Eh
 * total energy  :   -86.4043083 Eh     change       -0.1528776E-03 Eh
 * total energy  :   -86.4113532 Eh     change       -0.1740844E-04 Eh
 * total energy  :   -86.4113699 Eh     change       -0.1674315E-04 Eh
 * total energy  :   -86.4113864 Eh     change       -0.1652159E-04 Eh
 * total energy  :   -86.4114047 Eh     change       -0.1831174E-04 Eh
 * total energy  :   -86.4114255 Eh     change       -0.2075132E-04 Eh
 * total energy  :   -86.4114460 Eh     change       -0.2048697E-04 Eh
 * total energy  :   -86.4114620 Eh     change       -0.1602366E-04 Eh
 * total energy  :   -86.4114725 Eh     change       -0.1049903E-04 Eh
 * total energy  :   -86.4114768 Eh     change       -0.4307038E-05 Eh
   *** GEOMETRY OPTIMIZATION CONVERGED AFTER 94 ITERATIONS ***

 final structure:
================
83
 xtb: 6.7.1 (edcfbbe)
C            2.50722281247654        0.23988955180698        0.97102389795493
C            1.88534295790945       -0.22209236055184        2.28326327851241
C            1.54229649056471        0.92996662847793        3.22941821718771
C            0.52701505925605        1.93532443218456        2.68127748644566
C           -0.82545844071187        1.33848314983660        2.28695490253515
C           -1.56504254973235        0.60467015967021        3.40898121047696
C           -1.84546748635556        1.44215267627987        4.65930872904738
C           -2.73678655958421        2.66887950585714        4.41567386530867
P           -4.51445964357055        2.37529429460461        4.71694151239560
C           -4.76947997259697        1.84108884478947        6.45139435475287
C           -3.90372346374392        2.53947018879492        7.50140538352337
C           -4.17330935647481        4.03641497655512        7.64757593582226
C           -5.56006303194084        4.39344894134588        8.18906975002220
C           -5.87890855123721        3.82525497707697        9.57443901765497
C           -4.90148466184265        4.22496919560792       10.68163158856715
C           -4.77785560618914        5.73098397248716       10.91938851248167
C           -6.08229185173161        6.37693461306773       11.37078839524431
C           -5.54646803577484        3.85661643140027        4.36278746560188
C           -4.83438648606503        5.03388330800258        3.69123400299304
C           -4.61450835407509        4.84392897611387        2.19012300877158
C           -5.88322176683478        4.97345772401900        1.34290601112151
C           -6.54737060769432        6.35233188029609        1.37484469488154
C           -5.64941951319852        7.51846598197247        0.95646257367031
C           -5.05556192607906        7.40395811622207       -0.44855884019336
C           -6.11212181690780        7.35923818761895       -1.54587868201858
C           -5.16626052617415        0.96592894870814        3.74626792738617
C           -5.16953579949537        1.16726245507828        2.23618486055108
H            1.79852907668262        0.80817687212563        0.37377935691713
H            2.82595051444928       -0.61909473821133        0.38612712907401
H            3.37714950449903        0.86397647592032        1.16113878395058
H            0.99315311016888       -0.81591072465527        2.07460883282170
H            2.59429755053910       -0.87557945214568        2.79609440432962
H            1.17642133474194        0.51256469626205        4.17058381749748
H            2.46087119330087        1.47564223852341        3.45617652524999
H            0.37943912724771        2.72060541417127        3.42705388818368
H            0.94940422438886        2.41667191689726        1.79842723712683
H           -1.44935255287040        2.14257716058945        1.88529582286735
H           -0.67475632008060        0.62831555707602        1.47324017702337
H           -2.50023421706203        0.21267379951238        3.00501755935080
H           -0.96611881390065       -0.25302304479454        3.71690164203576
H           -2.29314872972370        0.79494310420266        5.41824570857633
H           -0.89190530782979        1.78794149278758        5.05908268002743
H           -2.45552725990779        3.48165869486173        5.09147965673286
H           -2.61098151031507        3.03708789424081        3.39689828973507
H           -5.83095072885450        1.98186124219415        6.67343418876052
H           -4.57330451371078        0.76446720969839        6.47648703776741
H           -4.08098634155708        2.05001572862031        8.45973124267098
H           -2.84934735965654        2.39129378275443        7.25942547765526
H           -3.42299676869892        4.44934736538999        8.32233138361306
H           -4.03512960059940        4.52386164940121        6.67630776832893
H           -5.63355288874188        5.48109538840776        8.22737704627144
H           -6.33606119088323        4.04799147356933        7.49937630221500
H           -6.87974456491346        4.16067408808201        9.84921260205739
H           -5.91616546921869        2.73426706684241        9.52428719601503
H           -5.24062065726164        3.75660210663124       11.60807809823236
H           -3.91106379016689        3.81982064866478       10.46184660694010
H           -4.02382987739642        5.88645648146358       11.69383588101996
H           -4.41832818772719        6.22709557049873       10.01551760548798
H           -6.47608266057043        5.86571571083691       12.24603912437055
H           -5.91331495460632        7.41838631328297       11.63239826601323
H           -6.83393300944627        6.34571943713146       10.58580480158252
H           -6.38298077728765        3.52321464654292        3.74371363171856
H           -5.95938062598096        4.17677328689512        5.32212489387577
H           -5.44115604410410        5.92635891368107        3.84609917095723
H           -3.87505052878201        5.21534977593273        4.18033516571189
H           -3.89283793097745        5.58633820935354        1.84968925607985
H           -4.17816373351337        3.85736885994449        2.01016952152696
H           -5.62225689316338        4.73141348053046        0.31192697276710
H           -6.62549335239853        4.23669870587735        1.66337918469742
H           -7.41370052150073        6.31827047963292        0.71315953470548
H           -6.92814809431320        6.55499306269838        2.37890017923503
H           -6.24774029436948        8.43079492302111        1.00452565137681
H           -4.83532255894517        7.63220827856524        1.67626105055934
H           -4.41591525054739        8.27375555054331       -0.61301573390922
H           -4.42003631081459        6.51865880201368       -0.51817706325967
H           -6.78593284246894        8.20823633851761       -1.45884363494247
H           -5.63859395903300        7.39928322619434       -2.52359999380135
H           -6.69967363647800        6.44592342000208       -1.49431476683493
H           -4.57237603216401        0.08770159574225        4.01421351453532
H           -6.18664862367613        0.79736614382816        4.10731869278162
H           -4.16686519562743        1.34644519560236        1.85549387966739
H           -5.55414041031361        0.27179073447183        1.75372377857999
H           -5.80496605503901        1.99954199261143        1.94533591288513

          :  Hamiltonian                  GFN2-xTB          :
         :: total energy             -86.411476814488 Eh    ::
         :: gradient norm              0.000278003107 Eh/a0 ::
         :: HOMO-LUMO gap              5.614357194181 eV    ::
         :: SCC energy               -87.688231598057 Eh    ::
         :: -> dispersion             -0.075505715101 Eh    ::
         :: repulsion energy           1.276754783570 Eh    ::

    * Orbital Energies and Occupations

         #    Occupation            Energy/Eh            Energy/eV
      -------------------------------------------------------------
         1        2.0000           -0.8396550             -22.8482
       ...           ...                  ...                  ...
        70        2.0000           -0.5254103             -14.2971
        71        2.0000           -0.5232808             -14.2392
        72        2.0000           -0.5212029             -14.1827
        73        2.0000           -0.5210072             -14.1773
        74        2.0000           -0.5025969             -13.6764
        75        2.0000           -0.5011353             -13.6366
        76        2.0000           -0.5006970             -13.6247
        77        2.0000           -0.4988813             -13.5752
        78        2.0000           -0.4972834             -13.5318
        79        2.0000           -0.4971167             -13.5272
        80        2.0000           -0.4947018             -13.4615
        81        2.0000           -0.4932373             -13.4217
        82        2.0000           -0.4930918             -13.4177 (HOMO)
        83                         -0.2867680              -7.8034 (LUMO)
        84                         -0.2840198              -7.7286
        85                         -0.2636707              -7.1748
        86                         -0.1887162              -5.1352
        87                         -0.1100115              -2.9936
        88                         -0.0681887              -1.8555
        89                         -0.0523244              -1.4238
        90                         -0.0428082              -1.1649
        91                         -0.0417426              -1.1359
        92                         -0.0336516              -0.9157
        93                         -0.0320478              -0.8721
       ...                                ...                  ...
       169                          0.7990628              21.7436
      -------------------------------------------------------------
                  HL-Gap            0.2063238 Eh            5.6144 eV

     #   Z          covCN         q      C6AA      α(0)
     1   6 C        3.751    -0.105    22.566     6.774
     2   6 C        3.799    -0.054    21.547     6.609
     3   6 C        3.800    -0.060    21.655     6.626
     4   6 C        3.800    -0.061    21.674     6.629
     5   6 C        3.800    -0.060    21.649     6.625
     6   6 C        3.800    -0.066    21.759     6.641
     7   6 C        3.854    -0.062    21.645     6.617
     8   6 C        3.750    -0.069    21.883     6.672
     9  15 P        3.917     0.179   152.521    22.185
    10   6 C        3.750    -0.076    22.019     6.692
    11   6 C        3.843    -0.064    21.703     6.627
    12   6 C        3.800    -0.064    21.725     6.636
    13   6 C        3.800    -0.059    21.634     6.622
    14   6 C        3.800    -0.061    21.667     6.628
    15   6 C        3.801    -0.061    21.670     6.628
    16   6 C        3.799    -0.054    21.548     6.609
    17   6 C        3.751    -0.105    22.567     6.775
    18   6 C        3.750    -0.075    21.998     6.689
    19   6 C        3.839    -0.063    21.684     6.625
    20   6 C        3.800    -0.064    21.737     6.638
    21   6 C        3.800    -0.059    21.639     6.623
    22   6 C        3.800    -0.061    21.672     6.628
    23   6 C        3.800    -0.061    21.667     6.627
    24   6 C        3.799    -0.054    21.544     6.609
    25   6 C        3.751    -0.105    22.567     6.775
    26   6 C        3.749    -0.070    21.906     6.675
    27   6 C        3.802    -0.113    22.664     6.778
    28   1 H        0.925     0.033     2.541     2.493
    29   1 H        0.925     0.039     2.466     2.456
    30   1 H        0.925     0.039     2.463     2.454
    31   1 H        0.924     0.028     2.614     2.528
    32   1 H        0.924     0.035     2.520     2.483
    33   1 H        0.924     0.025     2.660     2.550
    34   1 H        0.924     0.038     2.473     2.459
    35   1 H        0.924     0.024     2.675     2.558
    36   1 H        0.924     0.044     2.390     2.418
    37   1 H        0.924     0.018     2.764     2.600
    38   1 H        0.924     0.049     2.328     2.386
    39   1 H        0.924     0.033     2.549     2.497
    40   1 H        0.924     0.056     2.246     2.344
    41   1 H        0.924     0.045     2.384     2.414
    42   1 H        0.924     0.067     2.121     2.278
    43   1 H        0.928     0.088     1.896     2.153
    44   1 H        0.926     0.100     1.782     2.088
    45   1 H        0.927     0.088     1.900     2.155
    46   1 H        0.927     0.080     1.982     2.201
    47   1 H        0.924     0.069     2.094     2.263
    48   1 H        0.924     0.049     2.332     2.388
    49   1 H        0.924     0.058     2.221     2.331
    50   1 H        0.924     0.028     2.614     2.528
    51   1 H        0.924     0.047     2.359     2.402
    52   1 H        0.924     0.016     2.791     2.613
    53   1 H        0.924     0.045     2.385     2.415
    54   1 H        0.924     0.026     2.649     2.545
    55   1 H        0.924     0.040     2.452     2.449
    56   1 H        0.924     0.027     2.634     2.538
    57   1 H        0.924     0.035     2.512     2.479
    58   1 H        0.924     0.027     2.625     2.534
    59   1 H        0.925     0.040     2.454     2.450
    60   1 H        0.925     0.039     2.464     2.455
    61   1 H        0.925     0.033     2.550     2.497
    62   1 H        0.926     0.091     1.869     2.138
    63   1 H        0.927     0.090     1.877     2.143
    64   1 H        0.924     0.070     2.085     2.258
    65   1 H        0.924     0.044     2.402     2.424
    66   1 H        0.925     0.056     2.248     2.345
    67   1 H        0.924     0.029     2.604     2.524
    68   1 H        0.924     0.047     2.361     2.403
    69   1 H        0.924     0.019     2.746     2.591
    70   1 H        0.924     0.045     2.381     2.413
    71   1 H        0.924     0.026     2.648     2.545
    72   1 H        0.924     0.039     2.457     2.451
    73   1 H        0.924     0.026     2.646     2.544
    74   1 H        0.924     0.034     2.524     2.484
    75   1 H        0.924     0.027     2.632     2.537
    76   1 H        0.925     0.040     2.455     2.450
    77   1 H        0.925     0.038     2.471     2.458
    78   1 H        0.925     0.033     2.543     2.494
    79   1 H        0.927     0.087     1.907     2.159
    80   1 H        0.927     0.083     1.945     2.181
    81   1 H        0.925     0.061     2.187     2.313
    82   1 H        0.925     0.071     2.080     2.255
    83   1 H        0.925     0.063     2.167     2.302

Wiberg/Mayer (AO) data.
largest (>0.10) Wiberg bond orders for each atom

     #   Z sym  total        # sym  WBO       # sym  WBO       # sym  WBO
 ---------------------------------------------------------------------------
     1   6 C    3.996 --     2 C    1.020    30 H    0.987    29 H    0.987
                            28 H    0.986
     2   6 C    3.998 --     1 C    1.020     3 C    1.008    32 H    0.978
                            31 H    0.976
     3   6 C    3.997 --     2 C    1.008     4 C    1.007    34 H    0.976
                            33 H    0.976
     4   6 C    3.996 --     3 C    1.007     5 C    1.007    35 H    0.976
                            36 H    0.974
     5   6 C    3.995 --     4 C    1.007     6 C    1.007    38 H    0.972
                            37 H    0.972
     6   6 C    3.993 --     5 C    1.007     7 C    1.006    40 H    0.971
                            39 H    0.970
     7   6 C    3.987 --     6 C    1.006     8 C    0.981    42 H    0.968
                            41 H    0.964
     8   6 C    3.985 --     9 P    1.007     7 C    0.981    43 H    0.928
                            44 H    0.925
     9  15 P    4.559 --    26 C    1.007     8 C    1.007    10 C    1.006
                            18 C    0.994
    10   6 C    3.988 --     9 P    1.006    11 C    0.990    46 H    0.936
                            45 H    0.932
    11   6 C    3.986 --    12 C    1.008    10 C    0.990    48 H    0.969
                            47 H    0.965
    12   6 C    3.994 --    11 C    1.008    13 C    1.007    49 H    0.971
                            50 H    0.960
    13   6 C    3.996 --    12 C    1.007    14 C    1.006    51 H    0.973
                            52 H    0.970
    14   6 C    3.996 --    15 C    1.008    13 C    1.006    54 H    0.975
                            53 H    0.974
    15   6 C    3.996 --    16 C    1.008    14 C    1.008    55 H    0.976
                            56 H    0.976
    16   6 C    3.998 --    17 C    1.020    15 C    1.008    57 H    0.978
                            58 H    0.976
    17   6 C    3.996 --    16 C    1.020    59 H    0.987    60 H    0.987
                            61 H    0.986
    18   6 C    3.984 --     9 P    0.994    19 C    0.989    63 H    0.931
                            62 H    0.931
    19   6 C    3.988 --    20 C    1.007    18 C    0.989    65 H    0.968
                            64 H    0.964
    20   6 C    3.994 --    19 C    1.007    21 C    1.007    66 H    0.971
                            67 H    0.963
    21   6 C    3.996 --    20 C    1.007    22 C    1.007    68 H    0.973
                            69 H    0.971
    22   6 C    3.995 --    23 C    1.008    21 C    1.007    71 H    0.974
                            70 H    0.974
    23   6 C    3.997 --    24 C    1.008    22 C    1.008    72 H    0.976
                            73 H    0.976
    24   6 C    3.998 --    25 C    1.020    23 C    1.008    74 H    0.978
                            75 H    0.976
    25   6 C    3.996 --    24 C    1.020    76 H    0.987    77 H    0.987
                            78 H    0.986
    26   6 C    3.991 --     9 P    1.007    27 C    1.005    79 H    0.935
                            80 H    0.934
    27   6 C    3.984 --    26 C    1.005    82 H    0.978    81 H    0.977
                            83 H    0.976
    28   1 H    0.999 --     1 C    0.986
    29   1 H    0.998 --     1 C    0.987
    30   1 H    0.998 --     1 C    0.987
    31   1 H    0.999 --     2 C    0.976
    32   1 H    0.999 --     2 C    0.978
    33   1 H    0.999 --     3 C    0.976
    34   1 H    0.999 --     3 C    0.976
    35   1 H    0.999 --     4 C    0.976
    36   1 H    0.998 --     4 C    0.974
    37   1 H    1.000 --     5 C    0.972
    38   1 H    0.997 --     5 C    0.972
    39   1 H    0.999 --     6 C    0.970
    40   1 H    0.996 --     6 C    0.971
    41   1 H    0.998 --     7 C    0.964
    42   1 H    0.995 --     7 C    0.968
    43   1 H    0.992 --     8 C    0.928
    44   1 H    0.990 --     8 C    0.925
    45   1 H    0.992 --    10 C    0.932
    46   1 H    0.993 --    10 C    0.936
    47   1 H    0.995 --    11 C    0.965
    48   1 H    0.998 --    11 C    0.969
    49   1 H    0.997 --    12 C    0.971
    50   1 H    0.999 --    12 C    0.960
    51   1 H    0.998 --    13 C    0.973
    52   1 H    1.000 --    13 C    0.970
    53   1 H    0.998 --    14 C    0.974
    54   1 H    0.999 --    14 C    0.975
    55   1 H    0.998 --    15 C    0.976
    56   1 H    0.999 --    15 C    0.976
    57   1 H    0.999 --    16 C    0.978
    58   1 H    0.999 --    16 C    0.976
    59   1 H    0.998 --    17 C    0.987
    60   1 H    0.998 --    17 C    0.987
    61   1 H    0.999 --    17 C    0.986
    62   1 H    0.991 --    18 C    0.931
    63   1 H    0.992 --    18 C    0.931
    64   1 H    0.995 --    19 C    0.964
    65   1 H    0.998 --    19 C    0.968
    66   1 H    0.997 --    20 C    0.971
    67   1 H    0.999 --    20 C    0.963
    68   1 H    0.998 --    21 C    0.973
    69   1 H    1.000 --    21 C    0.971
    70   1 H    0.998 --    22 C    0.974
    71   1 H    0.999 --    22 C    0.974
    72   1 H    0.998 --    23 C    0.976
    73   1 H    0.999 --    23 C    0.976
    74   1 H    0.999 --    24 C    0.978
    75   1 H    0.999 --    24 C    0.976
    76   1 H    0.998 --    25 C    0.987
    77   1 H    0.999 --    25 C    0.987
    78   1 H    0.999 --    25 C    0.986
    79   1 H    0.992 --    26 C    0.935
    80   1 H    0.993 --    26 C    0.934
    81   1 H    0.996 --    27 C    0.977
    82   1 H    0.995 --    27 C    0.978
    83   1 H    0.996 --    27 C    0.976
 ---------------------------------------------------------------------------

molecular dipole:
                 x           y           z       tot (Debye)
 q only:       -8.054       4.972       8.685
   full:       -8.173       4.869       8.783      32.910

           -------------------------------------------------
          | TOTAL ENERGY              -86.411476814488 Eh   |
          | GRADIENT NORM               0.000278003107 Eh/α |
          | HOMO-LUMO GAP               5.614357194181 eV   |
           -------------------------------------------------

 * finished run on 2024/12/20 at 02:13:12.593
