   * xtb version 6.7.1 (edcfbbe) compiled by 'conda@3ef47c1a292c' on 2024-11-25

   ID    Z sym.   atoms
    1    6 C      1, 3-5, 7-12
    2    7 N      2, 6
    3    1 H      13-25

          program call               : xtb C0265.xyz --opt --namespace C0265 --charge +1
          :  Hamiltonian                  GFN2-xTB          :
 * total energy  :   -33.4155021 Eh     change       -0.7810144E-09 Eh
 * total energy  :   -33.4476363 Eh     change       -0.3213428E-01 Eh
 * total energy  :   -33.4494146 Eh     change       -0.1778226E-02 Eh
 * total energy  :   -33.4498753 Eh     change       -0.4607717E-03 Eh
 * total energy  :   -33.4501409 Eh     change       -0.2655730E-03 Eh
 * total energy  :   -33.4503554 Eh     change       -0.2144613E-03 Eh
 * total energy  :   -33.4505362 Eh     change       -0.1808444E-03 Eh
 * total energy  :   -33.4506993 Eh     change       -0.1631320E-03 Eh
 * total energy  :   -33.4508241 Eh     change       -0.1247935E-03 Eh
 * total energy  :   -33.4509452 Eh     change       -0.1210508E-03 Eh
 * total energy  :   -33.4510058 Eh     change       -0.6058365E-04 Eh
 * total energy  :   -33.4510450 Eh     change       -0.3924806E-04 Eh
 * total energy  :   -33.4510583 Eh     change       -0.1329199E-04 Eh
 * total energy  :   -33.4510645 Eh     change       -0.6244923E-05 Eh
 * total energy  :   -33.4510682 Eh     change       -0.3688489E-05 Eh
   *** GEOMETRY OPTIMIZATION CONVERGED AFTER 15 ITERATIONS ***

 final structure:
================
25
 xtb: 6.7.1 (edcfbbe)
C            1.12708436072731        0.23541142057552       -0.20032815645508
N            0.02934285752791        0.49611268723365       -0.37809076075109
C            2.53854157499205       -0.02724715557906       -0.05704760400543
C            3.17381222532635       -0.42098771207800       -1.39935600052964
C            2.75575632474755        0.49088342626963       -2.56208020599972
N            3.10634051844794        1.88225663855606       -2.32332168189003
C            2.17326909594037        2.76496731204053       -1.94149277691071
C            2.49735973962797        4.07461977381793       -1.67392477049447
C            3.81806830861105        4.51763709385373       -1.79676812693760
C            4.76423995323751        3.56871729519463       -2.20472294877072
C            4.38224879126100        2.27472761090355       -2.45843505870614
C            4.19814599072714        5.92167440555195       -1.53194399931287
H            3.00906286706628        0.87080492246310        0.35654924416067
H            2.67319274645351       -0.83607044811463        0.66446533458265
H            4.25936085738931       -0.42139287991556       -1.28709594282556
H            2.86432346028177       -1.43332826416974       -1.66276875621290
H            3.25152994732655        0.15500836835620       -3.47596089119791
H            1.67583786607069        0.42362261720388       -2.70704477912711
H            1.15851105945130        2.40645788303046       -1.84314436732841
H            1.71869308733844        4.75605441802176       -1.36901167114877
H            5.79888796528372        3.84922811001687       -2.32535304095544
H            5.09466845814778        1.52923050316878       -2.77983793201557
H            4.22441650032759        6.47107304031857       -2.47499197482692
H            3.47921412606512        6.41384460821256       -0.88282439229428
H            5.19259131762312        5.98559432506837       -1.09622874004676

          :  Hamiltonian                  GFN2-xTB          :
         :: total energy             -33.451068236291 Eh    ::
         :: gradient norm              0.000642088303 Eh/a0 ::
         :: HOMO-LUMO gap              2.492218274060 eV    ::
         :: SCC energy               -34.045932418373 Eh    ::
         :: -> dispersion             -0.020320111271 Eh    ::
         :: repulsion energy           0.594864182082 Eh    ::

    * Orbital Energies and Occupations

         #    Occupation            Energy/Eh            Energy/eV
      -------------------------------------------------------------
         1        2.0000           -0.8786090             -23.9082
       ...           ...                  ...                  ...
        19        2.0000           -0.6632125             -18.0469
        20        2.0000           -0.6537946             -17.7907
        21        2.0000           -0.6313371             -17.1796
        22        2.0000           -0.6288348             -17.1115
        23        2.0000           -0.6263338             -17.0434
        24        2.0000           -0.6185805             -16.8324
        25        2.0000           -0.6148348             -16.7305
        26        2.0000           -0.6097961             -16.5934
        27        2.0000           -0.6051868             -16.4680
        28        2.0000           -0.5950051             -16.1909
        29        2.0000           -0.5898676             -16.0511
        30        2.0000           -0.5825054             -15.8508
        31        2.0000           -0.5452141             -14.8360 (HOMO)
        32                         -0.4536268             -12.3438 (LUMO)
        33                         -0.4245590             -11.5528
        34                         -0.3316813              -9.0255
        35                         -0.3259395              -8.8693
        36                         -0.3062616              -8.3338
        37                         -0.1772045              -4.8220
        38                         -0.0874616              -2.3800
        39                         -0.0735779              -2.0022
        40                         -0.0553524              -1.5062
        41                         -0.0394898              -1.0746
        42                         -0.0319152              -0.8685
       ...                                ...                  ...
        61                          1.0222811              27.8177
      -------------------------------------------------------------
                  HL-Gap            0.0915873 Eh            2.4922 eV

     #   Z          covCN         q      C6AA      α(0)
     1   6 C        1.897     0.110    28.382     8.604
     2   7 N        0.911    -0.216    25.715     7.334
     3   6 C        3.803    -0.062    21.681     6.629
     4   6 C        3.806    -0.063    21.699     6.631
     5   6 C        3.756    -0.034    21.241     6.571
     6   7 N        2.749     0.095    19.605     6.576
     7   6 C        2.886     0.030    27.333     8.571
     8   6 C        2.920    -0.026    28.651     8.778
     9   6 C        2.969     0.073    26.366     8.423
    10   6 C        2.920    -0.027    28.684     8.783
    11   6 C        2.888     0.029    27.350     8.574
    12   6 C        3.758    -0.135    23.139     6.858
    13   1 H        0.924     0.067     2.117     2.275
    14   1 H        0.924     0.099     1.791     2.093
    15   1 H        0.924     0.064     2.147     2.292
    16   1 H        0.924     0.086     1.922     2.168
    17   1 H        0.924     0.094     1.844     2.124
    18   1 H        0.924     0.098     1.807     2.102
    19   1 H        0.926     0.114     1.659     2.014
    20   1 H        0.926     0.105     1.741     2.063
    21   1 H        0.926     0.102     1.767     2.079
    22   1 H        0.926     0.103     1.757     2.073
    23   1 H        0.924     0.110     1.697     2.037
    24   1 H        0.925     0.090     1.880     2.144
    25   1 H        0.925     0.093     1.848     2.126

Wiberg/Mayer (AO) data.
largest (>0.10) Wiberg bond orders for each atom

     #   Z sym  total        # sym  WBO       # sym  WBO       # sym  WBO
 ---------------------------------------------------------------------------
     1   6 C    3.948 --     2 N    2.857     3 C    1.050
     2   7 N    3.016 --     1 C    2.857
     3   6 C    3.994 --     1 C    1.050     4 C    0.983    13 H    0.946
                            14 H    0.939
     4   6 C    3.984 --     5 C    0.986     3 C    0.983    15 H    0.973
                            16 H    0.967
     5   6 C    3.939 --     4 C    0.986     6 N    0.965    18 H    0.963
                            17 H    0.959
     6   7 N    3.752 --     7 C    1.314    11 C    1.303     5 C    0.965
     7   6 C    3.956 --     8 C    1.486     6 N    1.314    19 H    0.950
     8   6 C    3.983 --     7 C    1.486     9 C    1.367    20 H    0.958
     9   6 C    3.969 --     8 C    1.367    10 C    1.354    12 C    1.067
    10   6 C    3.984 --    11 C    1.502     9 C    1.354    21 H    0.959
    11   6 C    3.960 --    10 C    1.502     6 N    1.303    22 H    0.955
    12   6 C    3.983 --     9 C    1.067    24 H    0.971    25 H    0.962
                            23 H    0.926
    13   1 H    0.995 --     3 C    0.946
    14   1 H    0.990 --     3 C    0.939
    15   1 H    0.996 --     4 C    0.973
    16   1 H    0.992 --     4 C    0.967
    17   1 H    0.991 --     5 C    0.959
    18   1 H    0.990 --     5 C    0.963
    19   1 H    0.987 --     7 C    0.950
    20   1 H    0.989 --     8 C    0.958
    21   1 H    0.989 --    10 C    0.959
    22   1 H    0.989 --    11 C    0.955
    23   1 H    0.987 --    12 C    0.926
    24   1 H    0.991 --    12 C    0.971
    25   1 H    0.991 --    12 C    0.962
 ---------------------------------------------------------------------------

molecular dipole:
                 x           y           z       tot (Debye)
 q only:        7.219       4.986      -3.759
   full:        7.651       4.817      -3.721      24.851

           -------------------------------------------------
          | TOTAL ENERGY              -33.451068236291 Eh   |
          | GRADIENT NORM               0.000642088303 Eh/α |
          | HOMO-LUMO GAP               2.492218274060 eV   |
           -------------------------------------------------

 * finished run on 2024/12/20 at 02:13:00.299
