   * xtb version 6.7.1 (edcfbbe) compiled by 'conda@3ef47c1a292c' on 2024-11-25

   ID    Z sym.   atoms
    1    8 O      1, 3
    2    7 N      2, 7, 10
    3    6 C      4-6, 8, 9, 11-27
    4    1 H      28-61

          program call               : xtb C0268.xyz --opt --namespace C0268 --charge +1
          :  Hamiltonian                  GFN2-xTB          :
 * total energy  :   -80.9233447 Eh     change       -0.7512853E-09 Eh
 * total energy  :   -80.9359714 Eh     change       -0.1262676E-01 Eh
 * total energy  :   -80.9393647 Eh     change       -0.3393301E-02 Eh
 * total energy  :   -80.9403619 Eh     change       -0.9971101E-03 Eh
 * total energy  :   -80.9407825 Eh     change       -0.4206033E-03 Eh
 * total energy  :   -80.9408851 Eh     change       -0.1026092E-03 Eh
 * total energy  :   -80.9409460 Eh     change       -0.6096259E-04 Eh
 * total energy  :   -80.9409898 Eh     change       -0.4375411E-04 Eh
 * total energy  :   -80.9410438 Eh     change       -0.5401041E-04 Eh
 * total energy  :   -80.9410774 Eh     change       -0.3364464E-04 Eh
 * total energy  :   -80.9412389 Eh     change       -0.3213147E-04 Eh
 * total energy  :   -80.9412543 Eh     change       -0.1537780E-04 Eh
 * total energy  :   -80.9412959 Eh     change       -0.4156704E-04 Eh
 * total energy  :   -80.9413112 Eh     change       -0.1535919E-04 Eh
 * total energy  :   -80.9413245 Eh     change       -0.1329868E-04 Eh
 * total energy  :   -80.9413352 Eh     change       -0.1070051E-04 Eh
 * total energy  :   -80.9413449 Eh     change       -0.9687442E-05 Eh
 * total energy  :   -80.9413526 Eh     change       -0.7678996E-05 Eh
 * total energy  :   -80.9413563 Eh     change       -0.3696144E-05 Eh
   *** GEOMETRY OPTIMIZATION CONVERGED AFTER 22 ITERATIONS ***

 final structure:
================
61
 xtb: 6.7.1 (edcfbbe)
O            1.83472734861525       -1.34651953251569        1.23479818554727
N            2.51462681105113       -0.64820605796611        0.50287754488602
O            2.79798197267652        0.50150847736134        0.71289129194091
C            3.13966412950114       -1.31568880554564       -0.62083642119578
C            4.29722300393139       -2.03508102791467       -0.29200381813002
C            4.82568741575824       -2.10715358593033        1.12915720051539
N            4.40202431145251       -3.33549129526570        1.77647237588791
C            5.09118783577755       -4.50898870953336        1.79577109117332
C            4.32135822166708       -5.41892525860028        2.45424701434142
N            3.17143536729756       -4.79034540931875        2.82337880520772
C            3.24712068345986       -3.53116216716869        2.40550665417237
C            2.01330743521238       -5.34730984534514        3.54764309374884
C            1.85398223114286       -4.56321312429483        4.85127041649401
C            0.78350946980677       -5.18206033317019        2.65249626676519
C            2.25306373430441       -6.82317026526165        3.84659336375386
C            4.99118241214650       -2.69979441317970       -1.28368282891180
C            4.55991964271378       -2.67406526308719       -2.60743132182327
C            3.40957262444739       -1.95813726472132       -2.88837136578161
C            2.67102516051610       -1.25735874134260       -1.93066807479693
C            1.41599597744864       -0.54063326286518       -2.41515532576894
C            1.80804156388679        0.43209793220806       -3.53907932013337
C            0.44368158266113       -1.60577568528806       -2.94919152670703
C            0.67443191720921        0.27223274270174       -1.35221029193384
C            5.36107510243046       -3.40416170423017       -3.67043959933915
C            6.76479306543596       -2.78454985953671       -3.73218735871515
C            5.45876006984577       -4.88959988330645       -3.29344469670832
C            4.72876114596872       -3.30262350860789       -5.06016336105986
H            5.91770299687356       -2.10221280668834        1.10388516430695
H            4.49820573831241       -1.26067952522344        1.73608954755691
H            6.06402773325177       -4.61881146321606        1.36344414995368
H            4.52993609535124       -6.44460845181114        2.67192455557957
H            2.48641666556947       -2.78173752661904        2.52053648819443
H            1.63705665639876       -3.51560991488851        4.66208315762339
H            1.03047024381381       -4.97798374318147        5.42450284206360
H            2.75594879228094       -4.63193131175473        5.45528300760433
H            0.92750486865670       -5.69483739667471        1.70400345322281
H           -0.08242769264545       -5.61502706224574        3.14387075095050
H            0.57021222355885       -4.13523694410452        2.45434710722939
H            2.37659328287890       -7.39813132259889        2.93199747897818
H            3.12083034890754       -6.96296490477653        4.48654660392951
H            1.38914600835976       -7.21986991175071        4.37176097479740
H            5.89088728179253       -3.23217219267698       -1.01881543070063
H            3.05887252749394       -1.92927213398139       -3.90374335538932
H            2.20637863037021       -0.08007343082625       -4.40919708329427
H            0.93194477690966        0.99151688348271       -3.85523332724571
H            2.55397933348378        1.13893588625012       -3.18274107743478
H            0.15323028898755       -2.28741243428447       -2.15192520375799
H           -0.45275123489144       -1.12286610410067       -3.32816151957559
H            0.87945287380001       -2.18821075470666       -3.75539882180660
H            0.33117710985083       -0.34742313778965       -0.52707083829512
H            1.27868640046011        1.09412727581741       -0.97680767338451
H           -0.21352046207516        0.70650202362267       -1.80635255033736
H            7.29672444626001       -2.89621602094255       -2.79131762345174
H            7.34787278884293       -3.27080821424057       -4.50951940791274
H            6.69958540900038       -1.72425114397282       -3.96489355396308
H            4.46531297216893       -5.32346386328553       -3.20101671499162
H            5.99678138964898       -5.42952900882346       -4.06775926428003
H            5.98782719904627       -5.03494072713717       -2.35538860641222
H            3.73364682370837       -3.74122429910037       -5.07463290083531
H            4.67552941331441       -2.26951390372410       -5.39446213148522
H            5.34168783389183       -3.84818656231459       -5.77303619086149

          :  Hamiltonian                  GFN2-xTB          :
         :: total energy             -80.941356280848 Eh    ::
         :: gradient norm              0.000319140283 Eh/a0 ::
         :: HOMO-LUMO gap              2.594447131229 eV    ::
         :: SCC energy               -82.107359057849 Eh    ::
         :: -> dispersion             -0.063879289066 Eh    ::
         :: repulsion energy           1.166002777000 Eh    ::

    * Orbital Energies and Occupations

         #    Occupation            Energy/Eh            Energy/eV
      -------------------------------------------------------------
         1        2.0000           -0.8838579             -24.0510
       ...           ...                  ...                  ...
        62        2.0000           -0.5480092             -14.9121
        63        2.0000           -0.5462478             -14.8642
        64        2.0000           -0.5435984             -14.7921
        65        2.0000           -0.5422258             -14.7547
        66        2.0000           -0.5390414             -14.6681
        67        2.0000           -0.5344524             -14.5432
        68        2.0000           -0.5338419             -14.5266
        69        2.0000           -0.5312571             -14.4562
        70        2.0000           -0.5249782             -14.2854
        71        2.0000           -0.5166069             -14.0576
        72        2.0000           -0.5165121             -14.0550
        73        2.0000           -0.5156826             -14.0324
        74        2.0000           -0.5127626             -13.9530 (HOMO)
        75                         -0.4174184             -11.3585 (LUMO)
        76                         -0.3887028             -10.5771
        77                         -0.3584340              -9.7535
        78                         -0.3524028              -9.5894
        79                         -0.3495327              -9.5113
        80                         -0.2314157              -6.2971
        81                         -0.1787361              -4.8637
        82                         -0.1253117              -3.4099
        83                         -0.1233678              -3.3570
        84                         -0.0741148              -2.0168
        85                         -0.0621352              -1.6908
       ...                                ...                  ...
       142                          0.5225208              14.2185
      -------------------------------------------------------------
                  HL-Gap            0.0953442 Eh            2.5944 eV

     #   Z          covCN         q      C6AA      α(0)
     1   8 O        0.930    -0.420    22.046     6.297
     2   7 N        2.761     0.563    13.347     5.426
     3   8 O        0.929    -0.347    20.625     6.091
     4   6 C        2.920    -0.014    28.370     8.734
     5   6 C        2.969    -0.004    28.124     8.699
     6   6 C        3.747    -0.024    21.069     6.547
     7   7 N        2.869     0.060    20.185     6.673
     8   6 C        3.074    -0.010    28.188     8.705
     9   6 C        3.077    -0.007    28.111     8.693
    10   7 N        2.873     0.052    20.333     6.697
    11   6 C        3.108     0.048    26.777     8.478
    12   6 C        3.838     0.075    19.311     6.252
    13   6 C        3.760    -0.131    23.065     6.847
    14   6 C        3.760    -0.132    23.083     6.849
    15   6 C        3.760    -0.131    23.058     6.846
    16   6 C        2.933    -0.043    29.066     8.842
    17   6 C        2.970     0.023    27.481     8.599
    18   6 C        2.940    -0.040    28.984     8.830
    19   6 C        2.966     0.024    27.464     8.596
    20   6 C        3.903     0.028    20.040     6.363
    21   6 C        3.763    -0.115    22.745     6.798
    22   6 C        3.763    -0.113    22.710     6.793
    23   6 C        3.762    -0.118    22.796     6.806
    24   6 C        3.903     0.027    20.062     6.367
    25   6 C        3.762    -0.112    22.695     6.791
    26   6 C        3.762    -0.111    22.674     6.788
    27   6 C        3.761    -0.117    22.784     6.804
    28   1 H        0.924     0.092     1.863     2.135
    29   1 H        0.924     0.084     1.939     2.178
    30   1 H        0.927     0.096     1.821     2.110
    31   1 H        0.927     0.105     1.740     2.063
    32   1 H        0.926     0.140     1.464     1.892
    33   1 H        0.925     0.061     2.192     2.315
    34   1 H        0.925     0.080     1.975     2.197
    35   1 H        0.925     0.059     2.215     2.327
    36   1 H        0.925     0.057     2.235     2.338
    37   1 H        0.925     0.080     1.982     2.202
    38   1 H        0.925     0.065     2.144     2.290
    39   1 H        0.925     0.060     2.201     2.320
    40   1 H        0.925     0.061     2.190     2.314
    41   1 H        0.925     0.079     1.988     2.205
    42   1 H        0.926     0.051     2.301     2.372
    43   1 H        0.926     0.080     1.984     2.202
    44   1 H        0.925     0.045     2.380     2.413
    45   1 H        0.925     0.058     2.224     2.332
    46   1 H        0.925     0.046     2.371     2.408
    47   1 H        0.925     0.038     2.473     2.459
    48   1 H        0.925     0.058     2.221     2.331
    49   1 H        0.925     0.044     2.400     2.423
    50   1 H        0.925     0.038     2.474     2.460
    51   1 H        0.925     0.052     2.297     2.370
    52   1 H        0.925     0.055     2.264     2.353
    53   1 H        0.925     0.038     2.480     2.462
    54   1 H        0.925     0.056     2.245     2.343
    55   1 H        0.925     0.044     2.392     2.418
    56   1 H        0.925     0.038     2.478     2.462
    57   1 H        0.925     0.056     2.244     2.343
    58   1 H        0.925     0.033     2.537     2.491
    59   1 H        0.925     0.042     2.426     2.436
    60   1 H        0.925     0.045     2.382     2.413
    61   1 H        0.925     0.054     2.270     2.356

Wiberg/Mayer (AO) data.
largest (>0.10) Wiberg bond orders for each atom

     #   Z sym  total        # sym  WBO       # sym  WBO       # sym  WBO
 ---------------------------------------------------------------------------
     1   8 O    1.909 --     2 N    1.425     3 O    0.366
     2   7 N    3.909 --     3 O    1.506     1 O    1.425     4 C    0.918
     3   8 O    1.986 --     2 N    1.506     1 O    0.366
     4   6 C    3.945 --    19 C    1.392     5 C    1.342     2 N    0.918
     5   6 C    3.977 --    16 C    1.444     4 C    1.342     6 C    0.982
                            18 C    0.104
     6   6 C    3.942 --     5 C    0.982    29 H    0.962     7 N    0.962
                            28 H    0.962
     7   7 N    3.711 --    11 C    1.361     8 C    1.223     6 C    0.962
     8   6 C    3.948 --     9 C    1.588     7 N    1.223    30 H    0.963
     9   6 C    3.952 --     8 C    1.588    10 N    1.234    31 H    0.959
    10   7 N    3.707 --    11 C    1.374     9 C    1.234    12 C    0.916
    11   6 C    3.939 --    10 N    1.374     7 N    1.361    32 H    0.932
    12   6 C    3.935 --    15 C    1.001    13 C    0.987    14 C    0.987
                            10 N    0.916
    13   6 C    3.985 --    12 C    0.987    35 H    0.983    33 H    0.981
                            34 H    0.977
    14   6 C    3.985 --    12 C    0.987    36 H    0.983    38 H    0.980
                            37 H    0.978
    15   6 C    3.986 --    12 C    1.001    39 H    0.981    40 H    0.981
                            41 H    0.977
    16   6 C    3.988 --     5 C    1.444    17 C    1.378    42 H    0.959
    17   6 C    3.981 --    18 C    1.437    16 C    1.378    24 C    0.987
    18   6 C    3.986 --    17 C    1.437    19 C    1.382    43 H    0.949
                             5 C    0.104
    19   6 C    3.976 --     4 C    1.392    18 C    1.382    20 C    0.984
    20   6 C    3.987 --    23 C    1.001    19 C    0.984    21 C    0.982
                            22 C    0.980
    21   6 C    3.991 --    46 H    0.986    20 C    0.982    45 H    0.981
                            44 H    0.981
    22   6 C    3.992 --    47 H    0.986    49 H    0.982    48 H    0.981
                            20 C    0.980
    23   6 C    3.992 --    20 C    1.001    51 H    0.983    52 H    0.980
                            50 H    0.979
    24   6 C    3.989 --    27 C    1.000    17 C    0.987    26 C    0.984
                            25 C    0.981
    25   6 C    3.992 --    55 H    0.986    53 H    0.983    54 H    0.982
                            24 C    0.981
    26   6 C    3.994 --    56 H    0.987    24 C    0.984    58 H    0.983
                            57 H    0.982
    27   6 C    3.993 --    24 C    1.000    59 H    0.984    60 H    0.983
                            61 H    0.982
    28   1 H    0.991 --     6 C    0.962
    29   1 H    0.993 --     6 C    0.962
    30   1 H    0.990 --     8 C    0.963
    31   1 H    0.989 --     9 C    0.959
    32   1 H    0.980 --    11 C    0.932
    33   1 H    0.996 --    13 C    0.981
    34   1 H    0.993 --    13 C    0.977
    35   1 H    0.997 --    13 C    0.983
    36   1 H    0.997 --    14 C    0.983
    37   1 H    0.993 --    14 C    0.978
    38   1 H    0.996 --    14 C    0.980
    39   1 H    0.996 --    15 C    0.981
    40   1 H    0.996 --    15 C    0.981
    41   1 H    0.993 --    15 C    0.977
    42   1 H    0.997 --    16 C    0.959
    43   1 H    0.992 --    18 C    0.949
    44   1 H    0.998 --    21 C    0.981
    45   1 H    0.995 --    21 C    0.981
    46   1 H    0.998 --    21 C    0.986
    47   1 H    0.999 --    22 C    0.986
    48   1 H    0.995 --    22 C    0.981
    49   1 H    0.998 --    22 C    0.982
    50   1 H    0.999 --    23 C    0.979
    51   1 H    0.997 --    23 C    0.983
    52   1 H    0.997 --    23 C    0.980
    53   1 H    0.999 --    25 C    0.983
    54   1 H    0.996 --    25 C    0.982
    55   1 H    0.998 --    25 C    0.986
    56   1 H    0.999 --    26 C    0.987
    57   1 H    0.996 --    26 C    0.982
    58   1 H    0.999 --    26 C    0.983
    59   1 H    0.998 --    27 C    0.984
    60   1 H    0.998 --    27 C    0.983
    61   1 H    0.997 --    27 C    0.982
 ---------------------------------------------------------------------------

molecular dipole:
                 x           y           z       tot (Debye)
 q only:        6.995      -8.284       1.630
   full:        7.090      -8.200       1.705      27.891

           -------------------------------------------------
          | TOTAL ENERGY              -80.941356280848 Eh   |
          | GRADIENT NORM               0.000319140283 Eh/α |
          | HOMO-LUMO GAP               2.594447131229 eV   |
           -------------------------------------------------

 * finished run on 2024/12/20 at 02:13:04.230
