   * xtb version 6.7.1 (edcfbbe) compiled by 'conda@3ef47c1a292c' on 2024-11-25

   ID    Z sym.   atoms
    1    6 C      1, 2, 4, 6-12
    2    7 N      3, 5
    3    1 H      13-25

          program call               : xtb C0263.xyz --opt --namespace C0263 --charge +1
          :  Hamiltonian                  GFN2-xTB          :
 * total energy  :   -33.5303808 Eh     change       -0.7789041E-09 Eh
 * total energy  :   -33.5335556 Eh     change       -0.3174834E-02 Eh
 * total energy  :   -33.5339613 Eh     change       -0.4056779E-03 Eh
 * total energy  :   -33.5340029 Eh     change       -0.4159941E-04 Eh
 * total energy  :   -33.5340366 Eh     change       -0.3372408E-04 Eh
 * total energy  :   -33.5340459 Eh     change       -0.9270876E-05 Eh
 * total energy  :   -33.5340589 Eh     change       -0.1301687E-04 Eh
 * total energy  :   -33.5340625 Eh     change       -0.3556328E-05 Eh
   *** GEOMETRY OPTIMIZATION CONVERGED AFTER 8 ITERATIONS ***

 final structure:
================
25
 xtb: 6.7.1 (edcfbbe)
C            1.28202268476482        0.37195075280822       -0.10487084526381
C            0.24292306123253        0.56953668418087       -1.20377019889282
N            0.65124741065623       -0.08728770090612       -2.42685532550129
C            1.28081985581786        0.47639700266240       -3.45221623765068
N            1.56449083893127       -0.41330152724986       -4.39677981502593
C            2.22963907832019       -0.16563049006702       -5.64725715730280
C            1.10004820438454       -1.64045227945321       -3.96994115154517
C            1.12788643530873       -2.89916568933340       -4.55873588360434
C            0.55909628599113       -3.93178298323957       -3.84303733670681
C           -0.01921051227078       -3.72669213840585       -2.58615352809809
C           -0.05254753308750       -2.48186728941084       -1.99324248369736
C            0.51808715924390       -1.43238713752338       -2.70456483381977
H            1.42887143232708       -0.68410130353340        0.10634989552814
H            0.94327336606584        0.86061943235380        0.80345404132948
H            2.23618252366161        0.80643222872551       -0.39255840710722
H           -0.71761327784602        0.14912114012738       -0.89870823289811
H            0.10903226627841        1.63253699328502       -1.41278673448160
H            1.52262572063798        1.52129523275540       -3.51164841125657
H            3.13889653742227       -0.76484490486173       -5.71021841443376
H            1.57549417681648       -0.43612828357602       -6.47715620454815
H            2.48943078829505        0.88733440063089       -5.72580619122224
H            1.57112265128579       -3.06116610709097       -5.52714191645324
H            0.55793621508520       -4.92546815075943       -4.26133173842694
H           -0.45095788506552       -4.56799647072713       -2.06820272247615
H           -0.50071748425710       -2.33444141139165       -1.02470016644472

          :  Hamiltonian                  GFN2-xTB          :
         :: total energy             -33.534062492947 Eh    ::
         :: gradient norm              0.000713848991 Eh/a0 ::
         :: HOMO-LUMO gap              3.529432058762 eV    ::
         :: SCC energy               -34.095395971102 Eh    ::
         :: -> dispersion             -0.021140942435 Eh    ::
         :: repulsion energy           0.561333478155 Eh    ::

    * Orbital Energies and Occupations

         #    Occupation            Energy/Eh            Energy/eV
      -------------------------------------------------------------
         1        2.0000           -0.8860659             -24.1111
       ...           ...                  ...                  ...
        19        2.0000           -0.6467690             -17.5995
        20        2.0000           -0.6444359             -17.5360
        21        2.0000           -0.6368242             -17.3289
        22        2.0000           -0.6354364             -17.2911
        23        2.0000           -0.6306799             -17.1617
        24        2.0000           -0.6197793             -16.8651
        25        2.0000           -0.5999534             -16.3256
        26        2.0000           -0.5995954             -16.3158
        27        2.0000           -0.5884793             -16.0133
        28        2.0000           -0.5835065             -15.8780
        29        2.0000           -0.5765805             -15.6896
        30        2.0000           -0.5587323             -15.2039
        31        2.0000           -0.5489731             -14.9383 (HOMO)
        32                         -0.4192689             -11.4089 (LUMO)
        33                         -0.3685576             -10.0290
        34                         -0.3600148              -9.7965
        35                         -0.2425205              -6.5993
        36                         -0.1817211              -4.9449
        37                         -0.1327356              -3.6119
        38                         -0.0761045              -2.0709
        39                         -0.0404366              -1.1003
        40                         -0.0313956              -0.8543
        41                         -0.0170748              -0.4646
        42                         -0.0147354              -0.4010
       ...                                ...                  ...
        61                          0.5345634              14.5462
      -------------------------------------------------------------
                  HL-Gap            0.1297042 Eh            3.5294 eV

     #   Z          covCN         q      C6AA      α(0)
     1   6 C        3.753    -0.123    22.913     6.826
     2   6 C        3.740    -0.016    20.938     6.529
     3   7 N        2.828     0.034    20.643     6.748
     4   6 C        3.073     0.063    26.510     8.442
     5   7 N        2.825     0.044    20.469     6.720
     6   6 C        3.691    -0.078    22.176     6.739
     7   6 C        3.123     0.037    26.983     8.507
     8   6 C        2.908    -0.032    28.799     8.800
     9   6 C        2.926    -0.016    28.422     8.743
    10   6 C        2.926    -0.017    28.430     8.744
    11   6 C        2.908    -0.032    28.788     8.798
    12   6 C        3.120     0.041    26.916     8.497
    13   1 H        0.925     0.065     2.140     2.288
    14   1 H        0.925     0.082     1.957     2.188
    15   1 H        0.925     0.061     2.183     2.310
    16   1 H        0.924     0.088     1.898     2.154
    17   1 H        0.924     0.080     1.979     2.200
    18   1 H        0.926     0.106     1.729     2.056
    19   1 H        0.924     0.102     1.771     2.081
    20   1 H        0.924     0.101     1.772     2.082
    21   1 H        0.925     0.094     1.840     2.121
    22   1 H        0.926     0.075     2.036     2.231
    23   1 H        0.926     0.082     1.954     2.186
    24   1 H        0.926     0.082     1.956     2.187
    25   1 H        0.926     0.074     2.041     2.234

Wiberg/Mayer (AO) data.
largest (>0.10) Wiberg bond orders for each atom

     #   Z sym  total        # sym  WBO       # sym  WBO       # sym  WBO
 ---------------------------------------------------------------------------
     1   6 C    3.981 --     2 C    1.002    15 H    0.985    13 H    0.984
                            14 H    0.977
     2   6 C    3.941 --     1 C    1.002    17 H    0.968     3 N    0.967
                            16 H    0.962
     3   7 N    3.685 --     4 C    1.371    12 C    1.129     2 C    0.967
                             5 N    0.106
     4   6 C    3.954 --     3 N    1.371     5 N    1.370    18 H    0.953
     5   7 N    3.689 --     4 C    1.370     7 C    1.126     6 C    0.991
                             3 N    0.106
     6   6 C    3.938 --     5 N    0.991    21 H    0.976    19 H    0.964
                            20 H    0.964
     7   6 C    3.952 --     8 C    1.337    12 C    1.274     5 N    1.126
     8   6 C    3.986 --     9 C    1.497     7 C    1.337    22 H    0.963
                            11 C    0.119
     9   6 C    3.986 --     8 C    1.497    10 C    1.375    23 H    0.966
    10   6 C    3.985 --    11 C    1.497     9 C    1.375    24 H    0.966
    11   6 C    3.986 --    10 C    1.497    12 C    1.337    25 H    0.963
                             8 C    0.119
    12   6 C    3.954 --    11 C    1.337     7 C    1.274     3 N    1.129
    13   1 H    0.996 --     1 C    0.984
    14   1 H    0.992 --     1 C    0.977
    15   1 H    0.996 --     1 C    0.985
    16   1 H    0.992 --     2 C    0.962
    17   1 H    0.993 --     2 C    0.968
    18   1 H    0.988 --     4 C    0.953
    19   1 H    0.989 --     6 C    0.964
    20   1 H    0.989 --     6 C    0.964
    21   1 H    0.991 --     6 C    0.976
    22   1 H    0.994 --     8 C    0.963
    23   1 H    0.993 --     9 C    0.966
    24   1 H    0.993 --    10 C    0.966
    25   1 H    0.994 --    11 C    0.963
 ---------------------------------------------------------------------------

molecular dipole:
                 x           y           z       tot (Debye)
 q only:        2.029      -1.312      -6.179
   full:        2.052      -1.094      -6.248      16.946

           -------------------------------------------------
          | TOTAL ENERGY              -33.534062492947 Eh   |
          | GRADIENT NORM               0.000713848991 Eh/α |
          | HOMO-LUMO GAP               3.529432058762 eV   |
           -------------------------------------------------

 * finished run on 2024/12/20 at 02:12:51.214
