   * xtb version 6.7.1 (edcfbbe) compiled by 'conda@3ef47c1a292c' on 2024-11-25

   ID    Z sym.   atoms
    1    6 C      1, 3-9, 11, 12, 14-17, 19-25
    2    8 O      2, 18
    3    7 N      10, 13
    4    1 H      26-48

          program call               : xtb C0262.xyz --opt --namespace C0262 --charge +1
          :  Hamiltonian                  GFN2-xTB          :
 * total energy  :   -70.2921659 Eh     change       -0.9199823E-09 Eh
 * total energy  :   -70.3022651 Eh     change       -0.1009915E-01 Eh
 * total energy  :   -70.3046753 Eh     change       -0.2410282E-02 Eh
 * total energy  :   -70.3051199 Eh     change       -0.4445258E-03 Eh
 * total energy  :   -70.3054408 Eh     change       -0.3209151E-03 Eh
 * total energy  :   -70.3056250 Eh     change       -0.1842102E-03 Eh
 * total energy  :   -70.3057924 Eh     change       -0.1674275E-03 Eh
 * total energy  :   -70.3058976 Eh     change       -0.1051733E-03 Eh
 * total energy  :   -70.3059717 Eh     change       -0.7415705E-04 Eh
 * total energy  :   -70.3060402 Eh     change       -0.6846929E-04 Eh
 * total energy  :   -70.3064560 Eh     change       -0.5077928E-04 Eh
 * total energy  :   -70.3065020 Eh     change       -0.4608137E-04 Eh
 * total energy  :   -70.3065441 Eh     change       -0.4201859E-04 Eh
 * total energy  :   -70.3065592 Eh     change       -0.1514402E-04 Eh
 * total energy  :   -70.3065965 Eh     change       -0.3733828E-04 Eh
 * total energy  :   -70.3066111 Eh     change       -0.1456715E-04 Eh
 * total energy  :   -70.3066200 Eh     change       -0.8894197E-05 Eh
 * total energy  :   -70.3066275 Eh     change       -0.7500607E-05 Eh
 * total energy  :   -70.3066312 Eh     change       -0.3689125E-05 Eh
   *** GEOMETRY OPTIMIZATION CONVERGED AFTER 24 ITERATIONS ***

 final structure:
================
48
 xtb: 6.7.1 (edcfbbe)
C            1.57906381366954       -1.24975610080040        0.75586705510759
O            0.65801345379460       -1.16040518701983       -0.31028216217549
C            1.00291720410231       -1.63289558357989       -1.52084046653464
C            0.05426216485612       -1.46345503716309       -2.53644024345883
C            0.30991076384141       -1.90359870330378       -3.81424336469184
C            1.51629282294406       -2.52705351526774       -4.12227508736730
C            2.45327525954814       -2.70160849669972       -3.11427246793827
C            2.21009575546342       -2.26041002740261       -1.82671179731454
C            1.78768342731184       -3.02491197692093       -5.52014476278096
N            1.42561290962996       -4.42917177693103       -5.63963081425432
C            0.14880924917064       -4.89405857430778       -5.51947337923357
C            0.19494781408484       -6.24122679009860       -5.66693595423979
N            1.50181310498606       -6.58530384474973       -5.87203537999245
C            2.24430873741207       -5.46701302505199       -5.84490714905370
C            3.70959134707644       -5.38327042869752       -6.00640140390288
C            1.98602724061937       -7.92609483672062       -6.09190874886267
C            2.66962689806080       -8.06353813342095       -7.48348569304359
O            3.87911323661224       -8.06210929689380       -7.51852958557939
C            1.82457138213439       -8.15920301442857       -8.66802684549490
C            2.47421462581693       -8.24281960073547       -9.90908077617091
C            1.75481396943914       -8.33120300003531      -11.07821347953023
C            0.36053093809156       -8.34075450378209      -11.05798110538152
C           -0.28565091100905       -8.26010570566616       -9.82499465970196
C            0.42580983239579       -8.17310125670841       -8.64758984365354
C           -0.41764310837893       -8.46281497014481      -12.32273609244590
H            1.08557155525464       -0.78599721764922        1.60759651026646
H            2.50133345157405       -0.70617105255722        0.53226125199285
H            1.81315144547848       -2.29077240819977        0.99643840434575
H           -0.87262404558164       -0.97141986504564       -2.29122628555679
H           -0.42784544671384       -1.74141362113010       -4.58660495803807
H            3.40001447869983       -3.17517669378331       -3.33158861086282
H            2.96710132381776       -2.40301685002122       -1.07301925958943
H            1.18824335000495       -2.46251241730508       -6.24081402863126
H            2.84134432819366       -2.91451852514932       -5.77591012755933
H           -0.68105441679435       -4.24507389435255       -5.33297516304899
H           -0.59406707678961       -6.96260506082382       -5.62166396523000
H            4.16443277134126       -6.37016132463922       -6.00114934680031
H            3.96379305326750       -4.91414811095963       -6.95794463449254
H            4.14971313653620       -4.78829238765704       -5.20789696644285
H            2.74285053763238       -8.17229545976193       -5.34044806232602
H            1.15586862417432       -8.62498661519311       -5.99602628124257
H            3.55349787857703       -8.23703573003407       -9.92170528734094
H            2.27251245691984       -8.39682039478304      -12.02310070327031
H           -1.36510208259143       -8.27292063402574       -9.79368284390097
H           -0.12061469381938       -8.12472502960036       -7.71902844121818
H            0.09704633743789       -7.97318651947812      -13.14571634493896
H           -0.52667731115279       -9.51657970076081      -12.58183858465659
H           -1.41325158714838       -8.03976710056846      -12.21690206375934

          :  Hamiltonian                  GFN2-xTB          :
         :: total energy             -70.306631199235 Eh    ::
         :: gradient norm              0.000824008497 Eh/a0 ::
         :: HOMO-LUMO gap              2.098008856463 eV    ::
         :: SCC energy               -71.414295406501 Eh    ::
         :: -> dispersion             -0.048716816717 Eh    ::
         :: repulsion energy           1.107664207266 Eh    ::

    * Orbital Energies and Occupations

         #    Occupation            Energy/Eh            Energy/eV
      -------------------------------------------------------------
         1        2.0000           -0.8737809             -23.7768
       ...           ...                  ...                  ...
        52        2.0000           -0.5598430             -15.2341
        53        2.0000           -0.5545594             -15.0903
        54        2.0000           -0.5521611             -15.0251
        55        2.0000           -0.5456872             -14.8489
        56        2.0000           -0.5449040             -14.8276
        57        2.0000           -0.5446403             -14.8204
        58        2.0000           -0.5276831             -14.3590
        59        2.0000           -0.5204302             -14.1616
        60        2.0000           -0.5175127             -14.0822
        61        2.0000           -0.5148874             -14.0108
        62        2.0000           -0.5101452             -13.8818
        63        2.0000           -0.5076346             -13.8134
        64        2.0000           -0.4773685             -12.9899 (HOMO)
        65                         -0.4002681             -10.8918 (LUMO)
        66                         -0.3812962             -10.3756
        67                         -0.3503321              -9.5330
        68                         -0.3330916              -9.0639
        69                         -0.3275667              -8.9135
        70                         -0.3233981              -8.8001
        71                         -0.3054046              -8.3105
        72                         -0.2030185              -5.5244
        73                         -0.1981569              -5.3921
        74                         -0.1551112              -4.2208
        75                         -0.1093056              -2.9744
       ...                                ...                  ...
       123                          0.5633966              15.3308
      -------------------------------------------------------------
                  HL-Gap            0.0771004 Eh            2.0980 eV

     #   Z          covCN         q      C6AA      α(0)
     1   6 C        3.644     0.027    20.452     6.500
     2   8 O        1.706    -0.243    18.033     5.734
     3   6 C        2.866     0.155    24.632     8.135
     4   6 C        2.920    -0.051    29.277     8.873
     5   6 C        2.922    -0.037    28.928     8.820
     6   6 C        2.970    -0.018    28.446     8.748
     7   6 C        2.923    -0.038    28.942     8.822
     8   6 C        2.916    -0.065    29.614     8.924
     9   6 C        3.747    -0.025    21.083     6.549
    10   7 N        2.875     0.036    20.604     6.742
    11   6 C        3.048    -0.009    28.194     8.709
    12   6 C        3.049    -0.012    28.257     8.718
    13   7 N        2.870     0.037    20.586     6.739
    14   6 C        3.097     0.108    25.500     8.276
    15   6 C        3.754    -0.137    23.199     6.868
    16   6 C        3.739    -0.047    21.495     6.615
    17   6 C        2.820     0.221    23.341     7.916
    18   8 O        0.858    -0.347    20.650     6.093
    19   6 C        2.969    -0.026    28.646     8.779
    20   6 C        2.926    -0.014    28.354     8.732
    21   6 C        2.921    -0.031    28.784     8.798
    22   6 C        2.966     0.044    27.006     8.524
    23   6 C        2.922    -0.035    28.866     8.811
    24   6 C        2.917    -0.031    28.765     8.795
    25   6 C        3.759    -0.121    22.868     6.818
    26   1 H        0.925     0.079     1.990     2.206
    27   1 H        0.924     0.052     2.295     2.369
    28   1 H        0.924     0.049     2.328     2.386
    29   1 H        0.926     0.068     2.103     2.268
    30   1 H        0.926     0.043     2.414     2.430
    31   1 H        0.926     0.034     2.532     2.489
    32   1 H        0.926     0.053     2.281     2.362
    33   1 H        0.924     0.084     1.942     2.179
    34   1 H        0.925     0.082     1.961     2.190
    35   1 H        0.927     0.101     1.771     2.081
    36   1 H        0.927     0.094     1.843     2.123
    37   1 H        0.925     0.113     1.668     2.020
    38   1 H        0.924     0.098     1.800     2.098
    39   1 H        0.925     0.094     1.845     2.124
    40   1 H        0.924     0.097     1.815     2.107
    41   1 H        0.925     0.091     1.866     2.136
    42   1 H        0.926     0.073     2.048     2.238
    43   1 H        0.926     0.061     2.186     2.312
    44   1 H        0.926     0.052     2.290     2.367
    45   1 H        0.926     0.033     2.543     2.494
    46   1 H        0.925     0.066     2.136     2.285
    47   1 H        0.924     0.077     2.015     2.220
    48   1 H        0.925     0.061     2.185     2.312

Wiberg/Mayer (AO) data.
largest (>0.10) Wiberg bond orders for each atom

     #   Z sym  total        # sym  WBO       # sym  WBO       # sym  WBO
 ---------------------------------------------------------------------------
     1   6 C    3.934 --    26 H    0.978    28 H    0.976    27 H    0.976
                             2 O    0.973
     2   8 O    2.280 --     3 C    1.109     1 C    0.973
     3   6 C    3.940 --     8 C    1.355     4 C    1.328     2 O    1.109
     4   6 C    3.987 --     5 C    1.487     3 C    1.328    29 H    0.966
                             7 C    0.103
     5   6 C    3.991 --     4 C    1.487     6 C    1.383    30 H    0.967
     6   6 C    3.974 --     7 C    1.414     5 C    1.383     9 C    0.986
     7   6 C    3.992 --     8 C    1.451     6 C    1.414    31 H    0.968
                             4 C    0.103
     8   6 C    3.988 --     7 C    1.451     3 C    1.355    32 H    0.965
     9   6 C    3.937 --     6 C    0.986    34 H    0.964    33 H    0.958
                            10 N    0.953
    10   7 N    3.691 --    14 C    1.331    11 C    1.211     9 C    0.953
    11   6 C    3.951 --    12 C    1.610    10 N    1.211    35 H    0.961
    12   6 C    3.948 --    11 C    1.610    13 N    1.201    36 H    0.962
    13   7 N    3.686 --    14 C    1.313    12 C    1.201    16 C    0.979
    14   6 C    3.948 --    10 N    1.331    13 N    1.313    15 C    1.047
    15   6 C    3.973 --    14 C    1.047    37 H    0.961    39 H    0.955
                            38 H    0.946
    16   6 C    3.940 --    13 N    0.979    41 H    0.960    40 H    0.956
                            17 C    0.920
    17   6 C    3.930 --    18 O    1.809    19 C    1.091    16 C    0.920
    18   8 O    2.088 --    17 C    1.809
    19   6 C    3.985 --    24 C    1.348    20 C    1.335    17 C    1.091
    20   6 C    3.985 --    21 C    1.487    19 C    1.335    42 H    0.964
    21   6 C    3.989 --    20 C    1.487    22 C    1.381    43 H    0.966
    22   6 C    3.982 --    21 C    1.381    23 C    1.378    25 C    1.043
    23   6 C    3.991 --    24 C    1.485    22 C    1.378    44 H    0.967
    24   6 C    3.992 --    23 C    1.485    19 C    1.348    45 H    0.964
    25   6 C    3.989 --    22 C    1.043    48 H    0.978    46 H    0.974
                            47 H    0.950
    26   1 H    0.993 --     1 C    0.978
    27   1 H    0.997 --     1 C    0.976
    28   1 H    0.997 --     1 C    0.976
    29   1 H    0.995 --     4 C    0.966
    30   1 H    0.998 --     5 C    0.967
    31   1 H    0.999 --     7 C    0.968
    32   1 H    0.997 --     8 C    0.965
    33   1 H    0.992 --     9 C    0.958
    34   1 H    0.992 --     9 C    0.964
    35   1 H    0.989 --    11 C    0.961
    36   1 H    0.991 --    12 C    0.962
    37   1 H    0.987 --    15 C    0.961
    38   1 H    0.990 --    15 C    0.946
    39   1 H    0.991 --    15 C    0.955
    40   1 H    0.990 --    16 C    0.956
    41   1 H    0.991 --    16 C    0.960
    42   1 H    0.994 --    20 C    0.964
    43   1 H    0.996 --    21 C    0.966
    44   1 H    0.997 --    23 C    0.967
    45   1 H    0.999 --    24 C    0.964
    46   1 H    0.994 --    25 C    0.974
    47   1 H    0.990 --    25 C    0.950
    48   1 H    0.995 --    25 C    0.978
 ---------------------------------------------------------------------------

molecular dipole:
                 x           y           z       tot (Debye)
 q only:        2.206     -10.175     -11.504
   full:        2.126     -10.290     -11.419      39.443

           -------------------------------------------------
          | TOTAL ENERGY              -70.306631199235 Eh   |
          | GRADIENT NORM               0.000824008497 Eh/α |
          | HOMO-LUMO GAP               2.098008856463 eV   |
           -------------------------------------------------

 * finished run on 2024/12/20 at 02:12:50.693
