   * xtb version 6.7.1 (edcfbbe) compiled by 'conda@3ef47c1a292c' on 2024-11-25

   ID    Z sym.   atoms
    1    6 C      1, 3-12, 14, 15
    2    7 N      2, 13
    3    1 H      16-26

          program call               : xtb C0278.xyz --opt --namespace C0278 --charge +1
          :  Hamiltonian                  GFN2-xTB          :
 * total energy  :   -38.8952435 Eh     change       -0.6772893E-09 Eh
 * total energy  :   -38.9027525 Eh     change       -0.7508972E-02 Eh
 * total energy  :   -38.9043584 Eh     change       -0.1605905E-02 Eh
 * total energy  :   -38.9044704 Eh     change       -0.1119694E-03 Eh
 * total energy  :   -38.9044924 Eh     change       -0.2203380E-04 Eh
 * total energy  :   -38.9044950 Eh     change       -0.2570651E-05 Eh
   *** GEOMETRY OPTIMIZATION CONVERGED AFTER 6 ITERATIONS ***

 final structure:
================
26
 xtb: 6.7.1 (edcfbbe)
C            0.84668847400064        0.05876012005570        0.18170474837547
N            0.51515791644959       -1.27496946159352        0.62674372471596
C           -0.39170719653739       -1.38678615126906        1.59486274500941
C           -0.78819896346516       -2.60654821691335        2.11554821130764
C           -0.21511135035555       -3.75199749768366        1.61472460768331
C            0.74060876818504       -3.66015846566432        0.59199844433855
C            1.33676320956452       -4.84273102160984        0.07062954644853
C            2.25658043240930       -4.78117053302258       -0.91950641831357
C            2.64136719722026       -3.52774968244532       -1.46497684069832
C            3.58698262750491       -3.43933764845448       -2.50398614042070
C            3.92716866967488       -2.21058638375402       -3.01122059830232
C            3.30799473361929       -1.08015235316112       -2.46278142190540
N            2.42994614739231       -1.13368758498490       -1.49502105838917
C            2.07597197714761       -2.31965571853625       -0.97675466166488
C            1.10491942197228       -2.38137669460407        0.08499782639051
H            0.29174505761224        0.79175642448056        0.76293880050844
H            0.60860876388153        0.17499336598230       -0.87499483907969
H            1.91501595878409        0.23884018783069        0.29228343410025
H           -0.82002806821828       -0.47091727826621        1.97410753796008
H           -1.52819151787758       -2.63834469362420        2.89793124417056
H           -0.48929386798507       -4.72369922660929        1.99538228519848
H            1.03169910082438       -5.78824091170996        0.49011639217128
H            2.71128001960738       -5.67629666175258       -1.31527024439378
H            4.02997501418645       -4.34628957246830       -2.88768802275952
H            4.64625055272224       -2.10680328792475       -3.80701631335561
H            3.53617692168011       -0.08747105229744       -2.82566298909550

          :  Hamiltonian                  GFN2-xTB          :
         :: total energy             -38.904494987817 Eh    ::
         :: gradient norm              0.000415959053 Eh/a0 ::
         :: HOMO-LUMO gap              1.600106122345 eV    ::
         :: SCC energy               -39.597528369242 Eh    ::
         :: -> dispersion             -0.027006851785 Eh    ::
         :: repulsion energy           0.693033381425 Eh    ::

    * Orbital Energies and Occupations

         #    Occupation            Energy/Eh            Energy/eV
      -------------------------------------------------------------
         1        2.0000           -0.8586462             -23.3650
       ...           ...                  ...                  ...
        24        2.0000           -0.6317746             -17.1915
        25        2.0000           -0.6300085             -17.1434
        26        2.0000           -0.6134330             -16.6924
        27        2.0000           -0.6128512             -16.6765
        28        2.0000           -0.6073811             -16.5277
        29        2.0000           -0.6013926             -16.3647
        30        2.0000           -0.6004819             -16.3399
        31        2.0000           -0.5921815             -16.1141
        32        2.0000           -0.5912698             -16.0893
        33        2.0000           -0.5717907             -15.5592
        34        2.0000           -0.5578135             -15.1789
        35        2.0000           -0.5452158             -14.8361
        36        2.0000           -0.5093564             -13.8603 (HOMO)
        37                         -0.4505536             -12.2602 (LUMO)
        38                         -0.4260879             -11.5944
        39                         -0.3847360             -10.4692
        40                         -0.3619083              -9.8480
        41                         -0.3288395              -8.9482
        42                         -0.2761390              -7.5141
        43                         -0.2123671              -5.7788
        44                         -0.1556640              -4.2358
        45                         -0.0780664              -2.1243
        46                         -0.0448809              -1.2213
        47                         -0.0341153              -0.9283
       ...                                ...                  ...
        71                          0.5396282              14.6840
      -------------------------------------------------------------
                  HL-Gap            0.0588028 Eh            1.6001 eV

     #   Z          covCN         q      C6AA      α(0)
     1   6 C        3.714    -0.100    22.546     6.784
     2   7 N        2.744     0.109    19.374     6.537
     3   6 C        2.896     0.029    27.354     8.575
     4   6 C        2.911    -0.021    28.541     8.760
     5   6 C        2.928    -0.001    28.045     8.685
     6   6 C        2.983     0.027    27.382     8.584
     7   6 C        2.916    -0.029    28.734     8.790
     8   6 C        2.912    -0.018    28.453     8.747
     9   6 C        2.983     0.019    27.585     8.615
    10   6 C        2.928    -0.005    28.144     8.700
    11   6 C        2.910    -0.021    28.532     8.759
    12   6 C        2.897     0.073    26.372     8.420
    13   7 N        1.839    -0.222    26.683     7.655
    14   6 C        2.956     0.084    26.121     8.383
    15   6 C        2.936     0.055    26.770     8.486
    16   1 H        0.925     0.097     1.816     2.107
    17   1 H        0.925     0.124     1.583     1.968
    18   1 H        0.925     0.123     1.589     1.971
    19   1 H        0.926     0.103     1.762     2.076
    20   1 H        0.926     0.099     1.794     2.095
    21   1 H        0.926     0.095     1.827     2.114
    22   1 H        0.926     0.079     1.990     2.206
    23   1 H        0.926     0.080     1.974     2.197
    24   1 H        0.926     0.073     2.057     2.243
    25   1 H        0.926     0.076     2.018     2.221
    26   1 H        0.925     0.073     2.057     2.243

Wiberg/Mayer (AO) data.
largest (>0.10) Wiberg bond orders for each atom

     #   Z sym  total        # sym  WBO       # sym  WBO       # sym  WBO
 ---------------------------------------------------------------------------
     1   6 C    3.928 --     2 N    0.990    16 H    0.972    18 H    0.950
                            17 H    0.949
     2   7 N    3.760 --     3 C    1.367    15 C    1.227     1 C    0.990
     3   6 C    3.950 --     4 C    1.404     2 N    1.367    19 H    0.953
     4   6 C    3.974 --     5 C    1.473     3 C    1.404    20 H    0.960
     5   6 C    3.967 --     4 C    1.473     6 C    1.327    21 H    0.961
     6   6 C    3.989 --     5 C    1.327    15 C    1.262     7 C    1.214
     7   6 C    3.987 --     8 C    1.635     6 C    1.214    22 H    0.962
     8   6 C    3.985 --     7 C    1.635     9 C    1.215    23 H    0.962
     9   6 C    3.990 --    10 C    1.309    14 C    1.262     8 C    1.215
    10   6 C    3.976 --    11 C    1.523     9 C    1.309    24 H    0.964
    11   6 C    3.971 --    10 C    1.523    12 C    1.331    25 H    0.966
    12   6 C    3.966 --    13 N    1.513    11 C    1.331    26 H    0.959
    13   7 N    3.071 --    12 C    1.513    14 C    1.319
    14   6 C    3.983 --    13 N    1.319     9 C    1.262    15 C    1.182
    15   6 C    3.962 --     6 C    1.262     2 N    1.227    14 C    1.182
    16   1 H    0.990 --     1 C    0.972
    17   1 H    0.985 --     1 C    0.949
    18   1 H    0.985 --     1 C    0.950
    19   1 H    0.989 --     3 C    0.953
    20   1 H    0.989 --     4 C    0.960
    21   1 H    0.990 --     5 C    0.961
    22   1 H    0.993 --     7 C    0.962
    23   1 H    0.993 --     8 C    0.962
    24   1 H    0.994 --    10 C    0.964
    25   1 H    0.994 --    11 C    0.966
    26   1 H    0.994 --    12 C    0.959
 ---------------------------------------------------------------------------

molecular dipole:
                 x           y           z       tot (Debye)
 q only:        2.012      -4.127       0.212
   full:        2.128      -4.425       0.113      12.484

           -------------------------------------------------
          | TOTAL ENERGY              -38.904494987817 Eh   |
          | GRADIENT NORM               0.000415959053 Eh/α |
          | HOMO-LUMO GAP               1.600106122345 eV   |
           -------------------------------------------------

 * finished run on 2024/12/20 at 02:13:35.961
