   * xtb version 6.7.1 (edcfbbe) compiled by 'conda@3ef47c1a292c' on 2024-11-25

   ID    Z sym.   atoms
    1    6 C      1, 2, 4, 6-21
    2    7 N      3, 5
    3    1 H      22-42

          program call               : xtb C0274.xyz --opt --namespace C0274 --charge +1
          :  Hamiltonian                  GFN2-xTB          :
 * total energy  :   -56.8737424 Eh     change       -0.2682818E-08 Eh
 * total energy  :   -56.8817238 Eh     change       -0.7981420E-02 Eh
 * total energy  :   -56.8836478 Eh     change       -0.1924012E-02 Eh
 * total energy  :   -56.8839471 Eh     change       -0.2993223E-03 Eh
 * total energy  :   -56.8842104 Eh     change       -0.2633347E-03 Eh
 * total energy  :   -56.8842988 Eh     change       -0.8837441E-04 Eh
 * total energy  :   -56.8843825 Eh     change       -0.8364691E-04 Eh
 * total energy  :   -56.8844545 Eh     change       -0.7202277E-04 Eh
 * total energy  :   -56.8845248 Eh     change       -0.7029657E-04 Eh
 * total energy  :   -56.8845490 Eh     change       -0.2420628E-04 Eh
 * total energy  :   -56.8845721 Eh     change       -0.2310321E-04 Eh
 * total energy  :   -56.8845761 Eh     change       -0.4005037E-05 Eh
   *** GEOMETRY OPTIMIZATION CONVERGED AFTER 12 ITERATIONS ***

 final structure:
================
42
 xtb: 6.7.1 (edcfbbe)
C            1.25841226720278        0.17761070500654        0.01349420402187
C            0.37142942936351        0.68088918845144       -1.12050813925227
N            0.79681467324309        0.15127300872879       -2.39974944141142
C            0.64360746075553       -1.11589869368085       -2.77756354838226
N            1.09953030972949       -1.27516855875202       -4.01712012083273
C            1.56811046623902       -0.06526359571120       -4.45962739849046
C            1.38380781801740        0.83835652152719       -3.43240191865473
C            1.70815210412212        2.26299834525743       -3.43089504909884
C            2.42399153080931        2.84554858443935       -2.38644744365763
C            2.74075604266913        4.19120537433054       -2.42846677530350
C            2.34944144705171        4.96609559127798       -3.50743611022607
C            1.64433109763087        4.39044560059537       -4.55256582043327
C            1.32633437955981        3.04628195693455       -4.51984573940515
C            2.15339627496647        0.17526829774427       -5.77878546406309
C            1.45273480056843       -0.14330967390903       -6.94075188284067
C            2.01317809085102        0.11452299467468       -8.17854647729181
C            3.26966519440037        0.69083955918780       -8.26780023300771
C            3.96411264310631        1.02047224347494       -7.11498059325802
C            3.41024222687839        0.76837931602711       -5.87383911110667
C            1.23254895187916       -2.55307680026535       -4.68474466807409
C            2.50192389611303       -3.26138830838575       -4.22147365060067
H            1.18372677153507       -0.90158367319565        0.11940187938437
H            0.94290769142905        0.63463229803706        0.94633746447591
H            2.30018173184586        0.43560631206119       -0.15931761506537
H           -0.66266952189079        0.37112951126731       -0.94733587670901
H            0.40469169004195        1.77007905971673       -1.18177664906081
H            0.20311404872630       -1.88901287433030       -2.17964154931421
H            2.76479219968901        2.24394837710248       -1.55735498488758
H            3.29925903482531        4.63252092361871       -1.61769583996006
H            2.59801874657904        6.01519227907987       -3.53627820663295
H            1.34084892150867        4.98998801173198       -5.39633283766825
H            0.77269748840722        2.59803744622031       -5.33062806263668
H            0.45647476517472       -0.55833314425529       -6.87785829071202
H            1.46378669739843       -0.13036705784635       -9.07424461058223
H            3.70370666178341        0.88903384417595       -9.23506446762154
H            4.93953094159419        1.47614977728342       -7.18161715788356
H            3.94839787481209        1.02345075557345       -4.97339491639346
H            0.35193110611471       -3.15691605275341       -4.45581038321290
H            1.27949687365836       -2.37985890829058       -5.75976080575116
H            2.47541457307750       -3.45127294103140       -3.15120580125555
H            2.59439448764668       -4.21210491069913       -4.73707136721802
H            3.37817611088649       -2.65988069041975       -4.45103453992691

          :  Hamiltonian                  GFN2-xTB          :
         :: total energy             -56.884576098163 Eh    ::
         :: gradient norm              0.000408290021 Eh/a0 ::
         :: HOMO-LUMO gap              3.303802000265 eV    ::
         :: SCC energy               -57.891110759217 Eh    ::
         :: -> dispersion             -0.045465566208 Eh    ::
         :: repulsion energy           1.006534661054 Eh    ::

    * Orbital Energies and Occupations

         #    Occupation            Energy/Eh            Energy/eV
      -------------------------------------------------------------
         1        2.0000           -0.8694646             -23.6593
       ...           ...                  ...                  ...
        41        2.0000           -0.5877760             -15.9942
        42        2.0000           -0.5821853             -15.8421
        43        2.0000           -0.5795378             -15.7700
        44        2.0000           -0.5758399             -15.6694
        45        2.0000           -0.5578083             -15.1787
        46        2.0000           -0.5390629             -14.6686
        47        2.0000           -0.5387173             -14.6592
        48        2.0000           -0.5348704             -14.5546
        49        2.0000           -0.5332952             -14.5117
        50        2.0000           -0.5210454             -14.1784
        51        2.0000           -0.5193033             -14.1310
        52        2.0000           -0.5179669             -14.0946
        53        2.0000           -0.5081429             -13.8273 (HOMO)
        54                         -0.3867304             -10.5235 (LUMO)
        55                         -0.3721473             -10.1266
        56                         -0.3387234              -9.2171
        57                         -0.3380190              -9.1980
        58                         -0.3352757              -9.1233
        59                         -0.3070130              -8.3542
        60                         -0.2096928              -5.7060
        61                         -0.2074215              -5.6442
        62                         -0.1584276              -4.3110
        63                         -0.1268588              -3.4520
        64                         -0.0453975              -1.2353
       ...                                ...                  ...
       105                          0.5711152              15.5408
      -------------------------------------------------------------
                  HL-Gap            0.1214125 Eh            3.3038 eV

     #   Z          covCN         q      C6AA      α(0)
     1   6 C        3.752    -0.120    22.850     6.817
     2   6 C        3.741    -0.016    20.933     6.528
     3   7 N        2.854     0.036    20.618     6.744
     4   6 C        3.071     0.046    26.897     8.504
     5   7 N        2.854     0.037    20.598     6.741
     6   6 C        3.110     0.030    27.186     8.542
     7   6 C        3.106     0.030    27.195     8.545
     8   6 C        2.972     0.003    27.963     8.674
     9   6 C        2.922    -0.034    28.847     8.808
    10   6 C        2.919    -0.023    28.571     8.765
    11   6 C        2.920    -0.018    28.448     8.747
    12   6 C        2.919    -0.020    28.507     8.756
    13   6 C        2.925    -0.029    28.728     8.790
    14   6 C        2.973     0.004    27.937     8.670
    15   6 C        2.923    -0.034    28.844     8.807
    16   6 C        2.919    -0.022    28.556     8.763
    17   6 C        2.920    -0.018    28.460     8.748
    18   6 C        2.919    -0.020    28.513     8.756
    19   6 C        2.924    -0.029    28.728     8.790
    20   6 C        3.741    -0.017    20.948     6.530
    21   6 C        3.753    -0.121    22.869     6.819
    22   1 H        0.925     0.058     2.221     2.330
    23   1 H        0.925     0.078     1.996     2.209
    24   1 H        0.925     0.060     2.195     2.317
    25   1 H        0.924     0.077     2.007     2.215
    26   1 H        0.924     0.088     1.894     2.152
    27   1 H        0.926     0.098     1.807     2.102
    28   1 H        0.926     0.041     2.432     2.439
    29   1 H        0.926     0.057     2.239     2.340
    30   1 H        0.926     0.060     2.196     2.317
    31   1 H        0.926     0.057     2.229     2.335
    32   1 H        0.926     0.041     2.434     2.440
    33   1 H        0.926     0.037     2.483     2.464
    34   1 H        0.926     0.057     2.236     2.339
    35   1 H        0.926     0.060     2.197     2.318
    36   1 H        0.926     0.057     2.230     2.335
    37   1 H        0.926     0.040     2.445     2.445
    38   1 H        0.924     0.077     2.008     2.216
    39   1 H        0.925     0.090     1.882     2.146
    40   1 H        0.925     0.058     2.222     2.331
    41   1 H        0.925     0.079     1.994     2.208
    42   1 H        0.925     0.062     2.174     2.306

Wiberg/Mayer (AO) data.
largest (>0.10) Wiberg bond orders for each atom

     #   Z sym  total        # sym  WBO       # sym  WBO       # sym  WBO
 ---------------------------------------------------------------------------
     1   6 C    3.983 --     2 C    1.005    22 H    0.985    24 H    0.982
                            23 H    0.978
     2   6 C    3.943 --     1 C    1.005     3 N    0.967    25 H    0.963
                            26 H    0.963
     3   7 N    3.693 --     4 C    1.350     7 C    1.184     2 C    0.967
     4   6 C    3.941 --     5 N    1.351     3 N    1.350    27 H    0.956
     5   7 N    3.693 --     4 C    1.351     6 C    1.187    20 C    0.967
     6   6 C    3.945 --     7 C    1.464     5 N    1.187    14 C    1.040
     7   6 C    3.944 --     6 C    1.464     3 N    1.184     8 C    1.049
     8   6 C    3.981 --     9 C    1.384    13 C    1.378     7 C    1.049
                            11 C    0.105
     9   6 C    3.989 --    10 C    1.447     8 C    1.384    28 H    0.966
                            12 C    0.107
    10   6 C    3.990 --     9 C    1.447    11 C    1.437    29 H    0.968
                            13 C    0.108
    11   6 C    3.984 --    10 C    1.437    12 C    1.431    30 H    0.969
                             8 C    0.105
    12   6 C    3.990 --    13 C    1.454    11 C    1.431    31 H    0.968
                             9 C    0.107
    13   6 C    3.990 --    12 C    1.454     8 C    1.378    32 H    0.969
                            10 C    0.108
    14   6 C    3.981 --    19 C    1.386    15 C    1.386     6 C    1.040
                            17 C    0.106
    15   6 C    3.989 --    16 C    1.447    14 C    1.386    33 H    0.968
                            18 C    0.108
    16   6 C    3.990 --    15 C    1.447    17 C    1.436    34 H    0.968
                            19 C    0.108
    17   6 C    3.985 --    16 C    1.436    18 C    1.435    35 H    0.969
                            14 C    0.106
    18   6 C    3.990 --    19 C    1.450    17 C    1.435    36 H    0.968
                            15 C    0.108
    19   6 C    3.991 --    18 C    1.450    14 C    1.386    37 H    0.970
                            16 C    0.108
    20   6 C    3.943 --    21 C    1.002     5 N    0.967    38 H    0.966
                            39 H    0.961
    21   6 C    3.984 --    20 C    1.002    40 H    0.985    42 H    0.985
                            41 H    0.978
    22   1 H    0.997 --     1 C    0.985
    23   1 H    0.993 --     1 C    0.978
    24   1 H    0.996 --     1 C    0.982
    25   1 H    0.993 --     2 C    0.963
    26   1 H    0.992 --     2 C    0.963
    27   1 H    0.989 --     4 C    0.956
    28   1 H    0.998 --     9 C    0.966
    29   1 H    0.996 --    10 C    0.968
    30   1 H    0.996 --    11 C    0.969
    31   1 H    0.996 --    12 C    0.968
    32   1 H    0.998 --    13 C    0.969
    33   1 H    0.999 --    15 C    0.968
    34   1 H    0.996 --    16 C    0.968
    35   1 H    0.996 --    17 C    0.969
    36   1 H    0.996 --    18 C    0.968
    37   1 H    0.998 --    19 C    0.970
    38   1 H    0.993 --    20 C    0.966
    39   1 H    0.991 --    20 C    0.961
    40   1 H    0.997 --    21 C    0.985
    41   1 H    0.993 --    21 C    0.978
    42   1 H    0.996 --    21 C    0.985
 ---------------------------------------------------------------------------

molecular dipole:
                 x           y           z       tot (Debye)
 q only:        2.737      -0.068      -6.754
   full:        2.568      -0.197      -6.672      18.178

           -------------------------------------------------
          | TOTAL ENERGY              -56.884576098163 Eh   |
          | GRADIENT NORM               0.000408290021 Eh/α |
          | HOMO-LUMO GAP               3.303802000265 eV   |
           -------------------------------------------------

 * finished run on 2024/12/20 at 02:13:31.726
