   * xtb version 6.7.1 (edcfbbe) compiled by 'conda@3ef47c1a292c' on 2024-11-25

   ID    Z sym.   atoms
    1    6 C      1-14, 16-21, 23-36
    2    7 N      15
    3    8 O      22
    4    1 H      37-100

          program call               : xtb C0272.xyz --opt --namespace C0272 --charge +1
          :  Hamiltonian                  GFN2-xTB          :
 * total energy  :  -112.0688593 Eh     change       -0.9602132E-09 Eh
 * total energy  :  -112.0786620 Eh     change       -0.9802716E-02 Eh
 * total energy  :  -112.0813347 Eh     change       -0.2672736E-02 Eh
 * total energy  :  -112.0818411 Eh     change       -0.5063636E-03 Eh
 * total energy  :  -112.0823926 Eh     change       -0.5515503E-03 Eh
 * total energy  :  -112.0827507 Eh     change       -0.3580620E-03 Eh
 * total energy  :  -112.0830592 Eh     change       -0.3085355E-03 Eh
 * total energy  :  -112.0832858 Eh     change       -0.2265671E-03 Eh
 * total energy  :  -112.0834734 Eh     change       -0.1876008E-03 Eh
 * total energy  :  -112.0836601 Eh     change       -0.1867335E-03 Eh
 * total energy  :  -112.0911751 Eh     change       -0.1681752E-04 Eh
 * total energy  :  -112.0911911 Eh     change       -0.1604394E-04 Eh
 * total energy  :  -112.0912061 Eh     change       -0.1492999E-04 Eh
 * total energy  :  -112.0912212 Eh     change       -0.1513523E-04 Eh
 * total energy  :  -112.0912388 Eh     change       -0.1757287E-04 Eh
 * total energy  :  -112.0912588 Eh     change       -0.1998711E-04 Eh
 * total energy  :  -112.0912641 Eh     change       -0.5333725E-05 Eh
 * total energy  :  -112.0912726 Eh     change       -0.8530983E-05 Eh
 * total energy  :  -112.0912759 Eh     change       -0.3304629E-05 Eh
   *** GEOMETRY OPTIMIZATION CONVERGED AFTER 124 ITERATIONS ***

 final structure:
================
100
 xtb: 6.7.1 (edcfbbe)
C           -0.44817995636475        1.56449613702459       -0.52513585313238
C           -1.03974667387514        0.33418626177013        0.15204796667386
C           -0.09307629195032       -0.31145592556256        1.16508894031970
C            0.29264153360699        0.57856246701290        2.34856231987052
C           -0.88076207643320        1.08059543463250        3.19211336249092
C           -1.76111975255135       -0.01678160383913        3.79353837590369
C           -1.02797185594652       -1.01124629657530        4.69565714042496
C           -0.31906327835496       -0.39106997343494        5.90100233266233
C           -1.22642972758762        0.38615468222026        6.85663959569346
C           -2.38013265787992       -0.42424828087649        7.45181662009323
C           -1.95690043448230       -1.67739413669750        8.22187283507343
C           -0.98921283078593       -1.43189958096386        9.38160249837111
C           -1.48133523616460       -0.44779677611549       10.45139143617861
C           -2.68897584859623       -1.02115853194682       11.18504225874308
N           -3.34149837194434       -0.12661756402374       12.19531309171385
C           -4.47290939252242       -0.88877075751421       12.79277682127673
C           -4.47498249876100       -1.20984167562193       14.14286780382233
C           -5.51675339150474       -1.91755469328970       14.71635546236888
C           -6.58215922958987       -2.31708108404469       13.93464814442164
C           -6.59547047473182       -2.01546398761492       12.58759424652354
C           -5.55474402814171       -1.30703046265514       11.98816156207107
O           -5.54116681056717       -1.01240630032108       10.66302233511006
C           -6.55772857738647       -1.54979795231131        9.81297574688591
C           -6.26615196553647       -1.15401581562772        8.36537996810849
C           -6.87552112723779        0.18792663871109        7.95743778757863
C           -6.25200928341840        1.37339479338694        8.68801029145476
C           -6.82673021823335        2.72265650978722        8.25519069952203
C           -8.28252223190185        2.95809525565346        8.66354288932663
C           -8.56016217351287        2.87022296515953       10.16638018961806
C           -7.71643419457902        3.80335907569631       11.03769286662127
C           -7.85548618632724        5.29117807395696       10.70867663094687
C           -9.27466227198537        5.85028396798028       10.82482531250003
C           -9.90956394620733        5.72239667639590       12.21046167020681
C           -9.14822810890274        6.47666118363176       13.29426029869352
C           -3.87632591971858        1.10567888098797       11.57813521951072
C           -2.34207180251387        0.28645907188963       13.19800229773275
H           -0.29751213202186        2.37174326860904        0.18740118791247
H           -1.11657375328082        1.92332929555495       -1.30464874605558
H            0.50984962067371        1.32354581275223       -0.98069810918667
H           -1.97911750530411        0.60296586032879        0.63876164495497
H           -1.27326479612102       -0.41018558664465       -0.61326946184210
H           -0.55272738136988       -1.22975455606639        1.53690452620446
H            0.82558037624281       -0.59794767038486        0.64689577237289
H            0.98251595580473        0.01940317810052        2.98468829884470
H            0.83864027051342        1.44778835142986        1.97728450867560
H           -0.48149336731929        1.70588287510209        3.99432878930702
H           -1.51434731743027        1.72227685786023        2.57678612740184
H           -2.56607244723284        0.46107682726269        4.35762368408764
H           -2.23160023681776       -0.57889151779078        2.98485795078149
H           -1.74808923655467       -1.75735508129172        5.04048242085446
H           -0.28108597066428       -1.54342348481287        4.10454525108671
H            0.18749502429410       -1.18921864404225        6.44841606873454
H            0.45601150182186        0.29016504188656        5.54647997374251
H           -0.60806575057674        0.79069778680662        7.66184000365832
H           -1.65389202454976        1.23870733600224        6.32621278067636
H           -2.96237744301094        0.23396070142983        8.10402121341306
H           -3.04449159986583       -0.73529589683283        6.64397825399940
H           -2.85366101827939       -2.18635682856051        8.58543021272655
H           -1.47035642682488       -2.36573213872913        7.53070298251017
H           -0.76515282523415       -2.38976751594946        9.85609145261711
H           -0.05305342160226       -1.04397615840075        8.98071796603359
H           -0.65302911762796       -0.27513899831780       11.13970586498969
H           -1.73203187624572        0.49495363799211        9.96755457785276
H           -3.45133750846236       -1.27649155384040       10.45099786776226
H           -2.39528262117673       -1.93245061629124       11.71228774277665
H           -3.66480324501414       -0.92181568436162       14.78848026179384
H           -5.48578279632981       -2.14993169994774       15.76774491741294
H           -7.40332039002755       -2.86646401753395       14.36546181082076
H           -7.43247122168824       -2.33735361026099       11.99228994665745
H           -6.55383305714801       -2.64151255439731        9.91213438312446
H           -7.53779794027776       -1.16498062770013       10.11518188852546
H           -5.18539403291208       -1.13391778492889        8.21505916157160
H           -6.67630026677492       -1.93245844269080        7.72127530272793
H           -6.73257458085979        0.31865547661669        6.88354481578555
H           -7.94928876351765        0.15964881016892        8.14633372562988
H           -6.39845709890086        1.25517349359961        9.76216404584143
H           -5.17670459423835        1.37770275838762        8.48480736799454
H           -6.20600036529095        3.51525059120000        8.67735478429787
H           -6.75708685900774        2.80234546321682        7.16824779638736
H           -8.57507571998163        3.94602867202850        8.30583244287542
H           -8.92320983415462        2.23507868725834        8.15468753911043
H           -9.61590389079336        3.09257011939361       10.32752717085808
H           -8.40117817987718        1.84345409399091       10.50824262255778
H           -7.99675651827657        3.64041423437850       12.08084391935615
H           -6.66089104532972        3.53113679651027       10.94400932150624
H           -7.19704688011187        5.85016211782830       11.37672347258887
H           -7.50150265684268        5.46883696914466        9.69130288993379
H           -9.24009740634552        6.90884801382964       10.55635814894756
H           -9.92008937485014        5.35467837067612       10.09710352982521
H          -10.92435420747195        6.12219644847626       12.15300711119657
H           -9.99299374530997        4.66970424848005       12.48799450381378
H           -9.01660669196672        7.51835775197309       13.01036255061184
H           -9.69835711428442        6.44561241462236       14.23192112014815
H           -8.16699255497870        6.03974651120385       13.46468747615118
H           -4.46792817876673        1.64675511878133       12.31527597095305
H           -3.06313245608949        1.74471238039375       11.24295624274614
H           -4.50793105809909        0.85411700916720       10.73094014183047
H           -1.85711933826574       -0.58175629462694       13.63941092623926
H           -1.58416167190327        0.89655534598879       12.71239957146731
H           -2.81217594405259        0.88635156011165       13.97475114604392

          :  Hamiltonian                  GFN2-xTB          :
         :: total energy            -112.091275923904 Eh    ::
         :: gradient norm              0.000423136485 Eh/a0 ::
         :: HOMO-LUMO gap              2.581755326988 eV    ::
         :: SCC energy              -113.747120599976 Eh    ::
         :: -> dispersion             -0.094047042393 Eh    ::
         :: repulsion energy           1.655844676072 Eh    ::

    * Orbital Energies and Occupations

         #    Occupation            Energy/Eh            Energy/eV
      -------------------------------------------------------------
         1        2.0000           -0.8509816             -23.1564
       ...           ...                  ...                  ...
        93        2.0000           -0.4974205             -13.5355
        94        2.0000           -0.4962551             -13.5038
        95        2.0000           -0.4951314             -13.4732
        96        2.0000           -0.4939482             -13.4410
        97        2.0000           -0.4845076             -13.1841
        98        2.0000           -0.4820722             -13.1179
        99        2.0000           -0.4815911             -13.1048
       100        2.0000           -0.4789541             -13.0330
       101        2.0000           -0.4777252             -12.9996
       102        2.0000           -0.4759385             -12.9509
       103        2.0000           -0.4665085             -12.6943
       104        2.0000           -0.4621352             -12.5753
       105        2.0000           -0.4604143             -12.5285 (HOMO)
       106                         -0.3655366              -9.9468 (LUMO)
       107                         -0.3511939              -9.5565
       108                         -0.2306438              -6.2761
       109                         -0.2148554              -5.8465
       110                         -0.1465225              -3.9871
       111                         -0.1337403              -3.6393
       112                         -0.1166897              -3.1753
       113                         -0.1105376              -3.0079
       114                         -0.0449290              -1.2226
       115                         -0.0292360              -0.7956
       116                         -0.0260702              -0.7094
       ...                                ...                  ...
       208                          0.5236914              14.2504
      -------------------------------------------------------------
                  HL-Gap            0.0948778 Eh            2.5818 eV

     #   Z          covCN         q      C6AA      α(0)
     1   6 C        3.751    -0.102    22.511     6.766
     2   6 C        3.799    -0.052    21.509     6.603
     3   6 C        3.800    -0.057    21.608     6.618
     4   6 C        3.800    -0.057    21.606     6.618
     5   6 C        3.800    -0.057    21.591     6.616
     6   6 C        3.800    -0.057    21.593     6.616
     7   6 C        3.800    -0.058    21.614     6.619
     8   6 C        3.800    -0.059    21.634     6.622
     9   6 C        3.800    -0.059    21.631     6.622
    10   6 C        3.800    -0.056    21.589     6.616
    11   6 C        3.800    -0.063    21.707     6.634
    12   6 C        3.802    -0.064    21.733     6.637
    13   6 C        3.800    -0.070    21.845     6.655
    14   6 C        3.765    -0.038    21.289     6.577
    15   7 N        3.622     0.128    19.057     6.484
    16   6 C        2.929     0.003    27.968     8.673
    17   6 C        2.921    -0.044    29.095     8.846
    18   6 C        2.919    -0.033    28.811     8.802
    19   6 C        2.918    -0.019    28.481     8.752
    20   6 C        2.921    -0.059    29.456     8.900
    21   6 C        2.856     0.140    24.944     8.186
    22   8 O        1.703    -0.278    18.620     5.826
    23   6 C        3.687     0.075    19.509     6.323
    24   6 C        3.800    -0.069    21.816     6.650
    25   6 C        3.802    -0.064    21.727     6.636
    26   6 C        3.801    -0.056    21.577     6.613
    27   6 C        3.801    -0.061    21.671     6.628
    28   6 C        3.800    -0.060    21.661     6.627
    29   6 C        3.800    -0.056    21.575     6.613
    30   6 C        3.799    -0.054    21.546     6.609
    31   6 C        3.800    -0.058    21.618     6.620
    32   6 C        3.801    -0.059    21.634     6.622
    33   6 C        3.799    -0.053    21.520     6.605
    34   6 C        3.751    -0.102    22.508     6.766
    35   6 C        3.723    -0.090    22.334     6.749
    36   6 C        3.721    -0.088    22.290     6.743
    37   1 H        0.925     0.034     2.535     2.490
    38   1 H        0.925     0.033     2.551     2.497
    39   1 H        0.925     0.035     2.516     2.480
    40   1 H        0.924     0.029     2.602     2.522
    41   1 H        0.924     0.028     2.615     2.529
    42   1 H        0.924     0.027     2.625     2.533
    43   1 H        0.924     0.030     2.580     2.512
    44   1 H        0.924     0.027     2.627     2.534
    45   1 H        0.924     0.034     2.537     2.491
    46   1 H        0.924     0.025     2.659     2.550
    47   1 H        0.924     0.033     2.543     2.494
    48   1 H        0.924     0.023     2.693     2.566
    49   1 H        0.924     0.034     2.526     2.486
    50   1 H        0.924     0.024     2.672     2.556
    51   1 H        0.924     0.037     2.487     2.466
    52   1 H        0.924     0.026     2.639     2.541
    53   1 H        0.924     0.038     2.470     2.457
    54   1 H        0.924     0.023     2.689     2.564
    55   1 H        0.924     0.038     2.472     2.459
    56   1 H        0.924     0.015     2.810     2.621
    57   1 H        0.924     0.041     2.433     2.439
    58   1 H        0.924     0.021     2.716     2.577
    59   1 H        0.925     0.053     2.288     2.365
    60   1 H        0.924     0.038     2.470     2.458
    61   1 H        0.925     0.060     2.203     2.321
    62   1 H        0.924     0.046     2.369     2.407
    63   1 H        0.925     0.058     2.226     2.333
    64   1 H        0.925     0.105     1.742     2.064
    65   1 H        0.924     0.071     2.071     2.250
    66   1 H        0.926     0.066     2.133     2.284
    67   1 H        0.926     0.070     2.081     2.256
    68   1 H        0.926     0.073     2.050     2.239
    69   1 H        0.926     0.069     2.102     2.267
    70   1 H        0.924     0.040     2.452     2.449
    71   1 H        0.924     0.049     2.332     2.388
    72   1 H        0.924     0.055     2.258     2.350
    73   1 H        0.924     0.054     2.272     2.357
    74   1 H        0.924     0.047     2.355     2.400
    75   1 H        0.924     0.044     2.394     2.420
    76   1 H        0.924     0.031     2.578     2.511
    77   1 H        0.924     0.020     2.735     2.586
    78   1 H        0.924     0.035     2.521     2.483
    79   1 H        0.924     0.035     2.510     2.478
    80   1 H        0.924     0.041     2.433     2.439
    81   1 H        0.924     0.031     2.572     2.508
    82   1 H        0.924     0.038     2.469     2.457
    83   1 H        0.924     0.016     2.789     2.611
    84   1 H        0.924     0.028     2.616     2.529
    85   1 H        0.924     0.014     2.827     2.629
    86   1 H        0.924     0.031     2.570     2.507
    87   1 H        0.924     0.031     2.572     2.508
    88   1 H        0.924     0.034     2.534     2.489
    89   1 H        0.924     0.031     2.568     2.506
    90   1 H        0.924     0.032     2.560     2.502
    91   1 H        0.924     0.027     2.625     2.534
    92   1 H        0.925     0.037     2.488     2.467
    93   1 H        0.925     0.033     2.538     2.491
    94   1 H        0.925     0.029     2.602     2.523
    95   1 H        0.925     0.086     1.921     2.167
    96   1 H        0.925     0.087     1.908     2.160
    97   1 H        0.925     0.119     1.622     1.992
    98   1 H        0.925     0.093     1.854     2.129
    99   1 H        0.925     0.096     1.822     2.111
   100   1 H        0.925     0.094     1.845     2.124

Wiberg/Mayer (AO) data.
largest (>0.10) Wiberg bond orders for each atom

     #   Z sym  total        # sym  WBO       # sym  WBO       # sym  WBO
 ---------------------------------------------------------------------------
     1   6 C    3.997 --     2 C    1.020    39 H    0.988    38 H    0.987
                            37 H    0.986
     2   6 C    3.998 --     1 C    1.020     3 C    1.008    41 H    0.978
                            40 H    0.976
     3   6 C    3.997 --     2 C    1.008     4 C    1.008    43 H    0.977
                            42 H    0.976
     4   6 C    3.997 --     5 C    1.008     3 C    1.008    44 H    0.975
                            45 H    0.975
     5   6 C    3.998 --     4 C    1.008     6 C    1.008    46 H    0.975
                            47 H    0.975
     6   6 C    3.998 --     7 C    1.008     5 C    1.008    48 H    0.975
                            49 H    0.975
     7   6 C    3.997 --     8 C    1.008     6 C    1.008    50 H    0.975
                            51 H    0.974
     8   6 C    3.997 --     7 C    1.008     9 C    1.007    52 H    0.975
                            53 H    0.974
     9   6 C    3.997 --     8 C    1.007    10 C    1.007    54 H    0.976
                            55 H    0.974
    10   6 C    3.997 --    11 C    1.007     9 C    1.007    57 H    0.973
                            56 H    0.973
    11   6 C    3.995 --    12 C    1.008    10 C    1.007    58 H    0.973
                            59 H    0.972
    12   6 C    3.990 --    11 C    1.008    13 C    0.996    60 H    0.977
                            61 H    0.971
    13   6 C    3.987 --    14 C    1.007    12 C    0.996    62 H    0.974
                            63 H    0.968
    14   6 C    3.924 --    13 C    1.007    65 H    0.970    64 H    0.951
                            15 N    0.916
    15   7 N    3.807 --    36 C    0.964    35 C    0.952    14 C    0.916
                            16 C    0.915
    16   6 C    3.914 --    17 C    1.430    21 C    1.320    15 N    0.915
                            19 C    0.102
    17   6 C    3.987 --    16 C    1.430    18 C    1.429    66 H    0.960
                            20 C    0.104
    18   6 C    3.988 --    19 C    1.434    17 C    1.429    67 H    0.967
    19   6 C    3.986 --    20 C    1.449    18 C    1.434    68 H    0.966
                            16 C    0.102
    20   6 C    3.987 --    19 C    1.449    21 C    1.366    69 H    0.961
                            17 C    0.104
    21   6 C    3.944 --    20 C    1.366    16 C    1.320    22 O    1.084
    22   8 O    2.253 --    21 C    1.084    23 C    0.937
    23   6 C    3.925 --    24 C    1.001    70 H    0.970    71 H    0.966
                            22 O    0.937
    24   6 C    3.989 --    25 C    1.007    23 C    1.001    73 H    0.973
                            72 H    0.969
    25   6 C    3.994 --    26 C    1.009    24 C    1.007    74 H    0.975
                            75 H    0.973
    26   6 C    3.998 --    25 C    1.009    27 C    1.006    77 H    0.974
                            76 H    0.968
    27   6 C    3.996 --    28 C    1.008    26 C    1.006    79 H    0.977
                            78 H    0.975
    28   6 C    3.996 --    27 C    1.008    29 C    1.008    81 H    0.975
                            80 H    0.974
    29   6 C    3.997 --    28 C    1.008    30 C    1.007    83 H    0.975
                            82 H    0.974
    30   6 C    3.998 --    31 C    1.007    29 C    1.007    85 H    0.976
                            84 H    0.975
    31   6 C    3.997 --    32 C    1.008    30 C    1.007    86 H    0.975
                            87 H    0.975
    32   6 C    3.997 --    33 C    1.008    31 C    1.008    88 H    0.977
                            89 H    0.975
    33   6 C    3.998 --    34 C    1.020    32 C    1.008    90 H    0.978
                            91 H    0.976
    34   6 C    3.997 --    33 C    1.020    92 H    0.987    93 H    0.987
                            94 H    0.986
    35   6 C    3.924 --    95 H    0.978    96 H    0.973    97 H    0.956
                            15 N    0.952
    36   6 C    3.935 --    98 H    0.975   100 H    0.974    99 H    0.970
                            15 N    0.964
    37   1 H    0.999 --     1 C    0.986
    38   1 H    0.999 --     1 C    0.987
    39   1 H    0.999 --     1 C    0.988
    40   1 H    0.999 --     2 C    0.976
    41   1 H    0.999 --     2 C    0.978
    42   1 H    0.999 --     3 C    0.976
    43   1 H    0.999 --     3 C    0.977
    44   1 H    0.999 --     4 C    0.975
    45   1 H    0.999 --     4 C    0.975
    46   1 H    0.999 --     5 C    0.975
    47   1 H    0.999 --     5 C    0.975
    48   1 H    0.999 --     6 C    0.975
    49   1 H    0.999 --     6 C    0.975
    50   1 H    0.999 --     7 C    0.975
    51   1 H    0.999 --     7 C    0.974
    52   1 H    0.999 --     8 C    0.975
    53   1 H    0.998 --     8 C    0.974
    54   1 H    0.999 --     9 C    0.976
    55   1 H    0.999 --     9 C    0.974
    56   1 H    1.000 --    10 C    0.973
    57   1 H    0.998 --    10 C    0.973
    58   1 H    1.000 --    11 C    0.973
    59   1 H    0.997 --    11 C    0.972
    60   1 H    0.998 --    12 C    0.977
    61   1 H    0.996 --    12 C    0.971
    62   1 H    0.998 --    13 C    0.974
    63   1 H    0.997 --    13 C    0.968
    64   1 H    0.989 --    14 C    0.951
    65   1 H    0.995 --    14 C    0.970
    66   1 H    0.995 --    17 C    0.960
    67   1 H    0.995 --    18 C    0.967
    68   1 H    0.994 --    19 C    0.966
    69   1 H    0.995 --    20 C    0.961
    70   1 H    0.998 --    23 C    0.970
    71   1 H    0.998 --    23 C    0.966
    72   1 H    0.997 --    24 C    0.969
    73   1 H    0.996 --    24 C    0.973
    74   1 H    0.997 --    25 C    0.975
    75   1 H    0.998 --    25 C    0.973
    76   1 H    0.999 --    26 C    0.968
    77   1 H    1.000 --    26 C    0.974
    78   1 H    0.999 --    27 C    0.975
    79   1 H    0.999 --    27 C    0.977
    80   1 H    0.998 --    28 C    0.974
    81   1 H    0.999 --    28 C    0.975
    82   1 H    0.999 --    29 C    0.974
    83   1 H    1.000 --    29 C    0.975
    84   1 H    0.999 --    30 C    0.975
    85   1 H    1.000 --    30 C    0.976
    86   1 H    0.999 --    31 C    0.975
    87   1 H    0.999 --    31 C    0.975
    88   1 H    0.999 --    32 C    0.977
    89   1 H    0.999 --    32 C    0.975
    90   1 H    0.999 --    33 C    0.978
    91   1 H    0.999 --    33 C    0.976
    92   1 H    0.999 --    34 C    0.987
    93   1 H    0.999 --    34 C    0.987
    94   1 H    0.999 --    34 C    0.986
    95   1 H    0.993 --    35 C    0.978
    96   1 H    0.991 --    35 C    0.973
    97   1 H    0.986 --    35 C    0.956
    98   1 H    0.991 --    36 C    0.975
    99   1 H    0.990 --    36 C    0.970
   100   1 H    0.991 --    36 C    0.974
 ---------------------------------------------------------------------------

molecular dipole:
                 x           y           z       tot (Debye)
 q only:       -7.358      -0.587      21.834
   full:       -7.453      -0.709      21.991      59.047

           -------------------------------------------------
          | TOTAL ENERGY             -112.091275923904 Eh   |
          | GRADIENT NORM               0.000423136485 Eh/α |
          | HOMO-LUMO GAP               2.581755326988 eV   |
           -------------------------------------------------

 * finished run on 2024/12/20 at 02:13:29.555
