   * xtb version 6.7.1 (edcfbbe) compiled by 'conda@3ef47c1a292c' on 2024-11-25

   ID    Z sym.   atoms
    1    6 C      1, 3, 4, 6-8, 10-16
    2    7 N      2, 5, 18
    3    8 O      9, 17
    4    1 H      19-32

          program call               : xtb C0279.xyz --opt --namespace C0279 --charge +1
          :  Hamiltonian                  GFN2-xTB          :
 * total energy  :   -51.4662277 Eh     change       -0.7390923E-09 Eh
 * total energy  :   -51.4734810 Eh     change       -0.7253259E-02 Eh
 * total energy  :   -51.4753861 Eh     change       -0.1905164E-02 Eh
 * total energy  :   -51.4759269 Eh     change       -0.5408154E-03 Eh
 * total energy  :   -51.4764926 Eh     change       -0.5656090E-03 Eh
 * total energy  :   -51.4769255 Eh     change       -0.4329504E-03 Eh
 * total energy  :   -51.4774850 Eh     change       -0.5595168E-03 Eh
 * total energy  :   -51.4781156 Eh     change       -0.6305723E-03 Eh
 * total energy  :   -51.4786223 Eh     change       -0.5067181E-03 Eh
 * total energy  :   -51.4789569 Eh     change       -0.3345639E-03 Eh
 * total energy  :   -51.4911468 Eh     change       -0.8856806E-05 Eh
 * total energy  :   -51.4911789 Eh     change       -0.3210578E-04 Eh
 * total energy  :   -51.4911916 Eh     change       -0.1274695E-04 Eh
 * total energy  :   -51.4912170 Eh     change       -0.2539210E-04 Eh
 * total energy  :   -51.4912302 Eh     change       -0.1321304E-04 Eh
 * total energy  :   -51.4912349 Eh     change       -0.4690300E-05 Eh
 * total energy  :   -51.4912436 Eh     change       -0.8657596E-05 Eh
 * total energy  :   -51.4912485 Eh     change       -0.4900807E-05 Eh
 * total energy  :   -51.4912530 Eh     change       -0.4568768E-05 Eh
   *** GEOMETRY OPTIMIZATION CONVERGED AFTER 78 ITERATIONS ***

 final structure:
================
32
 xtb: 6.7.1 (edcfbbe)
C           -1.60648754582566       -1.73728721380723        0.12800260209117
N           -1.00601790356175       -0.80855074863412       -0.79050897554928
C           -0.78746872399812        0.51430480862497       -0.54484080963022
C           -0.18856653652108        1.03854598191987       -1.64780864350933
N           -0.06333211784857        0.03071905278155       -2.55795022478974
C           -0.55305635092226       -1.08216734397067       -2.00943485273003
C            0.67957616884216        0.06433755084517       -3.78295779839486
C            1.86403077753490       -0.94119703981182       -3.65961789893918
O            1.87567593648884       -1.69076915148030       -2.71108327325126
C            2.86600088873803       -0.92745389889091       -4.71957493180705
C            3.93527226765977       -1.82683475895840       -4.59909642635692
C            4.90423842300282       -1.89435028299500       -5.57513250256562
C            4.84065312262011       -1.05695983671735       -6.68667930954006
C            3.77692173865342       -0.16597482714316       -6.81632348157333
C            2.79667753616397       -0.10035999672068       -5.84683227284464
C            5.89940381349660       -1.22362855924986       -7.74142263154217
O            6.39810790793758       -2.30316591107004       -7.95798367672830
N            6.22659651821828       -0.10417592218237       -8.42285514260514
H           -1.64282672637574       -2.72763017123492       -0.31957361126383
H           -2.61887523924808       -1.41823973973606        0.37833544490221
H           -1.02018130211259       -1.78474945606232        1.04628519444866
H           -1.06379512535159        0.98243657872121        0.37786182599045
H            0.14325433903017        2.03795082506089       -1.84185234795185
H           -0.59228502884627       -2.04310008063382       -2.48347574044459
H            0.05498098208763       -0.25042341495267       -4.62411992958360
H            1.04416797668674        1.07667920322004       -3.95586268466558
H            3.97482409913154       -2.46845118501167       -3.73222702553119
H            5.71864746870717       -2.59888413124673       -5.50506257615162
H            3.69492689942454        0.45857290733360       -7.69312163606009
H            1.97710221359411        0.58771782199514       -5.98355838374669
H            5.90227489004565        0.80839628024838       -8.16141329427933
H            6.95530863254688       -0.17173734030269       -9.11540498544469

          :  Hamiltonian                  GFN2-xTB          :
         :: total energy             -51.491253026562 Eh    ::
         :: gradient norm              0.000910934161 Eh/a0 ::
         :: HOMO-LUMO gap              1.794413105336 eV    ::
         :: SCC energy               -52.255304237240 Eh    ::
         :: -> dispersion             -0.029313290870 Eh    ::
         :: repulsion energy           0.764051210678 Eh    ::

    * Orbital Energies and Occupations

         #    Occupation            Energy/Eh            Energy/eV
      -------------------------------------------------------------
         1        2.0000           -0.8879868             -24.1634
       ...           ...                  ...                  ...
        34        2.0000           -0.6065472             -16.5050
        35        2.0000           -0.6017656             -16.3749
        36        2.0000           -0.5989044             -16.2970
        37        2.0000           -0.5962994             -16.2261
        38        2.0000           -0.5893765             -16.0378
        39        2.0000           -0.5798026             -15.7772
        40        2.0000           -0.5640445             -15.3484
        41        2.0000           -0.5437537             -14.7963
        42        2.0000           -0.5351950             -14.5634
        43        2.0000           -0.5320260             -14.4772
        44        2.0000           -0.5301043             -14.4249
        45        2.0000           -0.5059730             -13.7682
        46        2.0000           -0.4831566             -13.1474 (HOMO)
        47                         -0.4172132             -11.3529 (LUMO)
        48                         -0.3972737             -10.8104
        49                         -0.3647429              -9.9252
        50                         -0.3468091              -9.4372
        51                         -0.3358241              -9.1382
        52                         -0.2730112              -7.4290
        53                         -0.2009107              -5.4671
        54                         -0.1752626              -4.7691
        55                         -0.1250949              -3.4040
        56                         -0.0885058              -2.4084
        57                         -0.0738798              -2.0104
       ...                                ...                  ...
        86                          0.5923197              16.1178
      -------------------------------------------------------------
                  HL-Gap            0.0659435 Eh            1.7944 eV

     #   Z          covCN         q      C6AA      α(0)
     1   6 C        3.693    -0.086    22.338     6.763
     2   7 N        2.867     0.080    19.858     6.618
     3   6 C        3.071    -0.008    28.156     8.700
     4   6 C        3.065    -0.008    28.143     8.699
     5   7 N        2.872     0.073    19.975     6.638
     6   6 C        3.093     0.058    26.597     8.453
     7   6 C        3.743    -0.051    21.568     6.625
     8   6 C        2.822     0.228    23.225     7.897
     9   8 O        0.857    -0.353    20.760     6.109
    10   6 C        2.970    -0.016    28.400     8.741
    11   6 C        2.925    -0.008    28.219     8.712
    12   6 C        2.921    -0.011    28.287     8.722
    13   6 C        2.974     0.006    27.875     8.660
    14   6 C        2.918    -0.025    28.616     8.772
    15   6 C        2.918    -0.027    28.684     8.783
    16   6 C        2.750     0.284    22.189     7.713
    17   8 O        0.859    -0.398    21.641     6.237
    18   7 N        2.638    -0.261    26.779     7.686
    19   1 H        0.925     0.101     1.776     2.084
    20   1 H        0.924     0.105     1.742     2.064
    21   1 H        0.924     0.108     1.710     2.045
    22   1 H        0.926     0.109     1.703     2.041
    23   1 H        0.926     0.104     1.752     2.070
    24   1 H        0.926     0.123     1.591     1.972
    25   1 H        0.924     0.102     1.766     2.078
    26   1 H        0.925     0.101     1.772     2.082
    27   1 H        0.926     0.081     1.970     2.195
    28   1 H        0.926     0.089     1.888     2.149
    29   1 H        0.926     0.060     2.198     2.319
    30   1 H        0.926     0.045     2.380     2.413
    31   1 H        0.861     0.186     1.178     1.700
    32   1 H        0.860     0.209     1.059     1.612

Wiberg/Mayer (AO) data.
largest (>0.10) Wiberg bond orders for each atom

     #   Z sym  total        # sym  WBO       # sym  WBO       # sym  WBO
 ---------------------------------------------------------------------------
     1   6 C    3.934 --     2 N    0.991    19 H    0.975    20 H    0.963
                            21 H    0.962
     2   7 N    3.719 --     6 C    1.364     3 C    1.220     1 C    0.991
     3   6 C    3.948 --     4 C    1.601     2 N    1.220    22 H    0.961
     4   6 C    3.947 --     3 C    1.601     5 N    1.214    23 H    0.962
     5   7 N    3.708 --     6 C    1.342     4 C    1.214     7 C    0.996
     6   6 C    3.945 --     2 N    1.364     5 N    1.342    24 H    0.952
     7   6 C    3.947 --     5 N    0.996    26 H    0.956    25 H    0.942
                             8 C    0.920
     8   6 C    3.928 --     9 O    1.807    10 C    1.081     7 C    0.920
     9   8 O    2.105 --     8 C    1.807
    10   6 C    3.983 --    15 C    1.350    11 C    1.344     8 C    1.081
    11   6 C    3.982 --    12 C    1.471    10 C    1.344    27 H    0.963
    12   6 C    3.983 --    11 C    1.471    13 C    1.389    28 H    0.961
    13   6 C    3.982 --    12 C    1.389    14 C    1.383    16 C    0.966
    14   6 C    3.990 --    15 C    1.478    13 C    1.383    29 H    0.965
    15   6 C    3.991 --    14 C    1.478    10 C    1.350    30 H    0.966
    16   6 C    3.956 --    17 O    1.704    18 N    1.252    13 C    0.966
    17   8 O    2.038 --    16 C    1.704    18 N    0.213
    18   7 N    3.385 --    16 C    1.252    31 H    0.945    32 H    0.936
                            17 O    0.213
    19   1 H    0.989 --     1 C    0.975
    20   1 H    0.988 --     1 C    0.963
    21   1 H    0.988 --     1 C    0.962
    22   1 H    0.988 --     3 C    0.961
    23   1 H    0.989 --     4 C    0.962
    24   1 H    0.985 --     6 C    0.952
    25   1 H    0.989 --     7 C    0.942
    26   1 H    0.989 --     7 C    0.956
    27   1 H    0.993 --    11 C    0.963
    28   1 H    0.991 --    12 C    0.961
    29   1 H    0.996 --    14 C    0.965
    30   1 H    0.997 --    15 C    0.966
    31   1 H    0.965 --    18 N    0.945
    32   1 H    0.955 --    18 N    0.936
 ---------------------------------------------------------------------------

molecular dipole:
                 x           y           z       tot (Debye)
 q only:        0.145       0.585      -4.870
   full:        0.010       0.974      -5.007      12.965

           -------------------------------------------------
          | TOTAL ENERGY              -51.491253026562 Eh   |
          | GRADIENT NORM               0.000910934161 Eh/α |
          | HOMO-LUMO GAP               1.794413105336 eV   |
           -------------------------------------------------

 * finished run on 2024/12/20 at 02:13:37.741
