   * xtb version 6.7.1 (edcfbbe) compiled by 'conda@3ef47c1a292c' on 2024-11-25

   ID    Z sym.   atoms
    1    6 C      1-16, 18-20
    2    7 N      17
    3    1 H      21-46

          program call               : xtb C0275.xyz --opt --namespace C0275 --charge +1
          :  Hamiltonian                  GFN2-xTB          :
 * total energy  :   -56.4570677 Eh     change       -0.7937757E-09 Eh
 * total energy  :   -56.4660559 Eh     change       -0.8988180E-02 Eh
 * total energy  :   -56.4687263 Eh     change       -0.2670434E-02 Eh
 * total energy  :   -56.4691917 Eh     change       -0.4654126E-03 Eh
 * total energy  :   -56.4694474 Eh     change       -0.2556805E-03 Eh
 * total energy  :   -56.4695409 Eh     change       -0.9353626E-04 Eh
 * total energy  :   -56.4696682 Eh     change       -0.1272317E-03 Eh
 * total energy  :   -56.4697429 Eh     change       -0.7469395E-04 Eh
 * total energy  :   -56.4697812 Eh     change       -0.3829005E-04 Eh
 * total energy  :   -56.4698122 Eh     change       -0.3108098E-04 Eh
 * total energy  :   -56.4699105 Eh     change       -0.1725005E-04 Eh
 * total energy  :   -56.4699328 Eh     change       -0.2232197E-04 Eh
 * total energy  :   -56.4699531 Eh     change       -0.2025113E-04 Eh
 * total energy  :   -56.4699674 Eh     change       -0.1432874E-04 Eh
 * total energy  :   -56.4699785 Eh     change       -0.1110560E-04 Eh
 * total energy  :   -56.4699892 Eh     change       -0.1069624E-04 Eh
 * total energy  :   -56.4699996 Eh     change       -0.1043724E-04 Eh
 * total energy  :   -56.4700082 Eh     change       -0.8550740E-05 Eh
 * total energy  :   -56.4700119 Eh     change       -0.3760902E-05 Eh
   *** GEOMETRY OPTIMIZATION CONVERGED AFTER 22 ITERATIONS ***

 final structure:
================
46
 xtb: 6.7.1 (edcfbbe)
C            2.38592005110318       -0.43862791076192       -0.15749290136646
C            0.90364771987027       -0.24949731826981       -0.12760510467374
C            0.04881379189945       -1.24688856744608       -0.58256233552780
C           -1.32099714979819       -1.08070999425830       -0.53698366190965
C           -1.88346232147864        0.08688441336011       -0.03451090687182
C           -1.03342803254908        1.08681125826519        0.41755848630461
C            0.33901079468349        0.91598151421692        0.37265662753125
C           -3.39885777860102        0.22157106429337       -0.06252891679539
C           -3.80404568769144        0.77737834274569       -1.41286799715949
C           -4.56681996208603        0.01056340833066       -2.28526402893042
C           -4.91813296022093        0.49567335679940       -3.53279083323977
C           -4.51362260344506        1.75803998551911       -3.94539817868403
C           -3.74011287921859        2.51877794026966       -3.07324989624721
C           -3.38694967610621        2.03730096879122       -1.82851324650967
C           -4.87503515534134        2.28885267048029       -5.29457139742639
C           -3.88416726447529        1.05997106104043        1.12862477603807
N           -5.34941995544781        1.01274577093902        1.43823804606055
C           -5.83445061950363       -0.37360133108602        1.56076256740328
C           -5.55851150545559        1.69955785305023        2.72837230727834
C           -6.12952001948013        1.71003617684570        0.39976466062338
H            2.70914782374384       -0.97177514335754        0.73700205057825
H            2.68351937278604       -1.02733438704588       -1.02163240257610
H            2.90137994825275        0.51779581120540       -0.18415063342043
H            0.46062746968696       -2.16332200691120       -0.97743375474315
H           -1.96351220003048       -1.86852850763256       -0.90332202661386
H           -1.41922705709623        2.01487719453831        0.81270001971480
H            0.98065448758826        1.70727536869123        0.73086084059572
H           -3.79495683295675       -0.79397280420613        0.02314223931660
H           -4.88306874706006       -0.98345857717378       -1.99685657888108
H           -5.50817341940025       -0.12063715567364       -4.19426043521546
H           -3.40130748335862        3.49631623727718       -3.38212535046332
H           -2.76077600970668        2.63922789147418       -1.18702049913686
H           -5.56146965769866        1.62164447108171       -5.80820570544046
H           -5.33605121972603        3.27129871931823       -5.20888999897377
H           -3.97918207957565        2.39828901102125       -5.90437053255699
H           -3.35160443902719        0.71484047476761        2.01832456909984
H           -3.63312739182361        2.10757121269687        0.95823276409661
H           -5.18361533366949       -0.94295048341687        2.22222381376834
H           -6.84251978452947       -0.37746557946891        1.97204378324140
H           -5.86313774417521       -0.85342672686734        0.58561466172899
H           -5.16681477323745        2.71422197388422        2.68442339000710
H           -6.62120383562013        1.74821749628056        2.96013490169241
H           -5.05168429935157        1.16401711436051        3.52929900796797
H           -7.19124712963652        1.65765936790208        0.63454026402977
H           -5.83285309386817        2.75580154727843        0.34582589459180
H           -5.95340535715992        1.25341681685477       -0.57318834831734

          :  Hamiltonian                  GFN2-xTB          :
         :: total energy             -56.470011929920 Eh    ::
         :: gradient norm              0.000262182471 Eh/a0 ::
         :: HOMO-LUMO gap              4.088984623553 eV    ::
         :: SCC energy               -57.444407705972 Eh    ::
         :: -> dispersion             -0.045823197826 Eh    ::
         :: repulsion energy           0.974395776052 Eh    ::

    * Orbital Energies and Occupations

         #    Occupation            Energy/Eh            Energy/eV
      -------------------------------------------------------------
         1        2.0000           -0.8608748             -23.4256
       ...           ...                  ...                  ...
        41        2.0000           -0.5642724             -15.3546
        42        2.0000           -0.5528109             -15.0427
        43        2.0000           -0.5451315             -14.8338
        44        2.0000           -0.5436044             -14.7922
        45        2.0000           -0.5350168             -14.5585
        46        2.0000           -0.5278183             -14.3627
        47        2.0000           -0.5191206             -14.1260
        48        2.0000           -0.5160045             -14.0412
        49        2.0000           -0.5081057             -13.8263
        50        2.0000           -0.5050648             -13.7435
        51        2.0000           -0.4937570             -13.4358
        52        2.0000           -0.4905282             -13.3480
        53        2.0000           -0.4780543             -13.0085 (HOMO)
        54                         -0.3277869              -8.9195 (LUMO)
        55                         -0.3231011              -8.7920
        56                         -0.3116598              -8.4807
        57                         -0.3084905              -8.3945
        58                         -0.2227589              -6.0616
        59                         -0.1981967              -5.3932
        60                         -0.1831167              -4.9829
        61                         -0.1548441              -4.2135
        62                         -0.1419136              -3.8617
        63                         -0.1365898              -3.7168
        64                         -0.0588782              -1.6022
       ...                                ...                  ...
       106                          0.5656700              15.3927
      -------------------------------------------------------------
                  HL-Gap            0.1502674 Eh            4.0890 eV

     #   Z          covCN         q      C6AA      α(0)
     1   6 C        3.758    -0.116    22.776     6.804
     2   6 C        2.966     0.026    27.409     8.587
     3   6 C        2.925    -0.036    28.890     8.814
     4   6 C        2.925    -0.038    28.956     8.825
     5   6 C        2.976    -0.004    28.128     8.700
     6   6 C        2.921    -0.043    29.080     8.843
     7   6 C        2.926    -0.038    28.946     8.823
     8   6 C        3.860    -0.034    21.144     6.539
     9   6 C        2.974    -0.010    28.269     8.721
    10   6 C        2.922    -0.047    29.172     8.857
    11   6 C        2.924    -0.040    28.982     8.828
    12   6 C        2.966     0.025    27.439     8.592
    13   6 C        2.925    -0.039    28.961     8.825
    14   6 C        2.921    -0.043    29.074     8.842
    15   6 C        3.758    -0.117    22.791     6.806
    16   6 C        3.763    -0.040    21.331     6.583
    17   7 N        3.622     0.142    18.823     6.444
    18   6 C        3.721    -0.094    22.411     6.761
    19   6 C        3.731    -0.096    22.437     6.761
    20   6 C        3.722    -0.098    22.489     6.773
    21   1 H        0.924     0.060     2.194     2.317
    22   1 H        0.925     0.056     2.247     2.344
    23   1 H        0.925     0.054     2.276     2.359
    24   1 H        0.926     0.047     2.352     2.398
    25   1 H        0.926     0.033     2.542     2.493
    26   1 H        0.926     0.020     2.728     2.583
    27   1 H        0.926     0.044     2.400     2.423
    28   1 H        0.924     0.050     2.315     2.379
    29   1 H        0.925     0.023     2.682     2.561
    30   1 H        0.926     0.045     2.385     2.415
    31   1 H        0.926     0.046     2.371     2.408
    32   1 H        0.926     0.033     2.549     2.497
    33   1 H        0.925     0.052     2.289     2.366
    34   1 H        0.925     0.056     2.241     2.341
    35   1 H        0.925     0.063     2.162     2.299
    36   1 H        0.924     0.082     1.954     2.186
    37   1 H        0.924     0.086     1.919     2.166
    38   1 H        0.925     0.098     1.800     2.098
    39   1 H        0.925     0.096     1.820     2.110
    40   1 H        0.925     0.103     1.760     2.075
    41   1 H        0.925     0.098     1.807     2.102
    42   1 H        0.925     0.098     1.802     2.100
    43   1 H        0.925     0.098     1.803     2.100
    44   1 H        0.925     0.094     1.838     2.120
    45   1 H        0.925     0.095     1.834     2.118
    46   1 H        0.925     0.108     1.712     2.046

Wiberg/Mayer (AO) data.
largest (>0.10) Wiberg bond orders for each atom

     #   Z sym  total        # sym  WBO       # sym  WBO       # sym  WBO
 ---------------------------------------------------------------------------
     1   6 C    3.994 --     2 C    1.032    23 H    0.981    22 H    0.978
                            21 H    0.962
     2   6 C    3.986 --     7 C    1.410     3 C    1.400     1 C    1.032
                             5 C    0.105
     3   6 C    3.991 --     4 C    1.457     2 C    1.400    24 H    0.968
                             6 C    0.107
     4   6 C    3.990 --     3 C    1.457     5 C    1.404    25 H    0.968
                             7 C    0.107
     5   6 C    3.980 --     6 C    1.413     4 C    1.404     8 C    0.970
                             2 C    0.105
     6   6 C    3.990 --     7 C    1.444     5 C    1.413    26 H    0.966
                             3 C    0.107
     7   6 C    3.991 --     6 C    1.444     2 C    1.410    27 H    0.968
                             4 C    0.107
     8   6 C    3.982 --    16 C    0.984     9 C    0.981     5 C    0.970
                            28 H    0.956
     9   6 C    3.983 --    10 C    1.408    14 C    1.397     8 C    0.981
                            12 C    0.104
    10   6 C    3.989 --    11 C    1.441     9 C    1.408    29 H    0.968
                            13 C    0.106
    11   6 C    3.990 --    10 C    1.441    12 C    1.412    30 H    0.968
                            14 C    0.106
    12   6 C    3.985 --    11 C    1.412    13 C    1.395    15 C    1.033
                             9 C    0.104
    13   6 C    3.991 --    14 C    1.462    12 C    1.395    31 H    0.969
                            10 C    0.106
    14   6 C    3.992 --    13 C    1.462     9 C    1.397    32 H    0.966
                            11 C    0.106
    15   6 C    3.994 --    12 C    1.033    33 H    0.984    34 H    0.971
                            35 H    0.964
    16   6 C    3.921 --     8 C    0.984    36 H    0.967    37 H    0.963
                            17 N    0.917
    17   7 N    3.814 --    18 C    0.959    19 C    0.959    20 C    0.958
                            16 C    0.917
    18   6 C    3.929 --    38 H    0.976    39 H    0.975    40 H    0.971
                            17 N    0.959
    19   6 C    3.929 --    41 H    0.976    43 H    0.975    42 H    0.974
                            17 N    0.959
    20   6 C    3.924 --    45 H    0.976    44 H    0.976    46 H    0.961
                            17 N    0.958
    21   1 H    0.996 --     1 C    0.962
    22   1 H    0.997 --     1 C    0.978
    23   1 H    0.997 --     1 C    0.981
    24   1 H    0.997 --     3 C    0.968
    25   1 H    0.999 --     4 C    0.968
    26   1 H    0.999 --     6 C    0.966
    27   1 H    0.998 --     7 C    0.968
    28   1 H    0.997 --     8 C    0.956
    29   1 H    0.999 --    10 C    0.968
    30   1 H    0.997 --    11 C    0.968
    31   1 H    0.998 --    13 C    0.969
    32   1 H    0.999 --    14 C    0.966
    33   1 H    0.997 --    15 C    0.984
    34   1 H    0.996 --    15 C    0.971
    35   1 H    0.996 --    15 C    0.964
    36   1 H    0.993 --    16 C    0.967
    37   1 H    0.993 --    16 C    0.963
    38   1 H    0.990 --    18 C    0.976
    39   1 H    0.991 --    18 C    0.975
    40   1 H    0.989 --    18 C    0.971
    41   1 H    0.990 --    19 C    0.976
    42   1 H    0.990 --    19 C    0.974
    43   1 H    0.990 --    19 C    0.975
    44   1 H    0.991 --    20 C    0.976
    45   1 H    0.991 --    20 C    0.976
    46   1 H    0.988 --    20 C    0.961
 ---------------------------------------------------------------------------

molecular dipole:
                 x           y           z       tot (Debye)
 q only:       -9.185       1.886       1.725
   full:       -9.200       1.906       1.767      24.299

           -------------------------------------------------
          | TOTAL ENERGY              -56.470011929920 Eh   |
          | GRADIENT NORM               0.000262182471 Eh/α |
          | HOMO-LUMO GAP               4.088984623553 eV   |
           -------------------------------------------------

 * finished run on 2024/12/20 at 02:13:33.275
