   * xtb version 6.7.1 (edcfbbe) compiled by 'conda@3ef47c1a292c' on 2024-11-25

   ID    Z sym.   atoms
    1    6 C      1, 3-8, 10, 11, 13-18, 22, 24
    2    8 O      2, 12, 20, 21
    3    7 N      9, 19, 23
    4    1 H      25-40

          program call               : xtb C0277.xyz --opt --namespace C0277 --charge +1
          :  Hamiltonian                  GFN2-xTB          :
 * total energy  :   -69.1030736 Eh     change       -0.6493082E-09 Eh
 * total energy  :   -69.1133852 Eh     change       -0.1031162E-01 Eh
 * total energy  :   -69.1154119 Eh     change       -0.2026693E-02 Eh
 * total energy  :   -69.1153990 Eh     change        0.1290575E-04 Eh
 * total energy  :   -69.1159804 Eh     change       -0.5814715E-03 Eh
 * total energy  :   -69.1161127 Eh     change       -0.1322225E-03 Eh
 * total energy  :   -69.1162734 Eh     change       -0.1607764E-03 Eh
 * total energy  :   -69.1163838 Eh     change       -0.1103491E-03 Eh
 * total energy  :   -69.1165172 Eh     change       -0.1333626E-03 Eh
 * total energy  :   -69.1166574 Eh     change       -0.1402086E-03 Eh
 * total energy  :   -69.1192167 Eh     change       -0.1029344E-04 Eh
 * total energy  :   -69.1192260 Eh     change       -0.9291731E-05 Eh
 * total energy  :   -69.1192303 Eh     change       -0.4305651E-05 Eh
 * total energy  :   -69.1192403 Eh     change       -0.9933140E-05 Eh
 * total energy  :   -69.1192495 Eh     change       -0.9213909E-05 Eh
 * total energy  :   -69.1192575 Eh     change       -0.7987434E-05 Eh
 * total energy  :   -69.1192662 Eh     change       -0.8782548E-05 Eh
 * total energy  :   -69.1192723 Eh     change       -0.6071538E-05 Eh
 * total energy  :   -69.1192768 Eh     change       -0.4476692E-05 Eh
   *** GEOMETRY OPTIMIZATION CONVERGED AFTER 61 ITERATIONS ***

 final structure:
================
40
 xtb: 6.7.1 (edcfbbe)
C            1.01610552139050        0.05183397701171        0.30585816860421
O            0.21824658434016       -0.72087741173176       -0.57194086264522
C            0.70560943366308       -1.12979782239748       -1.74418943254210
C            2.00677523668431       -0.83819824549433       -2.20992097680573
C            2.46137884611021       -1.28120626420666       -3.43128494539051
C            1.59127540233381       -2.03768105982434       -4.20582889926775
C            0.29233666131738       -2.33807766904386       -3.74642070762598
C           -0.16992453424929       -1.89176347826185       -2.52475335166842
N           -0.30741485096365       -3.08941206711303       -4.74221377162977
C           -1.64494394081436       -3.62147300917358       -4.69033273986982
C           -1.78369360926669       -4.65606261074778       -3.53935752779621
O           -2.13911162669964       -4.27333203067822       -2.45574320750414
C           -1.46863769234625       -6.06955764707350       -3.82460205209681
C           -0.84282155519798       -6.50757394372642       -4.99502445434273
C           -0.56707200279781       -7.84817336744568       -5.17335523557939
C           -0.92604226974770       -8.75579616210502       -4.18541769705108
C           -1.55397732481570       -8.34538642916577       -3.01752153513495
C           -1.81759025201482       -7.00253131315312       -2.84006797627904
N           -0.62711590468827      -10.16966439500794       -4.38297454873496
O           -0.03858864722418      -10.46516053934193       -5.39514348992861
O           -0.98337256816293      -10.93138530788971       -3.51964009957897
C            0.57545939328382       -3.22671474501495       -5.73371465985027
N            1.71849234647592       -2.61535008384533       -5.45147908891706
C            2.88889953626915       -2.54902014759683       -6.28277349695764
H            0.38809881147636        0.23838937584901        1.17470763800828
H            1.29887920555040        1.00590079343483       -0.14672340127968
H            1.91046271061025       -0.49395912374060        0.61768186722652
H            2.66998555373514       -0.24973050570009       -1.59794295075397
H            3.45660126021539       -1.04339633364857       -3.76865259534605
H           -1.15301522852036       -2.11617941119068       -2.14752378848586
H           -2.33777855811946       -2.80572563462048       -4.45861951547964
H           -1.90964904845251       -4.05731931144081       -5.65340555207844
H           -0.55735126123104       -5.81539266123260       -5.77033595062151
H           -0.08089461365229       -8.21076595544154       -6.06672034718171
H           -1.82087346488954       -9.07878723647665       -2.27147372890931
H           -2.30110439288779       -6.64878438802743       -1.94230895488574
H            0.38211708822521       -3.74123967549798       -6.65637170011966
H            2.72841197624069       -3.11727583945553       -7.19595687082829
H            3.10571397636548       -1.51147137288148       -6.54060031089321
H            3.74657380245272       -2.96134094689016       -5.74993124979077

          :  Hamiltonian                  GFN2-xTB          :
         :: total energy             -69.119276797024 Eh    ::
         :: gradient norm              0.000733931771 Eh/a0 ::
         :: HOMO-LUMO gap              2.106538901945 eV    ::
         :: SCC energy               -70.054912014898 Eh    ::
         :: -> dispersion             -0.041895952348 Eh    ::
         :: repulsion energy           0.935635217874 Eh    ::

    * Orbital Energies and Occupations

         #    Occupation            Energy/Eh            Energy/eV
      -------------------------------------------------------------
         1        2.0000           -0.8850363             -24.0831
       ...           ...                  ...                  ...
        49        2.0000           -0.5995272             -16.3140
        50        2.0000           -0.5855747             -15.9343
        51        2.0000           -0.5806508             -15.8003
        52        2.0000           -0.5629920             -15.3198
        53        2.0000           -0.5616567             -15.2835
        54        2.0000           -0.5599978             -15.2383
        55        2.0000           -0.5580287             -15.1847
        56        2.0000           -0.5543773             -15.0854
        57        2.0000           -0.5511546             -14.9977
        58        2.0000           -0.5405806             -14.7099
        59        2.0000           -0.5383387             -14.6489
        60        2.0000           -0.5286518             -14.3853
        61        2.0000           -0.5148068             -14.0086 (HOMO)
        62                         -0.4373929             -11.9021 (LUMO)
        63                         -0.4171109             -11.3502
        64                         -0.3934224             -10.7056
        65                         -0.3682923             -10.0217
        66                         -0.3599830              -9.7956
        67                         -0.3528131              -9.6005
        68                         -0.3238497              -8.8124
        69                         -0.2359685              -6.4210
        70                         -0.2265951              -6.1660
        71                         -0.1775323              -4.8309
        72                         -0.1343936              -3.6570
       ...                                ...                  ...
       112                          0.5491803              14.9440
      -------------------------------------------------------------
                  HL-Gap            0.0774139 Eh            2.1065 eV

     #   Z          covCN         q      C6AA      α(0)
     1   6 C        3.642     0.017    20.642     6.532
     2   8 O        1.707    -0.219    17.628     5.669
     3   6 C        2.867     0.164    24.466     8.108
     4   6 C        2.922    -0.056    29.402     8.892
     5   6 C        2.907    -0.035    28.870     8.810
     6   6 C        3.120     0.023    27.326     8.561
     7   6 C        3.104     0.040    26.970     8.509
     8   6 C        2.910    -0.068    29.692     8.935
     9   7 N        2.826     0.032    20.690     6.756
    10   6 C        3.738    -0.047    21.498     6.616
    11   6 C        2.819     0.229    23.189     7.890
    12   8 O        0.858    -0.306    19.889     5.979
    13   6 C        2.969    -0.007    28.202     8.711
    14   6 C        2.921    -0.025    28.629     8.774
    15   6 C        2.916    -0.019    28.473     8.750
    16   6 C        2.917     0.019    27.593     8.614
    17   6 C        2.914    -0.013    28.328     8.728
    18   6 C        2.929    -0.007    28.193     8.708
    19   7 N        2.758     0.555    13.425     5.442
    20   8 O        0.930    -0.363    20.913     6.133
    21   8 O        0.929    -0.352    20.715     6.104
    22   6 C        3.063     0.055    26.699     8.473
    23   7 N        2.821     0.047    20.414     6.711
    24   6 C        3.692    -0.078    22.182     6.740
    25   1 H        0.925     0.093     1.855     2.130
    26   1 H        0.924     0.062     2.179     2.308
    27   1 H        0.924     0.061     2.182     2.310
    28   1 H        0.926     0.081     1.972     2.196
    29   1 H        0.926     0.075     2.032     2.229
    30   1 H        0.926     0.105     1.740     2.063
    31   1 H        0.924     0.110     1.695     2.036
    32   1 H        0.925     0.088     1.898     2.154
    33   1 H        0.926     0.046     2.366     2.405
    34   1 H        0.926     0.096     1.819     2.109
    35   1 H        0.926     0.106     1.731     2.057
    36   1 H        0.926     0.095     1.833     2.117
    37   1 H        0.926     0.099     1.793     2.094
    38   1 H        0.925     0.093     1.850     2.127
    39   1 H        0.924     0.102     1.767     2.079
    40   1 H        0.924     0.101     1.775     2.083

Wiberg/Mayer (AO) data.
largest (>0.10) Wiberg bond orders for each atom

     #   Z sym  total        # sym  WBO       # sym  WBO       # sym  WBO
 ---------------------------------------------------------------------------
     1   6 C    3.921 --    25 H    0.976    27 H    0.975    26 H    0.975
                             2 O    0.963
     2   8 O    2.313 --     3 C    1.147     1 C    0.963
     3   6 C    3.947 --     8 C    1.360     4 C    1.288     2 O    1.147
     4   6 C    3.987 --     5 C    1.514     3 C    1.288    28 H    0.961
     5   6 C    3.985 --     4 C    1.514     6 C    1.331    29 H    0.963
                             8 C    0.108
     6   6 C    3.946 --     5 C    1.331     7 C    1.252    23 N    1.124
     7   6 C    3.952 --     8 C    1.383     6 C    1.252     9 N    1.115
     8   6 C    3.977 --     7 C    1.383     3 C    1.360    30 H    0.954
                             5 C    0.108
     9   7 N    3.671 --    22 C    1.339     7 C    1.115    10 C    0.982
                            23 N    0.108
    10   6 C    3.944 --     9 N    0.982    32 H    0.963    31 H    0.952
                            11 C    0.923
    11   6 C    3.928 --    12 O    1.867    13 C    1.045    10 C    0.923
    12   8 O    2.118 --    11 C    1.867
    13   6 C    3.988 --    14 C    1.369    18 C    1.366    11 C    1.045
    14   6 C    3.992 --    15 C    1.465    13 C    1.369    33 H    0.964
                            17 C    0.104
    15   6 C    3.983 --    14 C    1.465    16 C    1.386    34 H    0.957
                            18 C    0.104
    16   6 C    3.971 --    17 C    1.393    15 C    1.386    19 N    0.937
    17   6 C    3.980 --    18 C    1.456    16 C    1.393    35 H    0.955
                            14 C    0.104
    18   6 C    3.980 --    17 C    1.456    13 C    1.366    36 H    0.960
                            15 C    0.104
    19   7 N    3.916 --    21 O    1.476    20 O    1.465    16 C    0.937
    20   8 O    1.957 --    19 N    1.465    21 O    0.384
    21   8 O    1.968 --    19 N    1.476    20 O    0.384
    22   6 C    3.942 --    23 N    1.373     9 N    1.339    37 H    0.953
    23   7 N    3.691 --    22 C    1.373     6 C    1.124    24 C    0.992
                             9 N    0.108
    24   6 C    3.938 --    23 N    0.992    38 H    0.976    40 H    0.964
                            39 H    0.963
    25   1 H    0.991 --     1 C    0.976
    26   1 H    0.995 --     1 C    0.975
    27   1 H    0.995 --     1 C    0.975
    28   1 H    0.993 --     4 C    0.961
    29   1 H    0.994 --     5 C    0.963
    30   1 H    0.988 --     8 C    0.954
    31   1 H    0.987 --    10 C    0.952
    32   1 H    0.992 --    10 C    0.963
    33   1 H    0.997 --    14 C    0.964
    34   1 H    0.990 --    15 C    0.957
    35   1 H    0.988 --    17 C    0.955
    36   1 H    0.990 --    18 C    0.960
    37   1 H    0.989 --    22 C    0.953
    38   1 H    0.991 --    24 C    0.976
    39   1 H    0.989 --    24 C    0.963
    40   1 H    0.989 --    24 C    0.964
 ---------------------------------------------------------------------------

molecular dipole:
                 x           y           z       tot (Debye)
 q only:        1.737      -3.961      -8.336
   full:        1.845      -3.942      -8.717      24.766

           -------------------------------------------------
          | TOTAL ENERGY              -69.119276797024 Eh   |
          | GRADIENT NORM               0.000733931771 Eh/α |
          | HOMO-LUMO GAP               2.106538901945 eV   |
           -------------------------------------------------

 * finished run on 2024/12/20 at 02:13:35.731
