   * xtb version 6.7.1 (edcfbbe) compiled by 'conda@3ef47c1a292c' on 2024-11-25

   ID    Z sym.   atoms
    1    6 C      1, 3, 4, 6, 7, 9-14
    2    7 N      2, 5
    3    8 O      8
    4    1 H      15-25

          program call               : xtb C0271.xyz --opt --namespace C0271 --charge +1
          :  Hamiltonian                  GFN2-xTB          :
 * total energy  :   -38.6618743 Eh     change       -0.7061018E-09 Eh
 * total energy  :   -38.6701504 Eh     change       -0.8276117E-02 Eh
 * total energy  :   -38.6732527 Eh     change       -0.3102339E-02 Eh
 * total energy  :   -38.6738540 Eh     change       -0.6013260E-03 Eh
 * total energy  :   -38.6742791 Eh     change       -0.4251024E-03 Eh
 * total energy  :   -38.6744769 Eh     change       -0.1977526E-03 Eh
 * total energy  :   -38.6746525 Eh     change       -0.1756134E-03 Eh
 * total energy  :   -38.6748088 Eh     change       -0.1562561E-03 Eh
 * total energy  :   -38.6749118 Eh     change       -0.1030497E-03 Eh
 * total energy  :   -38.6749746 Eh     change       -0.6275286E-04 Eh
 * total energy  :   -38.6751267 Eh     change       -0.3825632E-04 Eh
 * total energy  :   -38.6751521 Eh     change       -0.2542671E-04 Eh
 * total energy  :   -38.6751725 Eh     change       -0.2039016E-04 Eh
 * total energy  :   -38.6752101 Eh     change       -0.3753455E-04 Eh
 * total energy  :   -38.6752431 Eh     change       -0.3301987E-04 Eh
 * total energy  :   -38.6752723 Eh     change       -0.2919743E-04 Eh
 * total energy  :   -38.6752990 Eh     change       -0.2673568E-04 Eh
 * total energy  :   -38.6753224 Eh     change       -0.2341810E-04 Eh
 * total energy  :   -38.6753273 Eh     change       -0.4918267E-05 Eh
   *** GEOMETRY OPTIMIZATION CONVERGED AFTER 22 ITERATIONS ***

 final structure:
================
25
 xtb: 6.7.1 (edcfbbe)
C            0.54680299446692       -0.11111457454915        0.02367789786036
N            0.44308219884853       -1.15826402226717       -0.95529204594669
C            0.86401549989084       -2.44689458201921       -0.77823278413658
C            0.60145072847215       -3.12447664231100       -1.92718933047766
N            0.01840776717885       -2.23887905966625       -2.79089424858906
C           -0.05388235600728       -1.05319841401114       -2.17621017104255
C           -0.34368946835797       -2.41802406914907       -4.21117725952608
O           -0.30841545051110       -1.43653083463443       -4.88962250491687
C           -0.68242325956125       -3.77340288416615       -4.60894504885944
C           -0.43973702213631       -4.12337233304080       -5.94407881236648
C           -0.75414234735667       -5.38909820483909       -6.39521475714932
C           -1.33810697397921       -6.30707825901097       -5.53391698903052
C           -1.61696115658588       -5.95463573456713       -4.22023301824990
C           -1.28991694984806       -4.69797367456471       -3.75066566877118
H           -0.00725938176766       -0.38157047739399        0.92324153209832
H            0.14473007242088        0.81543767744424       -0.37950881472766
H            1.59201061691406        0.04168870558837        0.29560339825205
H            1.31557411165694       -2.78343610542405        0.13320173491193
H            0.80693174146884       -4.14130076480124       -2.19278189202229
H           -0.45774948045994       -0.16730250825549       -2.63016294587408
H            0.01084941129837       -3.39409699993675       -6.59947222484702
H           -0.55152876203389       -5.65954524499743       -7.41939384601171
H           -1.59062457774588       -7.29412190309365       -5.88879071250274
H           -2.09814752340291       -6.66200259968551       -3.56296163730027
H           -1.55305043286260       -4.42166649064818       -2.74002985077361

          :  Hamiltonian                  GFN2-xTB          :
         :: total energy             -38.675327346764 Eh    ::
         :: gradient norm              0.000432977787 Eh/a0 ::
         :: HOMO-LUMO gap              2.646555006138 eV    ::
         :: SCC energy               -39.300532589108 Eh    ::
         :: -> dispersion             -0.022284922707 Eh    ::
         :: repulsion energy           0.625205242344 Eh    ::

    * Orbital Energies and Occupations

         #    Occupation            Energy/Eh            Energy/eV
      -------------------------------------------------------------
         1        2.0000           -0.9042280             -24.6053
       ...           ...                  ...                  ...
        23        2.0000           -0.6456316             -17.5685
        24        2.0000           -0.6425837             -17.4856
        25        2.0000           -0.6288830             -17.1128
        26        2.0000           -0.6210871             -16.9006
        27        2.0000           -0.6170321             -16.7903
        28        2.0000           -0.6135888             -16.6966
        29        2.0000           -0.6102222             -16.6050
        30        2.0000           -0.5970709             -16.2471
        31        2.0000           -0.5828592             -15.8604
        32        2.0000           -0.5558897             -15.1265
        33        2.0000           -0.5542443             -15.0818
        34        2.0000           -0.5469427             -14.8831
        35        2.0000           -0.5422502             -14.7554 (HOMO)
        36                         -0.4449910             -12.1088 (LUMO)
        37                         -0.4004981             -10.8981
        38                         -0.3789048             -10.3105
        39                         -0.3586338              -9.7589
        40                         -0.3308308              -9.0024
        41                         -0.2292779              -6.2390
        42                         -0.1949642              -5.3052
        43                         -0.1417045              -3.8560
        44                         -0.0608868              -1.6568
        45                         -0.0404731              -1.1013
        46                         -0.0392522              -1.0681
       ...                                ...                  ...
        67                          0.5595698              15.2267
      -------------------------------------------------------------
                  HL-Gap            0.0972591 Eh            2.6466 eV

     #   Z          covCN         q      C6AA      α(0)
     1   6 C        3.693    -0.089    22.396     6.771
     2   7 N        2.863     0.088    19.713     6.594
     3   6 C        3.074    -0.007    28.119     8.694
     4   6 C        3.053     0.007    27.823     8.651
     5   7 N        2.869     0.013    21.032     6.811
     6   6 C        3.088     0.069    26.369     8.417
     7   6 C        2.762     0.276    22.332     7.739
     8   8 O        0.858    -0.302    19.821     5.969
     9   6 C        2.972    -0.017    28.428     8.746
    10   6 C        2.927    -0.007    28.207     8.710
    11   6 C        2.916    -0.013    28.348     8.731
    12   6 C        2.920    -0.004    28.120     8.696
    13   6 C        2.917    -0.017    28.445     8.746
    14   6 C        2.918    -0.024    28.600     8.770
    15   1 H        0.924     0.111     1.685     2.030
    16   1 H        0.925     0.105     1.738     2.062
    17   1 H        0.924     0.113     1.673     2.023
    18   1 H        0.926     0.115     1.657     2.013
    19   1 H        0.926     0.112     1.676     2.024
    20   1 H        0.926     0.132     1.518     1.926
    21   1 H        0.926     0.077     2.007     2.215
    22   1 H        0.926     0.076     2.023     2.224
    23   1 H        0.926     0.075     2.028     2.227
    24   1 H        0.926     0.068     2.107     2.270
    25   1 H        0.926     0.045     2.388     2.417

Wiberg/Mayer (AO) data.
largest (>0.10) Wiberg bond orders for each atom

     #   Z sym  total        # sym  WBO       # sym  WBO       # sym  WBO
 ---------------------------------------------------------------------------
     1   6 C    3.929 --     2 N    0.990    16 H    0.974    15 H    0.960
                            17 H    0.959
     2   7 N    3.731 --     6 C    1.400     3 C    1.207     1 C    0.990
     3   6 C    3.946 --     4 C    1.614     2 N    1.207    18 H    0.960
     4   6 C    3.949 --     3 C    1.614     5 N    1.207    19 H    0.958
     5   7 N    3.686 --     6 C    1.334     4 C    1.207     7 C    0.893
     6   6 C    3.943 --     2 N    1.400     5 N    1.334    20 H    0.949
     7   6 C    3.918 --     8 O    1.841     9 C    1.075     5 N    0.893
     8   8 O    2.152 --     7 C    1.841
     9   6 C    3.980 --    14 C    1.348    10 C    1.343     7 C    1.075
    10   6 C    3.983 --    11 C    1.464     9 C    1.343    21 H    0.965
    11   6 C    3.987 --    10 C    1.464    12 C    1.425    22 H    0.965
                            14 C    0.101
    12   6 C    3.981 --    11 C    1.425    13 C    1.418    23 H    0.967
    13   6 C    3.989 --    14 C    1.470    12 C    1.418    24 H    0.967
    14   6 C    3.990 --    13 C    1.470     9 C    1.348    25 H    0.967
                            11 C    0.101
    15   1 H    0.987 --     1 C    0.960
    16   1 H    0.989 --     1 C    0.974
    17   1 H    0.986 --     1 C    0.959
    18   1 H    0.986 --     3 C    0.960
    19   1 H    0.987 --     4 C    0.958
    20   1 H    0.982 --     6 C    0.949
    21   1 H    0.994 --    10 C    0.965
    22   1 H    0.994 --    11 C    0.965
    23   1 H    0.994 --    12 C    0.967
    24   1 H    0.995 --    13 C    0.967
    25   1 H    0.998 --    14 C    0.967
 ---------------------------------------------------------------------------

molecular dipole:
                 x           y           z       tot (Debye)
 q only:        0.140      -5.049      -3.655
   full:        0.116      -5.039      -3.538      15.653

           -------------------------------------------------
          | TOTAL ENERGY              -38.675327346764 Eh   |
          | GRADIENT NORM               0.000432977787 Eh/α |
          | HOMO-LUMO GAP               2.646555006138 eV   |
           -------------------------------------------------

 * finished run on 2024/12/20 at 02:13:15.215
