   * xtb version 6.7.1 (edcfbbe) compiled by 'conda@3ef47c1a292c' on 2024-11-25

   ID    Z sym.   atoms
    1    6 C      1, 3, 4, 6-8
    2    7 N      2, 5
    3    9 F      9-11
    4    1 H      12-19

          program call               : xtb C0276.xyz --opt --namespace C0276 --charge +1
          :  Hamiltonian                  GFN2-xTB          :
 * total energy  :   -36.5801691 Eh     change       -0.1027800E-09 Eh
 * total energy  :   -36.5848850 Eh     change       -0.4715953E-02 Eh
 * total energy  :   -36.5860436 Eh     change       -0.1158561E-02 Eh
 * total energy  :   -36.5862058 Eh     change       -0.1622352E-03 Eh
 * total energy  :   -36.5863428 Eh     change       -0.1370228E-03 Eh
 * total energy  :   -36.5864006 Eh     change       -0.5781342E-04 Eh
 * total energy  :   -36.5864769 Eh     change       -0.7626232E-04 Eh
 * total energy  :   -36.5865798 Eh     change       -0.1029383E-03 Eh
 * total energy  :   -36.5866554 Eh     change       -0.7553202E-04 Eh
 * total energy  :   -36.5866982 Eh     change       -0.4286800E-04 Eh
 * total energy  :   -36.5867533 Eh     change       -0.2017841E-04 Eh
 * total energy  :   -36.5867903 Eh     change       -0.3692414E-04 Eh
 * total energy  :   -36.5868434 Eh     change       -0.5316545E-04 Eh
 * total energy  :   -36.5868675 Eh     change       -0.2410856E-04 Eh
 * total energy  :   -36.5868929 Eh     change       -0.2533737E-04 Eh
 * total energy  :   -36.5868979 Eh     change       -0.5076543E-05 Eh
 * total energy  :   -36.5869158 Eh     change       -0.1786798E-04 Eh
 * total energy  :   -36.5869216 Eh     change       -0.5792340E-05 Eh
 * total energy  :   -36.5869254 Eh     change       -0.3822224E-05 Eh
   *** GEOMETRY OPTIMIZATION CONVERGED AFTER 20 ITERATIONS ***

 final structure:
================
19
 xtb: 6.7.1 (edcfbbe)
C            1.00539807901062        0.13519962913345        0.05314535362455
N            0.50652782419438        1.48283785922079       -0.02241574118419
C            1.25793590172229        2.60607554336063       -0.18620048445857
C            0.40648331458470        3.66819693516715       -0.22011782952280
N           -0.85511027114878        3.17265973250143       -0.06750866350897
C           -0.76870358822807        1.84343022081895        0.04377325917178
C           -2.07565629090302        3.93131795733374       -0.14278326628777
C           -2.61948813938406        3.87516872356340       -1.58731723724736
F           -2.82628738300760        2.60097861365796       -1.94729920309889
F           -3.75560843716965        4.53628259358812       -1.70465156630109
F           -1.73234348346052        4.38383008070372       -2.44455561562072
H            0.65393428432306       -0.44701223057598       -0.79977753689883
H            0.66113992865742       -0.34761302661392        0.96779041153560
H            2.09280576787070        0.14846331467312        0.04643993359417
H            2.32628288933723        2.58354515921353       -0.26776524606191
H            0.61032560001170        4.71278095109325       -0.34245047520062
H           -1.60136156782181        1.17525361826707        0.16027297443200
H           -2.83806679897653        3.51538663866300        0.52265970815186
H           -1.89238762961192        4.97753768623053        0.11629122488157

          :  Hamiltonian                  GFN2-xTB          :
         :: total energy             -36.586925426710 Eh    ::
         :: gradient norm              0.000646200024 Eh/a0 ::
         :: HOMO-LUMO gap              4.768660074096 eV    ::
         :: SCC energy               -36.937335199224 Eh    ::
         :: -> dispersion             -0.013244452981 Eh    ::
         :: repulsion energy           0.350409772514 Eh    ::

    * Orbital Energies and Occupations

         #    Occupation            Energy/Eh            Energy/eV
      -------------------------------------------------------------
         1        2.0000           -1.0286925             -27.9921
       ...           ...                  ...                  ...
        19        2.0000           -0.7027852             -19.1238
        20        2.0000           -0.7000815             -19.0502
        21        2.0000           -0.6941082             -18.8876
        22        2.0000           -0.6921366             -18.8340
        23        2.0000           -0.6868240             -18.6894
        24        2.0000           -0.6811688             -18.5355
        25        2.0000           -0.6792765             -18.4841
        26        2.0000           -0.6778913             -18.4464
        27        2.0000           -0.6755679             -18.3831
        28        2.0000           -0.6558354             -17.8462
        29        2.0000           -0.6535472             -17.7839
        30        2.0000           -0.6273908             -17.0722
        31        2.0000           -0.6125059             -16.6671 (HOMO)
        32                         -0.4372609             -11.8985 (LUMO)
        33                         -0.3956075             -10.7650
        34                         -0.2237961              -6.0898
        35                         -0.1612031              -4.3866
        36                         -0.1301262              -3.5409
        37                         -0.1132479              -3.0816
        38                         -0.0890689              -2.4237
        39                         -0.0664086              -1.8071
        40                         -0.0611297              -1.6634
        41                         -0.0466805              -1.2702
        42                         -0.0197673              -0.5379
       ...                                ...                  ...
        52                          0.4377108              11.9107
      -------------------------------------------------------------
                  HL-Gap            0.1752450 Eh            4.7687 eV

     #   Z          covCN         q      C6AA      α(0)
     1   6 C        3.693    -0.094    22.493     6.786
     2   7 N        2.866     0.097    19.567     6.570
     3   6 C        3.074    -0.003    28.013     8.678
     4   6 C        3.058    -0.002    28.014     8.680
     5   7 N        2.874     0.068    20.055     6.651
     6   6 C        3.088     0.046    26.879     8.498
     7   6 C        3.743    -0.049    21.524     6.618
     8   6 C        3.329     0.490    17.326     6.607
     9   9 F        0.790    -0.192    11.149     3.944
    10   9 F        0.790    -0.161    10.842     3.890
    11   9 F        0.790    -0.183    11.059     3.928
    12   1 H        0.924     0.115     1.654     2.011
    13   1 H        0.925     0.112     1.681     2.028
    14   1 H        0.925     0.115     1.655     2.012
    15   1 H        0.926     0.124     1.580     1.965
    16   1 H        0.926     0.124     1.583     1.967
    17   1 H        0.926     0.131     1.529     1.934
    18   1 H        0.924     0.128     1.548     1.946
    19   1 H        0.924     0.134     1.506     1.919

Wiberg/Mayer (AO) data.
largest (>0.10) Wiberg bond orders for each atom

     #   Z sym  total        # sym  WBO       # sym  WBO       # sym  WBO
 ---------------------------------------------------------------------------
     1   6 C    3.923 --     2 N    0.986    14 H    0.973    13 H    0.962
                            12 H    0.958
     2   7 N    3.736 --     6 C    1.384     3 C    1.230     1 C    0.986
     3   6 C    3.947 --     4 C    1.593     2 N    1.230    15 H    0.957
     4   6 C    3.942 --     3 C    1.593     5 N    1.217    16 H    0.958
     5   7 N    3.705 --     6 C    1.335     4 C    1.217     7 C    0.998
     6   6 C    3.942 --     2 N    1.384     5 N    1.335    17 H    0.950
     7   6 C    3.947 --     5 N    0.998    19 H    0.955    18 H    0.954
                             8 C    0.929
     8   6 C    3.861 --    10 F    0.986    11 F    0.962     9 F    0.952
                             7 C    0.929
     9   9 F    1.085 --     8 C    0.952
    10   9 F    1.120 --     8 C    0.986
    11   9 F    1.095 --     8 C    0.962
    12   1 H    0.986 --     1 C    0.958
    13   1 H    0.987 --     1 C    0.962
    14   1 H    0.986 --     1 C    0.973
    15   1 H    0.984 --     3 C    0.957
    16   1 H    0.985 --     4 C    0.958
    17   1 H    0.983 --     6 C    0.950
    18   1 H    0.983 --     7 C    0.954
    19   1 H    0.982 --     7 C    0.955
 ---------------------------------------------------------------------------

molecular dipole:
                 x           y           z       tot (Debye)
 q only:        0.124       4.149       0.688
   full:        0.036       4.171       0.776      10.783

           -------------------------------------------------
          | TOTAL ENERGY              -36.586925426710 Eh   |
          | GRADIENT NORM               0.000646200024 Eh/α |
          | HOMO-LUMO GAP               4.768660074096 eV   |
           -------------------------------------------------

 * finished run on 2024/12/20 at 02:13:33.527
