   * xtb version 6.7.1 (edcfbbe) compiled by 'conda@3ef47c1a292c' on 2024-11-25

   ID    Z sym.   atoms
    1    6 C      1, 2, 4-14
    2    7 N      3
    3    1 H      15-36

          program call               : xtb C0273.xyz --opt --namespace C0273 --charge +1
          :  Hamiltonian                  GFN2-xTB          :
 * total energy  :   -41.5641907 Eh     change       -0.1763219E-08 Eh
 * total energy  :   -41.5726670 Eh     change       -0.8476338E-02 Eh
 * total energy  :   -41.5750887 Eh     change       -0.2421700E-02 Eh
 * total energy  :   -41.5753748 Eh     change       -0.2860929E-03 Eh
 * total energy  :   -41.5755134 Eh     change       -0.1385530E-03 Eh
 * total energy  :   -41.5755678 Eh     change       -0.5435967E-04 Eh
 * total energy  :   -41.5756406 Eh     change       -0.7282566E-04 Eh
 * total energy  :   -41.5756860 Eh     change       -0.4537846E-04 Eh
 * total energy  :   -41.5757125 Eh     change       -0.2652249E-04 Eh
 * total energy  :   -41.5757268 Eh     change       -0.1429209E-04 Eh
 * total energy  :   -41.5757217 Eh     change        0.5052663E-05 Eh
 * total energy  :   -41.5757330 Eh     change       -0.1124954E-04 Eh
 * total energy  :   -41.5757412 Eh     change       -0.8237561E-05 Eh
 * total energy  :   -41.5757457 Eh     change       -0.4493986E-05 Eh
   *** GEOMETRY OPTIMIZATION CONVERGED AFTER 14 ITERATIONS ***

 final structure:
================
36
 xtb: 6.7.1 (edcfbbe)
C            1.18662487223492       -0.20889397918567        0.25461317976915
C            0.57473369002245        1.09708333315574        0.73971661915912
N            1.01167121731557        2.33709520795283        0.02454183993366
C            0.40721908468317        2.34435673041552       -1.38207458890802
C           -1.10777347751072        2.36372613519527       -1.35709632685061
C           -1.83744736577819        3.54471899794222       -1.24979003989947
C           -3.22107545108629        3.52026900357907       -1.26222313508475
C           -3.89935398631412        2.32034642956850       -1.39139985457473
C           -3.18516319074961        1.14188568843121       -1.52047231384597
C           -1.80172338205613        1.16506098381487       -1.50569332290226
C            0.96851279753026        3.44164755773789       -2.28187065565260
C            0.52921012183215        3.52125929725386        0.79946341881395
C            1.21868008561393        3.78041301998323        2.13169403712890
C            2.48232909707407        2.36811059499235       -0.07132072816774
H            0.99905930442765       -0.40244323194433       -0.79671930053707
H            0.72581156735194       -1.01624481409183        0.81807691538469
H            2.25577689323597       -0.25564690674910        0.43493519790529
H           -0.51273227668124        1.04589263681760        0.65831898444360
H            0.83290270871155        1.21960057151933        1.79124504206051
H            0.71473188191901        1.38855917739900       -1.81554892057116
H           -1.33907647260243        4.49801474380422       -1.17182879970682
H           -3.76899565196396        4.44562653750548       -1.17813956806590
H           -4.97734673939397        2.30564744277882       -1.40463999458946
H           -3.70166346521266        0.20263233385608       -1.64023699416063
H           -1.26055574634630        0.23811435859528       -1.63012057396697
H            2.01751906477199        3.28305052075726       -2.51401863022638
H            0.41918054493649        3.40553344302782       -3.22003266276232
H            0.84597107082529        4.44099506937718       -1.87617363000034
H            0.67193773181776        4.40112754460800        0.17256110572828
H           -0.54075770837560        3.38532787944987        0.96589429491030
H            2.27048217818137        4.02351830566706        2.01431081678845
H            0.73507338342613        4.64229869173314        2.58513725354391
H            1.12060467804684        2.95542830964446        2.83120678285683
H            2.91992040845368        2.09954668949240        0.88737118133445
H            2.82575391486585        1.66111044948260       -0.82268994428309
H            2.81941861679271        3.36502124643398       -0.34418668500303

          :  Hamiltonian                  GFN2-xTB          :
         :: total energy             -41.575745700405 Eh    ::
         :: gradient norm              0.000822582728 Eh/a0 ::
         :: HOMO-LUMO gap              4.656163294004 eV    ::
         :: SCC energy               -42.253533051466 Eh    ::
         :: -> dispersion             -0.032952100597 Eh    ::
         :: repulsion energy           0.677787351060 Eh    ::

    * Orbital Energies and Occupations

         #    Occupation            Energy/Eh            Energy/eV
      -------------------------------------------------------------
         1        2.0000           -0.8480218             -23.0758
       ...           ...                  ...                  ...
        27        2.0000           -0.6096574             -16.5896
        28        2.0000           -0.6087859             -16.5659
        29        2.0000           -0.6039398             -16.4340
        30        2.0000           -0.6020149             -16.3817
        31        2.0000           -0.5982963             -16.2805
        32        2.0000           -0.5959893             -16.2177
        33        2.0000           -0.5907925             -16.0763
        34        2.0000           -0.5891372             -16.0312
        35        2.0000           -0.5854582             -15.9311
        36        2.0000           -0.5451327             -14.8338
        37        2.0000           -0.5405336             -14.7087
        38        2.0000           -0.5265876             -14.3292
        39        2.0000           -0.5261901             -14.3184 (HOMO)
        40                         -0.3550792              -9.6622 (LUMO)
        41                         -0.3447449              -9.3810
        42                         -0.2393542              -6.5132
        43                         -0.2088613              -5.6834
        44                         -0.1596307              -4.3438
        45                         -0.1512501              -4.1157
        46                         -0.1368546              -3.7240
        47                         -0.0605576              -1.6479
        48                         -0.0528535              -1.4382
        49                         -0.0496996              -1.3524
        50                         -0.0451611              -1.2289
       ...                                ...                  ...
        78                          0.5408431              14.7171
      -------------------------------------------------------------
                  HL-Gap            0.1711109 Eh            4.6562 eV

     #   Z          covCN         q      C6AA      α(0)
     1   6 C        3.751    -0.126    22.976     6.836
     2   6 C        3.757    -0.032    21.197     6.564
     3   7 N        3.616     0.102    19.472     6.554
     4   6 C        3.800     0.008    20.442     6.437
     5   6 C        2.968    -0.012    28.319     8.729
     6   6 C        2.922    -0.039    28.970     8.826
     7   6 C        2.919    -0.023    28.589     8.768
     8   6 C        2.920    -0.019    28.478     8.751
     9   6 C        2.918    -0.023    28.573     8.766
    10   6 C        2.925    -0.040    28.982     8.829
    11   6 C        3.753    -0.125    22.957     6.832
    12   6 C        3.757    -0.030    21.170     6.560
    13   6 C        3.751    -0.128    23.022     6.843
    14   6 C        3.710    -0.088    22.323     6.752
    15   1 H        0.925     0.060     2.197     2.318
    16   1 H        0.925     0.082     1.963     2.191
    17   1 H        0.925     0.067     2.124     2.279
    18   1 H        0.924     0.083     1.950     2.184
    19   1 H        0.925     0.084     1.939     2.177
    20   1 H        0.924     0.076     2.021     2.223
    21   1 H        0.926     0.041     2.434     2.440
    22   1 H        0.926     0.057     2.236     2.339
    23   1 H        0.926     0.061     2.191     2.314
    24   1 H        0.926     0.057     2.229     2.335
    25   1 H        0.926     0.039     2.466     2.456
    26   1 H        0.925     0.062     2.171     2.304
    27   1 H        0.925     0.082     1.955     2.186
    28   1 H        0.925     0.059     2.213     2.326
    29   1 H        0.925     0.085     1.932     2.174
    30   1 H        0.924     0.082     1.954     2.186
    31   1 H        0.925     0.068     2.111     2.272
    32   1 H        0.925     0.083     1.952     2.185
    33   1 H        0.925     0.061     2.188     2.313
    34   1 H        0.925     0.096     1.817     2.108
    35   1 H        0.925     0.094     1.837     2.119
    36   1 H        0.925     0.096     1.823     2.111

Wiberg/Mayer (AO) data.
largest (>0.10) Wiberg bond orders for each atom

     #   Z sym  total        # sym  WBO       # sym  WBO       # sym  WBO
 ---------------------------------------------------------------------------
     1   6 C    3.984 --     2 C    1.023    17 H    0.982    15 H    0.976
                            16 H    0.974
     2   6 C    3.937 --     1 C    1.023    18 H    0.962    19 H    0.961
                             3 N    0.932
     3   7 N    3.796 --    14 C    0.964    12 C    0.933     2 C    0.932
                             4 C    0.883
     4   6 C    3.931 --    11 C    1.011     5 C    0.993    20 H    0.953
                             3 N    0.883
     5   6 C    3.980 --     6 C    1.408    10 C    1.407     4 C    0.993
                             8 C    0.110
     6   6 C    3.991 --     7 C    1.446     5 C    1.408    21 H    0.966
                             9 C    0.110
     7   6 C    3.990 --     6 C    1.446     8 C    1.437    22 H    0.969
                            10 C    0.109
     8   6 C    3.988 --     9 C    1.439     7 C    1.437    23 H    0.969
                             5 C    0.110
     9   6 C    3.990 --    10 C    1.443     8 C    1.439    24 H    0.969
                             6 C    0.110
    10   6 C    3.991 --     9 C    1.443     5 C    1.407    25 H    0.966
                             7 C    0.109
    11   6 C    3.985 --     4 C    1.011    26 H    0.980    28 H    0.974
                            27 H    0.972
    12   6 C    3.938 --    13 C    1.021    30 H    0.965    29 H    0.961
                             3 N    0.933
    13   6 C    3.983 --    12 C    1.021    31 H    0.982    33 H    0.977
                            32 H    0.973
    14   6 C    3.934 --    36 H    0.974    35 H    0.974    34 H    0.973
                             3 N    0.964
    15   1 H    0.996 --     1 C    0.976
    16   1 H    0.993 --     1 C    0.974
    17   1 H    0.995 --     1 C    0.982
    18   1 H    0.993 --     2 C    0.962
    19   1 H    0.993 --     2 C    0.961
    20   1 H    0.994 --     4 C    0.953
    21   1 H    0.998 --     6 C    0.966
    22   1 H    0.996 --     7 C    0.969
    23   1 H    0.996 --     8 C    0.969
    24   1 H    0.996 --     9 C    0.969
    25   1 H    0.999 --    10 C    0.966
    26   1 H    0.995 --    11 C    0.980
    27   1 H    0.993 --    11 C    0.972
    28   1 H    0.997 --    11 C    0.974
    29   1 H    0.993 --    12 C    0.961
    30   1 H    0.993 --    12 C    0.965
    31   1 H    0.995 --    13 C    0.982
    32   1 H    0.993 --    13 C    0.973
    33   1 H    0.996 --    13 C    0.977
    34   1 H    0.990 --    14 C    0.973
    35   1 H    0.991 --    14 C    0.974
    36   1 H    0.991 --    14 C    0.974
 ---------------------------------------------------------------------------

molecular dipole:
                 x           y           z       tot (Debye)
 q only:        1.224       4.421      -0.073
   full:        1.227       4.425      -0.108      11.676

           -------------------------------------------------
          | TOTAL ENERGY              -41.575745700405 Eh   |
          | GRADIENT NORM               0.000822582728 Eh/α |
          | HOMO-LUMO GAP               4.656163294004 eV   |
           -------------------------------------------------

 * finished run on 2024/12/20 at 02:13:30.441
