   * xtb version 6.7.1 (edcfbbe) compiled by 'conda@3ef47c1a292c' on 2024-11-25

   ID    Z sym.   atoms
    1    6 C      1-10, 12-14, 16-18
    2    7 N      11, 15
    3    1 H      19-47

          program call               : xtb C0270.xyz --opt --namespace C0270 --charge +1
          :  Hamiltonian                  GFN2-xTB          :
 * total energy  :   -54.5133100 Eh     change       -0.1844619E-08 Eh
 * total energy  :   -54.5188764 Eh     change       -0.5566359E-02 Eh
 * total energy  :   -54.5201582 Eh     change       -0.1281821E-02 Eh
 * total energy  :   -54.5205489 Eh     change       -0.3906573E-03 Eh
 * total energy  :   -54.5209461 Eh     change       -0.3972048E-03 Eh
 * total energy  :   -54.5212299 Eh     change       -0.2838487E-03 Eh
 * total energy  :   -54.5215182 Eh     change       -0.2883067E-03 Eh
 * total energy  :   -54.5218193 Eh     change       -0.3010792E-03 Eh
 * total energy  :   -54.5220698 Eh     change       -0.2504472E-03 Eh
 * total energy  :   -54.5222990 Eh     change       -0.2292738E-03 Eh
 * total energy  :   -54.5273827 Eh     change       -0.1194352E-04 Eh
 * total energy  :   -54.5273896 Eh     change       -0.6867378E-05 Eh
 * total energy  :   -54.5273969 Eh     change       -0.7363408E-05 Eh
 * total energy  :   -54.5274106 Eh     change       -0.1366956E-04 Eh
 * total energy  :   -54.5274354 Eh     change       -0.2478518E-04 Eh
 * total energy  :   -54.5274609 Eh     change       -0.2550731E-04 Eh
 * total energy  :   -54.5274735 Eh     change       -0.1258407E-04 Eh
 * total energy  :   -54.5274794 Eh     change       -0.5966499E-05 Eh
 * total energy  :   -54.5274839 Eh     change       -0.4483613E-05 Eh
   *** GEOMETRY OPTIMIZATION CONVERGED AFTER 60 ITERATIONS ***

 final structure:
================
47
 xtb: 6.7.1 (edcfbbe)
C            0.46224995375794        1.39159214617582       -0.12044745987322
C           -0.44200717233602        0.16867008901964       -0.21338349934032
C            0.16837822084868       -1.08302028079845        0.41998662939783
C            0.46871342196418       -0.96797513131689        1.91605468932255
C           -0.74131591671087       -0.65125101489060        2.79669703969579
C           -1.90152382887742       -1.64557558918296        2.69517302951229
C           -1.53527167045984       -3.09519161825911        3.02511654687447
C           -1.10373670522044       -3.33072299196523        4.47244060075763
C           -2.26424223995698       -3.25544728233737        5.48629465197102
C           -3.22443278723019       -4.37234038523299        5.32740087071400
N           -4.44231257054738       -4.29493562058494        4.77160250844607
C           -5.08687788507516       -3.11000382508984        4.26614831348473
C           -5.01101028415785       -5.53546393533096        4.78915061456396
C           -4.12086573253646       -6.37927993431223        5.36858532071543
N           -3.02103371503282       -5.64250593776988        5.70253614247921
C           -1.84107919071846       -6.20681801808233        6.32403579620811
C           -0.94180065610784       -6.86125776786944        5.30738636067218
C            0.36904432833481       -6.71861594142972        5.29136013716464
H            0.58124343707110        1.71863400253929        0.90950659093603
H            0.03726474642144        2.21610950453305       -0.68777235580855
H            1.44570122565153        1.16847710273979       -0.52767896200483
H           -1.40554472610557        0.39236980446383        0.24921829399117
H           -0.63255488108699       -0.04809650315130       -1.26699299893595
H           -0.50144803923339       -1.92820079555447        0.24385706190114
H            1.10710785305404       -1.30575699957670       -0.09221870811158
H            0.93012284989112       -1.90105072371844        2.24854895597056
H            1.20776382440318       -0.18057003318370        2.06873604515359
H           -0.40376960061905       -0.58525737137908        3.83386986527032
H           -1.12619556423076        0.33380687260480        2.52926749485247
H           -2.69716281609545       -1.29484002201749        3.35866771297276
H           -2.29626812624165       -1.62062542513607        1.67864409844958
H           -2.37966794598289       -3.74884433072401        2.78571659428213
H           -0.71328044183171       -3.39691597851699        2.37667574452653
H           -0.62815385576674       -4.30948315398340        4.54475170594401
H           -0.36453966689582       -2.58241639385258        4.75310651253812
H           -1.84677854763563       -3.28622130424453        6.49544338327415
H           -2.78499925595460       -2.30597321505060        5.37092708300537
H           -5.21925497723676       -2.37725159390953        5.06337260693896
H           -4.49925660335405       -2.66239114573360        3.46474612689165
H           -6.06521047776427       -3.38007224212558        3.87581646391168
H           -5.98874060564240       -5.72586644599495        4.39749152642834
H           -4.19108521420626       -7.42828784723135        5.56994954273577
H           -1.30189208113577       -5.42816485038624        6.86547340091514
H           -2.17833987026104       -6.96144153477822        7.04258501684578
H           -1.44535470924218       -7.49483716091523        4.59065092795123
H            0.98123130608281       -7.22946336213959        4.56993022811219
H            0.88794719395035       -6.10238581428186        6.00715174830813

          :  Hamiltonian                  GFN2-xTB          :
         :: total energy             -54.527483927878 Eh    ::
         :: gradient norm              0.000394106871 Eh/a0 ::
         :: HOMO-LUMO gap              2.609872947181 eV    ::
         :: SCC energy               -55.376361023617 Eh    ::
         :: -> dispersion             -0.040714020236 Eh    ::
         :: repulsion energy           0.848877095739 Eh    ::

    * Orbital Energies and Occupations

         #    Occupation            Energy/Eh            Energy/eV
      -------------------------------------------------------------
         1        2.0000           -0.8816115             -23.9899
       ...           ...                  ...                  ...
        39        2.0000           -0.5636663             -15.3381
        40        2.0000           -0.5632342             -15.3264
        41        2.0000           -0.5567901             -15.1510
        42        2.0000           -0.5497402             -14.9592
        43        2.0000           -0.5447826             -14.8243
        44        2.0000           -0.5399090             -14.6917
        45        2.0000           -0.5369144             -14.6102
        46        2.0000           -0.5233746             -14.2417
        47        2.0000           -0.5161750             -14.0458
        48        2.0000           -0.5128308             -13.9548
        49        2.0000           -0.4943114             -13.4509
        50        2.0000           -0.4905873             -13.3496
        51        2.0000           -0.4871328             -13.2556 (HOMO)
        52                         -0.3912217             -10.6457 (LUMO)
        53                         -0.3580261              -9.7424
        54                         -0.3414311              -9.2908
        55                         -0.1771846              -4.8214
        56                         -0.1221222              -3.3231
        57                         -0.0636941              -1.7332
        58                         -0.0573469              -1.5605
        59                         -0.0419926              -1.1427
        60                         -0.0384935              -1.0475
        61                         -0.0282041              -0.7675
        62                         -0.0220551              -0.6001
       ...                                ...                  ...
       101                          0.4913216              13.3695
      -------------------------------------------------------------
                  HL-Gap            0.0959111 Eh            2.6099 eV

     #   Z          covCN         q      C6AA      α(0)
     1   6 C        3.751    -0.104    22.556     6.773
     2   6 C        3.799    -0.053    21.528     6.606
     3   6 C        3.800    -0.059    21.638     6.623
     4   6 C        3.800    -0.061    21.666     6.627
     5   6 C        3.800    -0.061    21.667     6.627
     6   6 C        3.800    -0.061    21.667     6.627
     7   6 C        3.800    -0.063    21.715     6.635
     8   6 C        3.802    -0.066    21.766     6.642
     9   6 C        3.803    -0.075    21.936     6.668
    10   6 C        3.096     0.103    25.618     8.295
    11   7 N        2.872     0.046    20.430     6.713
    12   6 C        3.692    -0.079    22.201     6.742
    13   6 C        3.048    -0.011    28.239     8.716
    14   6 C        3.049    -0.010    28.208     8.711
    15   7 N        2.874     0.039    20.551     6.733
    16   6 C        3.746    -0.020    21.008     6.538
    17   6 C        2.886    -0.039    28.965     8.823
    18   6 C        2.837    -0.081    30.017     8.978
    19   1 H        0.925     0.034     2.527     2.486
    20   1 H        0.925     0.037     2.485     2.465
    21   1 H        0.925     0.038     2.471     2.458
    22   1 H        0.924     0.027     2.628     2.535
    23   1 H        0.924     0.032     2.555     2.500
    24   1 H        0.924     0.024     2.674     2.557
    25   1 H        0.924     0.036     2.501     2.473
    26   1 H        0.924     0.025     2.652     2.547
    27   1 H        0.924     0.043     2.405     2.425
    28   1 H        0.924     0.027     2.636     2.539
    29   1 H        0.924     0.045     2.386     2.415
    30   1 H        0.924     0.018     2.757     2.597
    31   1 H        0.924     0.045     2.389     2.417
    32   1 H        0.924     0.017     2.785     2.610
    33   1 H        0.925     0.058     2.219     2.330
    34   1 H        0.924     0.045     2.377     2.411
    35   1 H        0.925     0.071     2.078     2.254
    36   1 H        0.924     0.076     2.017     2.221
    37   1 H        0.925     0.083     1.947     2.182
    38   1 H        0.924     0.092     1.857     2.131
    39   1 H        0.925     0.102     1.763     2.076
    40   1 H        0.925     0.099     1.792     2.094
    41   1 H        0.927     0.100     1.784     2.089
    42   1 H        0.926     0.101     1.779     2.086
    43   1 H        0.924     0.086     1.916     2.164
    44   1 H        0.924     0.091     1.870     2.138
    45   1 H        0.926     0.057     2.232     2.336
    46   1 H        0.926     0.077     2.006     2.215
    47   1 H        0.926     0.065     2.145     2.290

Wiberg/Mayer (AO) data.
largest (>0.10) Wiberg bond orders for each atom

     #   Z sym  total        # sym  WBO       # sym  WBO       # sym  WBO
 ---------------------------------------------------------------------------
     1   6 C    3.996 --     2 C    1.020    21 H    0.987    20 H    0.987
                            19 H    0.986
     2   6 C    3.998 --     1 C    1.020     3 C    1.008    23 H    0.978
                            22 H    0.976
     3   6 C    3.997 --     2 C    1.008     4 C    1.008    25 H    0.976
                            24 H    0.976
     4   6 C    3.996 --     5 C    1.008     3 C    1.008    26 H    0.975
                            27 H    0.974
     5   6 C    3.996 --     4 C    1.008     6 C    1.006    28 H    0.974
                            29 H    0.973
     6   6 C    3.996 --     7 C    1.007     5 C    1.006    31 H    0.974
                            30 H    0.971
     7   6 C    3.994 --     8 C    1.008     6 C    1.007    32 H    0.976
                            33 H    0.969
     8   6 C    3.984 --     7 C    1.008    34 H    0.972    35 H    0.967
                             9 C    0.966
     9   6 C    3.979 --    10 C    1.031     8 C    0.966    37 H    0.960
                            36 H    0.950
    10   6 C    3.945 --    15 N    1.325    11 N    1.321     9 C    1.031
    11   7 N    3.694 --    10 C    1.321    13 C    1.211    12 C    0.990
    12   6 C    3.937 --    11 N    0.990    40 H    0.975    38 H    0.965
                            39 H    0.960
    13   6 C    3.948 --    14 C    1.607    11 N    1.211    41 H    0.962
    14   6 C    3.950 --    13 C    1.607    15 N    1.211    42 H    0.962
    15   7 N    3.693 --    10 C    1.325    14 C    1.211    16 C    0.967
    16   6 C    3.943 --    17 C    0.996    15 N    0.967    43 H    0.959
                            44 H    0.949
    17   6 C    3.982 --    18 C    1.985    16 C    0.996    45 H    0.963
    18   6 C    3.984 --    17 C    1.985    47 H    0.972    46 H    0.970
    19   1 H    0.999 --     1 C    0.986
    20   1 H    0.999 --     1 C    0.987
    21   1 H    0.998 --     1 C    0.987
    22   1 H    0.999 --     2 C    0.976
    23   1 H    0.999 --     2 C    0.978
    24   1 H    0.999 --     3 C    0.976
    25   1 H    0.999 --     3 C    0.976
    26   1 H    0.999 --     4 C    0.975
    27   1 H    0.998 --     4 C    0.974
    28   1 H    0.999 --     5 C    0.974
    29   1 H    0.998 --     5 C    0.973
    30   1 H    1.000 --     6 C    0.971
    31   1 H    0.998 --     6 C    0.974
    32   1 H    1.000 --     7 C    0.976
    33   1 H    0.996 --     7 C    0.969
    34   1 H    0.998 --     8 C    0.972
    35   1 H    0.994 --     8 C    0.967
    36   1 H    0.994 --     9 C    0.950
    37   1 H    0.993 --     9 C    0.960
    38   1 H    0.991 --    12 C    0.965
    39   1 H    0.989 --    12 C    0.960
    40   1 H    0.990 --    12 C    0.975
    41   1 H    0.989 --    13 C    0.962
    42   1 H    0.990 --    14 C    0.962
    43   1 H    0.992 --    16 C    0.959
    44   1 H    0.991 --    16 C    0.949
    45   1 H    0.997 --    17 C    0.963
    46   1 H    0.994 --    18 C    0.970
    47   1 H    0.996 --    18 C    0.972
 ---------------------------------------------------------------------------

molecular dipole:
                 x           y           z       tot (Debye)
 q only:       -5.865      -8.621       9.460
   full:       -6.015      -8.709       9.582      36.289

           -------------------------------------------------
          | TOTAL ENERGY              -54.527483927878 Eh   |
          | GRADIENT NORM               0.000394106871 Eh/α |
          | HOMO-LUMO GAP               2.609872947181 eV   |
           -------------------------------------------------

 * finished run on 2024/12/20 at 02:13:14.764
