   * xtb version 6.7.1 (edcfbbe) compiled by 'conda@3ef47c1a292c' on 2024-11-25

   ID    Z sym.   atoms
    1    6 C      1-6, 8
    2    7 N      7
    3   16 S      9
    4    1 H      10-15

          program call               : xtb C0280.xyz --opt --namespace C0280 --charge +1
          :  Hamiltonian                  GFN2-xTB          :
 * total energy  :   -23.7896392 Eh     change       -0.2280558E-09 Eh
 * total energy  :   -23.7927367 Eh     change       -0.3097432E-02 Eh
 * total energy  :   -23.7932883 Eh     change       -0.5516246E-03 Eh
 * total energy  :   -23.7934067 Eh     change       -0.1183781E-03 Eh
 * total energy  :   -23.7934439 Eh     change       -0.3727110E-04 Eh
 * total energy  :   -23.7934493 Eh     change       -0.5410290E-05 Eh
 * total energy  :   -23.7934506 Eh     change       -0.1242584E-05 Eh
   *** GEOMETRY OPTIMIZATION CONVERGED AFTER 7 ITERATIONS ***

 final structure:
================
15
 xtb: 6.7.1 (edcfbbe)
C            2.57339878005100       -0.41205368432924        0.00346748102958
C            2.31942758247685        0.96242652237313       -0.00239066057458
C            1.02970382270698        1.45546508673587       -0.00662214046791
C           -0.01272233658955        0.53795153780814       -0.00486576610839
C            0.23919760550039       -0.84532380689234        0.00102267019432
C            1.54528028521001       -1.33054700432712        0.00525136412896
N           -0.93078022781868       -1.56644112430596        0.00177230246415
C           -2.02491641914353       -0.82708433178372       -0.00307960962853
S           -1.73537857348094        0.83274740379377       -0.00911038961091
H            3.59432123420980       -0.75935286893026        0.00666935849377
H            3.14859969828428        1.65203291021783       -0.00362496803284
H            0.83349887931118        2.51506341013062       -0.01115152599542
H            1.73840860686925       -2.39131866292025        0.00977399966755
H           -0.94088443905926       -2.58101640968251        0.00575550678854
H           -3.01454449852778       -1.24937897788795       -0.00317762234830

          :  Hamiltonian                  GFN2-xTB          :
         :: total energy             -23.793450580992 Eh    ::
         :: gradient norm              0.000445571679 Eh/a0 ::
         :: HOMO-LUMO gap              2.787505288930 eV    ::
         :: SCC energy               -24.183859053521 Eh    ::
         :: -> dispersion             -0.013582306675 Eh    ::
         :: repulsion energy           0.390408472529 Eh    ::

    * Orbital Energies and Occupations

         #    Occupation            Energy/Eh            Energy/eV
      -------------------------------------------------------------
         1        2.0000           -0.9335261             -25.4025
       ...           ...                  ...                  ...
        10        2.0000           -0.7345172             -19.9872
        11        2.0000           -0.7133887             -19.4123
        12        2.0000           -0.6893745             -18.7588
        13        2.0000           -0.6793718             -18.4866
        14        2.0000           -0.6655329             -18.1101
        15        2.0000           -0.6549544             -17.8222
        16        2.0000           -0.6534757             -17.7820
        17        2.0000           -0.6491743             -17.6649
        18        2.0000           -0.6250048             -17.0072
        19        2.0000           -0.6024118             -16.3925
        20        2.0000           -0.5956784             -16.2092
        21        2.0000           -0.5837657             -15.8851
        22        2.0000           -0.5719350             -15.5631 (HOMO)
        23                         -0.4694961             -12.7756 (LUMO)
        24                         -0.4048360             -11.0161
        25                         -0.3894936             -10.5987
        26                         -0.3892301             -10.5915
        27                         -0.3056067              -8.3160
        28                         -0.2763071              -7.5187
        29                         -0.2052593              -5.5854
        30                         -0.1476382              -4.0174
        31                         -0.1455927              -3.9618
        32                         -0.1449864              -3.9453
        33                         -0.0669161              -1.8209
       ...                                ...                  ...
        47                          0.5092123              13.8564
      -------------------------------------------------------------
                  HL-Gap            0.1024389 Eh            2.7875 eV

     #   Z          covCN         q      C6AA      α(0)
     1   6 C        2.922    -0.009    28.234     8.714
     2   6 C        2.923    -0.008    28.229     8.713
     3   6 C        2.925    -0.021    28.525     8.759
     4   6 C        3.006     0.014    27.691     8.632
     5   6 C        3.129     0.057    26.519     8.431
     6   6 C        2.911    -0.030    28.747     8.792
     7   7 N        2.846    -0.018    21.592     6.901
     8   6 C        2.901     0.033    27.268     8.562
     9  16 S        2.249     0.252   131.196    19.278
    10   1 H        0.926     0.095     1.832     2.117
    11   1 H        0.926     0.096     1.821     2.110
    12   1 H        0.926     0.090     1.876     2.142
    13   1 H        0.926     0.085     1.933     2.174
    14   1 H        0.860     0.233     0.952     1.528
    15   1 H        0.926     0.131     1.530     1.934

Wiberg/Mayer (AO) data.
largest (>0.10) Wiberg bond orders for each atom

     #   Z sym  total        # sym  WBO       # sym  WBO       # sym  WBO
 ---------------------------------------------------------------------------
     1   6 C    3.983 --     6 C    1.496     2 C    1.376    10 H    0.963
     2   6 C    3.982 --     3 C    1.479     1 C    1.376    11 H    0.962
     3   6 C    3.984 --     2 C    1.479     4 C    1.371    12 H    0.962
                             6 C    0.113
     4   6 C    3.953 --     3 C    1.371     5 C    1.289     9 S    1.106
     5   6 C    3.951 --     6 C    1.327     4 C    1.289     7 N    1.134
     6   6 C    3.984 --     1 C    1.496     5 C    1.327    13 H    0.961
                             3 C    0.113
     7   7 N    3.667 --     8 C    1.427     5 C    1.134    14 H    0.910
                             9 S    0.133
     8   6 C    3.954 --     7 N    1.427     9 S    1.396    15 H    0.952
     9  16 S    2.789 --     8 C    1.396     4 C    1.106     7 N    0.133
    10   1 H    0.990 --     1 C    0.963
    11   1 H    0.991 --     2 C    0.962
    12   1 H    0.991 --     3 C    0.962
    13   1 H    0.993 --     6 C    0.961
    14   1 H    0.945 --     7 N    0.910
    15   1 H    0.982 --     8 C    0.952
 ---------------------------------------------------------------------------

molecular dipole:
                 x           y           z       tot (Debye)
 q only:       -0.624      -0.905      -0.003
   full:       -0.766      -1.204      -0.002       3.627

           -------------------------------------------------
          | TOTAL ENERGY              -23.793450580992 Eh   |
          | GRADIENT NORM               0.000445571679 Eh/α |
          | HOMO-LUMO GAP               2.787505288930 eV   |
           -------------------------------------------------

 * finished run on 2024/12/20 at 02:13:37.856
