   * xtb version 6.7.1 (edcfbbe) compiled by 'conda@3ef47c1a292c' on 2024-11-25

   ID    Z sym.   atoms
    1    6 C      1-4, 6, 7, 9-15, 17
    2    7 N      5, 8
    3    8 O      16
    4    1 H      18-36

          program call               : xtb C0287.xyz --opt --namespace C0287 --charge +1
          :  Hamiltonian                  GFN2-xTB          :
 * total energy  :   -49.2131247 Eh     change       -0.9570158E-09 Eh
 * total energy  :   -49.2184629 Eh     change       -0.5338195E-02 Eh
 * total energy  :   -49.2200112 Eh     change       -0.1548280E-02 Eh
 * total energy  :   -49.2202046 Eh     change       -0.1934167E-03 Eh
 * total energy  :   -49.2203558 Eh     change       -0.1511977E-03 Eh
 * total energy  :   -49.2204350 Eh     change       -0.7917770E-04 Eh
 * total energy  :   -49.2205446 Eh     change       -0.1095734E-03 Eh
 * total energy  :   -49.2206706 Eh     change       -0.1260129E-03 Eh
 * total energy  :   -49.2207700 Eh     change       -0.9943249E-04 Eh
 * total energy  :   -49.2208371 Eh     change       -0.6713578E-04 Eh
 * total energy  :   -49.2209503 Eh     change       -0.2415560E-04 Eh
 * total energy  :   -49.2209881 Eh     change       -0.3781729E-04 Eh
 * total energy  :   -49.2209983 Eh     change       -0.1019502E-04 Eh
 * total energy  :   -49.2210097 Eh     change       -0.1138847E-04 Eh
 * total energy  :   -49.2210242 Eh     change       -0.1456029E-04 Eh
 * total energy  :   -49.2210374 Eh     change       -0.1314291E-04 Eh
 * total energy  :   -49.2210459 Eh     change       -0.8545095E-05 Eh
 * total energy  :   -49.2210511 Eh     change       -0.5240133E-05 Eh
 * total energy  :   -49.2210548 Eh     change       -0.3640933E-05 Eh
   *** GEOMETRY OPTIMIZATION CONVERGED AFTER 21 ITERATIONS ***

 final structure:
================
36
 xtb: 6.7.1 (edcfbbe)
C            1.18608883942265       -0.00394036436698        0.63460429641003
C            0.60934388458116        1.24725775308007        1.28696849740911
C            0.93981809661591        2.53138481119550        0.52528671582908
C            0.27778647677987        2.62664965811563       -0.85547597610408
N           -1.15974886154953        2.71069083336059       -0.74823582923648
C           -2.02471429454479        1.66148594022169       -0.71984246228147
C           -3.27681118830493        2.16738815167483       -0.54431637631645
N           -3.15962579060568        3.52578003522338       -0.46573631903921
C           -1.86621950817006        3.82887784439609       -0.58711649664541
C           -4.22319639144458        4.44320978188060       -0.31457683122327
C           -4.16915292494009        5.68538259200630       -0.94799745875625
C           -5.21121726473993        6.56868947667695       -0.81107712460038
C           -6.33644820107637        6.24157762553453       -0.03771909883862
C           -6.37698657332021        4.99659320738123        0.59734293829863
C           -5.32998081711712        4.10831985766766        0.45616436404752
O           -7.29296894357292        7.17089678801434        0.02273006212287
C           -8.47502056560354        6.91821128222100        0.75760158790347
H            0.75106652511480       -0.19546810661915       -0.34375045859389
H            0.99141213722266       -0.87091460328818        1.25961988087254
H            2.26228710964451        0.09193362190781        0.51662774244491
H           -0.47289365503438        1.14442106590453        1.40095424693682
H            1.02898262713286        1.33937901869353        2.28939615579476
H            0.63942321236470        3.39569754573115        1.12147369051027
H            2.01815155521938        2.58868057137031        0.37565765335581
H            0.63732899240314        3.51836716860597       -1.37277955777476
H            0.52782545922726        1.74938293365297       -1.45321603760524
H           -1.70566494812546        0.64620492681216       -0.83691684573081
H           -4.22036666061859        1.66509272666139       -0.49524333237017
H           -1.45505592050452        4.81800171507956       -0.55060286102453
H           -3.32664493383608        5.94393110803037       -1.57026485194934
H           -5.19295179791129        7.52825871123549       -1.30093540788731
H           -7.21977418744055        4.71527110098657        1.20672805075432
H           -5.36849309815782        3.16041218862143        0.97035732069761
H           -9.01163524627611        6.05193204308614        0.36181233697282
H           -8.25972452524500        6.76874138018399        1.81889569217442
H           -9.08826861758785        7.80858960905958        0.63614209344320

          :  Hamiltonian                  GFN2-xTB          :
         :: total energy             -49.221054782616 Eh    ::
         :: gradient norm              0.000418501463 Eh/a0 ::
         :: HOMO-LUMO gap              2.748536620654 eV    ::
         :: SCC energy               -49.981659427577 Eh    ::
         :: -> dispersion             -0.031383540596 Eh    ::
         :: repulsion energy           0.760604644962 Eh    ::

    * Orbital Energies and Occupations

         #    Occupation            Energy/Eh            Energy/eV
      -------------------------------------------------------------
         1        2.0000           -0.8800378             -23.9470
       ...           ...                  ...                  ...
        33        2.0000           -0.5990292             -16.3004
        34        2.0000           -0.5916720             -16.1002
        35        2.0000           -0.5890772             -16.0296
        36        2.0000           -0.5839375             -15.8897
        37        2.0000           -0.5731859             -15.5972
        38        2.0000           -0.5676853             -15.4475
        39        2.0000           -0.5652173             -15.3803
        40        2.0000           -0.5558864             -15.1264
        41        2.0000           -0.5478182             -14.9069
        42        2.0000           -0.5441075             -14.8059
        43        2.0000           -0.5412964             -14.7294
        44        2.0000           -0.5383573             -14.6494
        45        2.0000           -0.5013596             -13.6427 (HOMO)
        46                         -0.4003527             -10.8942 (LUMO)
        47                         -0.3619775              -9.8499
        48                         -0.3537743              -9.6267
        49                         -0.3302758              -8.9873
        50                         -0.2188698              -5.9557
        51                         -0.1652543              -4.4968
        52                         -0.1131862              -3.0800
        53                         -0.0765497              -2.0830
        54                         -0.0518212              -1.4101
        55                         -0.0369697              -1.0060
        56                         -0.0320485              -0.8721
       ...                                ...                  ...
        87                          0.5499249              14.9642
      -------------------------------------------------------------
                  HL-Gap            0.1010069 Eh            2.7485 eV

     #   Z          covCN         q      C6AA      α(0)
     1   6 C        3.752    -0.113    22.717     6.797
     2   6 C        3.800    -0.061    21.666     6.627
     3   6 C        3.802    -0.070    21.843     6.654
     4   6 C        3.742    -0.027    21.126     6.558
     5   7 N        2.864     0.065    20.102     6.659
     6   6 C        3.069    -0.005    28.085     8.690
     7   6 C        3.069    -0.009    28.168     8.702
     8   7 N        2.869     0.068    20.056     6.651
     9   6 C        3.098     0.043    26.911     8.502
    10   6 C        2.917     0.027    27.404     8.584
    11   6 C        2.918    -0.037    28.930     8.820
    12   6 C        2.921    -0.046    29.144     8.853
    13   6 C        2.864     0.163    24.472     8.109
    14   6 C        2.917    -0.060    29.493     8.906
    15   6 C        2.919    -0.035    28.871     8.811
    16   8 O        1.706    -0.225    17.726     5.684
    17   6 C        3.644     0.020    20.572     6.519
    18   1 H        0.925     0.032     2.565     2.504
    19   1 H        0.925     0.053     2.279     2.361
    20   1 H        0.925     0.051     2.307     2.375
    21   1 H        0.924     0.030     2.586     2.515
    22   1 H        0.924     0.057     2.233     2.337
    23   1 H        0.924     0.049     2.336     2.390
    24   1 H        0.925     0.074     2.037     2.232
    25   1 H        0.924     0.079     1.994     2.208
    26   1 H        0.924     0.093     1.851     2.128
    27   1 H        0.926     0.105     1.742     2.064
    28   1 H        0.927     0.102     1.770     2.080
    29   1 H        0.926     0.106     1.735     2.060
    30   1 H        0.926     0.056     2.249     2.345
    31   1 H        0.926     0.083     1.951     2.184
    32   1 H        0.926     0.069     2.102     2.267
    33   1 H        0.926     0.059     2.208     2.324
    34   1 H        0.924     0.058     2.217     2.328
    35   1 H        0.924     0.059     2.215     2.327
    36   1 H        0.925     0.087     1.904     2.158

Wiberg/Mayer (AO) data.
largest (>0.10) Wiberg bond orders for each atom

     #   Z sym  total        # sym  WBO       # sym  WBO       # sym  WBO
 ---------------------------------------------------------------------------
     1   6 C    3.994 --     2 C    1.021    20 H    0.986    19 H    0.985
                            18 H    0.984
     2   6 C    3.994 --     1 C    1.021     3 C    1.008    21 H    0.975
                            22 H    0.973
     3   6 C    3.984 --     2 C    1.008     4 C    0.982    23 H    0.975
                            24 H    0.967
     4   6 C    3.938 --     3 C    0.982     5 N    0.970    25 H    0.966
                            26 H    0.960
     5   7 N    3.707 --     9 C    1.349     6 C    1.229     4 C    0.970
     6   6 C    3.949 --     7 C    1.587     5 N    1.229    27 H    0.960
     7   6 C    3.944 --     6 C    1.587     8 N    1.210    28 H    0.962
     8   7 N    3.722 --     9 C    1.340     7 C    1.210    10 C    1.002
     9   6 C    3.938 --     5 N    1.349     8 N    1.340    29 H    0.955
    10   6 C    3.928 --    15 C    1.377    11 C    1.346     8 N    1.002
    11   6 C    3.989 --    12 C    1.504    10 C    1.346    30 H    0.965
    12   6 C    3.985 --    11 C    1.504    13 C    1.310    31 H    0.963
    13   6 C    3.939 --    14 C    1.338    12 C    1.310    16 O    1.139
    14   6 C    3.986 --    15 C    1.467    13 C    1.338    32 H    0.963
    15   6 C    3.988 --    14 C    1.467    10 C    1.377    33 H    0.965
    16   8 O    2.305 --    13 C    1.139    17 C    0.966
    17   6 C    3.925 --    36 H    0.977    34 H    0.975    35 H    0.975
                            16 O    0.966
    18   1 H    0.999 --     1 C    0.984
    19   1 H    0.997 --     1 C    0.985
    20   1 H    0.997 --     1 C    0.986
    21   1 H    0.999 --     2 C    0.975
    22   1 H    0.997 --     2 C    0.973
    23   1 H    0.998 --     3 C    0.975
    24   1 H    0.993 --     3 C    0.967
    25   1 H    0.994 --     4 C    0.966
    26   1 H    0.991 --     4 C    0.960
    27   1 H    0.988 --     6 C    0.960
    28   1 H    0.990 --     7 C    0.962
    29   1 H    0.989 --     9 C    0.955
    30   1 H    0.996 --    11 C    0.965
    31   1 H    0.992 --    12 C    0.963
    32   1 H    0.995 --    14 C    0.963
    33   1 H    0.996 --    15 C    0.965
    34   1 H    0.996 --    17 C    0.975
    35   1 H    0.996 --    17 C    0.975
    36   1 H    0.992 --    17 C    0.977
 ---------------------------------------------------------------------------

molecular dipole:
                 x           y           z       tot (Debye)
 q only:       -5.236       6.511      -0.409
   full:       -5.257       6.466      -0.399      21.206

           -------------------------------------------------
          | TOTAL ENERGY              -49.221054782616 Eh   |
          | GRADIENT NORM               0.000418501463 Eh/α |
          | HOMO-LUMO GAP               2.748536620654 eV   |
           -------------------------------------------------

 * finished run on 2024/12/20 at 02:13:52.419
