   * xtb version 6.7.1 (edcfbbe) compiled by 'conda@3ef47c1a292c' on 2024-11-25

   ID    Z sym.   atoms
    1    7 N      1, 5, 7
    2    6 C      2-4, 6, 8-22
    3    1 H      23-42

          program call               : xtb C0289.xyz --opt --namespace C0289 --charge +1
          :  Hamiltonian                  GFN2-xTB          :
 * total energy  :   -59.2210779 Eh     change       -0.3332566E-08 Eh
 * total energy  :   -59.2559616 Eh     change       -0.3488378E-01 Eh
 * total energy  :   -59.2587862 Eh     change       -0.2824580E-02 Eh
 * total energy  :   -59.2595432 Eh     change       -0.7569776E-03 Eh
 * total energy  :   -59.2600175 Eh     change       -0.4743457E-03 Eh
 * total energy  :   -59.2604554 Eh     change       -0.4378304E-03 Eh
 * total energy  :   -59.2609323 Eh     change       -0.4769680E-03 Eh
 * total energy  :   -59.2613551 Eh     change       -0.4227241E-03 Eh
 * total energy  :   -59.2617699 Eh     change       -0.4148402E-03 Eh
 * total energy  :   -59.2619566 Eh     change       -0.1866598E-03 Eh
 * total energy  :   -59.2668897 Eh     change       -0.3735749E-04 Eh
 * total energy  :   -59.2669153 Eh     change       -0.2564803E-04 Eh
 * total energy  :   -59.2669220 Eh     change       -0.6653500E-05 Eh
 * total energy  :   -59.2669425 Eh     change       -0.2050508E-04 Eh
 * total energy  :   -59.2669511 Eh     change       -0.8556236E-05 Eh
 * total energy  :   -59.2669561 Eh     change       -0.4987334E-05 Eh
 * total energy  :   -59.2669670 Eh     change       -0.1089945E-04 Eh
 * total energy  :   -59.2669720 Eh     change       -0.5042374E-05 Eh
 * total energy  :   -59.2669752 Eh     change       -0.3199813E-05 Eh
   *** GEOMETRY OPTIMIZATION CONVERGED AFTER 111 ITERATIONS ***

 final structure:
================
42
 xtb: 6.7.1 (edcfbbe)
N            1.39415190056318        1.60947007884485       -0.36549635826359
C            2.19544172087470        0.81707223256746       -0.18231485486182
C            3.29266658052980       -0.07699836072071        0.10055614186157
C            4.58406681099459        0.75506378670484        0.24434263439411
N            4.30978423252509        1.93230254041881        1.06013779569050
C            4.32124306618538        3.17718532129255        0.59341378452242
N            3.91583725897979        4.04872310773728        1.50173736850609
C            3.61285651573683        3.34790798019710        2.65736261415773
C            3.85967893940146        1.98694894000601        2.36735588816607
C            3.64391938724834        0.99334771546676        3.31436312104355
C            3.17900305019592        1.39733159063313        4.54689648984539
C            2.93645638099860        2.73937857765232        4.83130531265154
C            3.13888488628239        3.75531110116163        3.91155521512609
C            2.84549343992151        5.17352166055333        4.27378827666175
C            3.88987711300874        5.47543268204693        1.28771307343026
C            5.02539922488585        6.19808585330904        1.98626744061454
C            6.20313332090241        5.55120823043041        2.33329167060448
C            7.22621811197584        6.25140444021421        2.95094690214969
C            7.08455782526903        7.60216533919851        3.21630944083282
C            5.91434771713395        8.25405419370226        2.86327351836274
C            4.88757353232152        7.55531834538699        2.25474461459977
C            5.74978867379492       -0.05630473879793        0.79579596535501
H            3.06880434852163       -0.62873452095791        1.01590529257753
H            3.40267607030011       -0.79366103224448       -0.71569403297712
H            4.85697923786043        1.13832760170369       -0.74595307354450
H            4.61726515697239        3.44363167694266       -0.40429586452255
H            3.82665686087631       -0.04803714297267        3.11410132666887
H            2.99646373304743        0.65892485842745        5.31103785989459
H            2.57111438798438        2.99910788661052        5.81244050990877
H            3.69479103313426        5.82076909615472        4.06512144940221
H            1.98290738874631        5.54097740472956        3.71923170979566
H            2.61240713518471        5.24350272796488        5.33221587662263
H            3.95941290496097        5.65027835583581        0.20906405431461
H            2.93083910993958        5.87027650036555        1.62863451172914
H            6.33471201901390        4.49762644100891        2.12928393050558
H            8.13564267036715        5.73775445915085        3.22105869111643
H            7.88410628097792        8.14548263595734        3.69420210134132
H            5.79888198952564        9.30742701458782        3.06286834819548
H            3.97529343681134        8.06434764507015        1.98188277848314
H            5.96961242476661       -0.87770139807370        0.11921412027015
H            6.63828571436125        0.56592410979701        0.87380206197890
H            5.53096840692152       -0.46803493802174        1.77613229280647

          :  Hamiltonian                  GFN2-xTB          :
         :: total energy             -59.266975193855 Eh    ::
         :: gradient norm              0.000658509173 Eh/a0 ::
         :: HOMO-LUMO gap              2.792700906489 eV    ::
         :: SCC energy               -60.325197997602 Eh    ::
         :: -> dispersion             -0.046933205919 Eh    ::
         :: repulsion energy           1.058222803747 Eh    ::

    * Orbital Energies and Occupations

         #    Occupation            Energy/Eh            Energy/eV
      -------------------------------------------------------------
         1        2.0000           -0.8753809             -23.8203
       ...           ...                  ...                  ...
        43        2.0000           -0.5856487             -15.9363
        44        2.0000           -0.5846560             -15.9093
        45        2.0000           -0.5820887             -15.8394
        46        2.0000           -0.5818218             -15.8322
        47        2.0000           -0.5702807             -15.5181
        48        2.0000           -0.5654373             -15.3863
        49        2.0000           -0.5492763             -14.9466
        50        2.0000           -0.5446939             -14.8219
        51        2.0000           -0.5371071             -14.6154
        52        2.0000           -0.5316285             -14.4663
        53        2.0000           -0.5289096             -14.3924
        54        2.0000           -0.5156874             -14.0326
        55        2.0000           -0.5116722             -13.9233 (HOMO)
        56                         -0.4090424             -11.1306 (LUMO)
        57                         -0.3596800              -9.7874
        58                         -0.3507769              -9.5451
        59                         -0.3366066              -9.1595
        60                         -0.3336852              -9.0800
        61                         -0.3309480              -9.0056
        62                         -0.3236146              -8.8060
        63                         -0.2351758              -6.3995
        64                         -0.2063260              -5.6144
        65                         -0.1843499              -5.0164
        66                         -0.1362396              -3.7073
       ...                                ...                  ...
       108                          1.0240011              27.8645
      -------------------------------------------------------------
                  HL-Gap            0.1026299 Eh            2.7927 eV

     #   Z          covCN         q      C6AA      α(0)
     1   7 N        0.911    -0.215    25.698     7.332
     2   6 C        1.901     0.112    28.349     8.599
     3   6 C        3.806    -0.068    21.802     6.647
     4   6 C        3.799     0.044    19.843     6.343
     5   7 N        2.823     0.012    21.045     6.813
     6   6 C        3.078     0.069    26.380     8.421
     7   7 N        2.825     0.046    20.444     6.715
     8   6 C        3.113     0.032    27.133     8.533
     9   6 C        3.118     0.043    26.859     8.488
    10   6 C        2.909    -0.041    29.016     8.833
    11   6 C        2.924    -0.020    28.507     8.756
    12   6 C        2.932    -0.033    28.816     8.804
    13   6 C        2.955     0.028    27.384     8.583
    14   6 C        3.757    -0.125    22.943     6.829
    15   6 C        3.749    -0.023    21.050     6.544
    16   6 C        2.970     0.001    27.999     8.679
    17   6 C        2.922    -0.038    28.941     8.822
    18   6 C        2.920    -0.024    28.598     8.769
    19   6 C        2.920    -0.022    28.558     8.763
    20   6 C        2.920    -0.021    28.528     8.759
    21   6 C        2.924    -0.037    28.919     8.819
    22   6 C        3.754    -0.125    22.949     6.831
    23   1 H        0.924     0.093     1.851     2.127
    24   1 H        0.924     0.101     1.775     2.083
    25   1 H        0.924     0.069     2.096     2.264
    26   1 H        0.926     0.099     1.794     2.095
    27   1 H        0.926     0.062     2.178     2.308
    28   1 H        0.926     0.077     2.014     2.219
    29   1 H        0.926     0.076     2.016     2.221
    30   1 H        0.925     0.070     2.082     2.256
    31   1 H        0.925     0.070     2.088     2.259
    32   1 H        0.925     0.073     2.052     2.240
    33   1 H        0.924     0.081     1.973     2.196
    34   1 H        0.924     0.094     1.838     2.120
    35   1 H        0.926     0.017     2.773     2.604
    36   1 H        0.926     0.050     2.315     2.380
    37   1 H        0.926     0.058     2.224     2.332
    38   1 H        0.926     0.059     2.215     2.328
    39   1 H        0.926     0.045     2.377     2.411
    40   1 H        0.925     0.079     1.993     2.208
    41   1 H        0.925     0.065     2.145     2.290
    42   1 H        0.925     0.067     2.115     2.274

Wiberg/Mayer (AO) data.
largest (>0.10) Wiberg bond orders for each atom

     #   Z sym  total        # sym  WBO       # sym  WBO       # sym  WBO
 ---------------------------------------------------------------------------
     1   7 N    3.015 --     2 C    2.863
     2   6 C    3.949 --     1 N    2.863     3 C    1.050
     3   6 C    3.989 --     2 C    1.050     4 C    0.957    24 H    0.940
                            23 H    0.940
     4   6 C    3.949 --    22 C    1.000    25 H    0.961     3 C    0.957
                             5 N    0.952
     5   7 N    3.662 --     6 C    1.354     9 C    1.120     4 C    0.952
                             7 N    0.105
     6   6 C    3.955 --     7 N    1.389     5 N    1.354    26 H    0.953
     7   7 N    3.693 --     6 C    1.389     8 C    1.121    15 C    0.972
                             5 N    0.105
     8   6 C    3.947 --    13 C    1.306     9 C    1.276     7 N    1.121
     9   6 C    3.950 --    10 C    1.340     8 C    1.276     5 N    1.120
    10   6 C    3.985 --    11 C    1.485     9 C    1.340    27 H    0.960
                            13 C    0.113
    11   6 C    3.986 --    10 C    1.485    12 C    1.389    28 H    0.966
    12   6 C    3.986 --    13 C    1.455    11 C    1.389    29 H    0.964
    13   6 C    3.984 --    12 C    1.455     8 C    1.306    14 C    1.035
                            10 C    0.113
    14   6 C    3.988 --    13 C    1.035    32 H    0.980    30 H    0.960
                            31 H    0.958
    15   6 C    3.938 --    16 C    0.979     7 N    0.972    33 H    0.955
                            34 H    0.951
    16   6 C    3.979 --    17 C    1.420    21 C    1.404    15 C    0.979
                            19 C    0.109
    17   6 C    3.992 --    18 C    1.437    16 C    1.420    35 H    0.969
                            20 C    0.110
    18   6 C    3.991 --    19 C    1.444    17 C    1.437    36 H    0.970
                            21 C    0.112
    19   6 C    3.989 --    18 C    1.444    20 C    1.435    37 H    0.969
                            16 C    0.109
    20   6 C    3.989 --    21 C    1.448    19 C    1.435    38 H    0.968
                            17 C    0.110
    21   6 C    3.989 --    20 C    1.448    16 C    1.404    39 H    0.968
                            18 C    0.112
    22   6 C    3.982 --     4 C    1.000    41 H    0.981    42 H    0.979
                            40 H    0.977
    23   1 H    0.991 --     3 C    0.940
    24   1 H    0.989 --     3 C    0.940
    25   1 H    0.995 --     4 C    0.961
    26   1 H    0.989 --     6 C    0.953
    27   1 H    0.995 --    10 C    0.960
    28   1 H    0.994 --    11 C    0.966
    29   1 H    0.994 --    12 C    0.964
    30   1 H    0.995 --    14 C    0.960
    31   1 H    0.995 --    14 C    0.958
    32   1 H    0.994 --    14 C    0.980
    33   1 H    0.993 --    15 C    0.955
    34   1 H    0.990 --    15 C    0.951
    35   1 H    1.000 --    17 C    0.969
    36   1 H    0.997 --    18 C    0.970
    37   1 H    0.996 --    19 C    0.969
    38   1 H    0.996 --    20 C    0.968
    39   1 H    0.998 --    21 C    0.968
    40   1 H    0.993 --    22 C    0.977
    41   1 H    0.994 --    22 C    0.981
    42   1 H    0.995 --    22 C    0.979
 ---------------------------------------------------------------------------

molecular dipole:
                 x           y           z       tot (Debye)
 q only:        8.547       5.753       3.799
   full:        8.847       5.401       3.545      27.845

           -------------------------------------------------
          | TOTAL ENERGY              -59.266975193855 Eh   |
          | GRADIENT NORM               0.000658509173 Eh/α |
          | HOMO-LUMO GAP               2.792700906489 eV   |
           -------------------------------------------------

 * finished run on 2024/12/20 at 02:13:57.046
