   * xtb version 6.7.1 (edcfbbe) compiled by 'conda@3ef47c1a292c' on 2024-11-25

   ID    Z sym.   atoms
    1    8 O      1
    2    6 C      2, 3, 5-13
    3    7 N      4
    4    1 H      14-31

          program call               : xtb C0282.xyz --opt --namespace C0282 --charge +1
          :  Hamiltonian                  GFN2-xTB          :
 * total energy  :   -39.2925711 Eh     change       -0.1037805E-08 Eh
 * total energy  :   -39.3001999 Eh     change       -0.7628885E-02 Eh
 * total energy  :   -39.3021789 Eh     change       -0.1978949E-02 Eh
 * total energy  :   -39.3023967 Eh     change       -0.2178372E-03 Eh
 * total energy  :   -39.3026175 Eh     change       -0.2207672E-03 Eh
 * total energy  :   -39.3027566 Eh     change       -0.1390538E-03 Eh
 * total energy  :   -39.3029746 Eh     change       -0.2180220E-03 Eh
 * total energy  :   -39.3031410 Eh     change       -0.1664302E-03 Eh
 * total energy  :   -39.3032200 Eh     change       -0.7901228E-04 Eh
 * total energy  :   -39.3032547 Eh     change       -0.3469480E-04 Eh
 * total energy  :   -39.3033987 Eh     change       -0.2216849E-04 Eh
 * total energy  :   -39.3034156 Eh     change       -0.1687039E-04 Eh
 * total energy  :   -39.3034308 Eh     change       -0.1523107E-04 Eh
 * total energy  :   -39.3034423 Eh     change       -0.1146646E-04 Eh
 * total energy  :   -39.3034503 Eh     change       -0.8066821E-05 Eh
 * total energy  :   -39.3034568 Eh     change       -0.6451873E-05 Eh
 * total energy  :   -39.3034626 Eh     change       -0.5792219E-05 Eh
 * total energy  :   -39.3034678 Eh     change       -0.5188469E-05 Eh
 * total energy  :   -39.3034710 Eh     change       -0.3184381E-05 Eh
   *** GEOMETRY OPTIMIZATION CONVERGED AFTER 22 ITERATIONS ***

 final structure:
================
31
 xtb: 6.7.1 (edcfbbe)
O            0.85780545291926        0.12712479888825       -0.16334894027645
C            0.76139907948074       -0.48023820619991        1.10190738677920
C            1.16533547041528       -1.95139347974591        0.97791617468189
N            2.62167651215766       -2.22821119387169        0.82544353093197
C            3.37504241770691       -1.93813965831833        2.09398836122433
C            2.90286975547273       -2.72159558231950        3.29177471876764
C            1.93032647657216       -2.19898325411345        4.13959488672196
C            1.50679121895887       -2.91291505676903        5.24680295407663
C            2.05217103188161       -4.15564561482026        5.52249469070958
C            3.03473899845972       -4.67500344117761        4.69632205823403
C            3.46080285953889       -3.96146214538173        3.58969876336610
C            2.77190762479640       -3.65392656501691        0.47876939064811
C            3.20095556309945       -1.42091565733343       -0.26344080780065
H            0.35468180618683        0.94749360844996       -0.18211823297309
H            1.37982117621186        0.05363584401624        1.83663643595304
H           -0.27375573352236       -0.46998955888086        1.46450363198727
H            0.81625419677735       -2.49676667148642        1.85635065824901
H            0.65988102782507       -2.33946893831361        0.09092844859181
H            4.42583890917135       -2.16367412406997        1.90003712531328
H            3.28870651417183       -0.86944801333896        2.29525842615850
H            1.51371025138117       -1.22060661451994        3.94893215679170
H            0.75662789561650       -2.49313601299567        5.89821174952082
H            1.72296717758716       -4.71046022825117        6.38648229966724
H            3.47775091566866       -5.63326663210385        4.91693167243177
H            4.24697692293844       -4.36618589115399        2.96926621927637
H            2.28392083229346       -3.86050726627038       -0.47188646610746
H            3.82697725725684       -3.90514352492444        0.38743870867831
H            2.32604369650955       -4.27894856944255        1.25034232670733
H            2.62634112318298       -1.56342195509421       -1.17613279303809
H            3.17133693533951       -0.36315345934251       -0.01681077505536
H            4.23336663394539       -1.71726693610136       -0.43785476021733

          :  Hamiltonian                  GFN2-xTB          :
         :: total energy             -39.303470956243 Eh    ::
         :: gradient norm              0.000217515644 Eh/a0 ::
         :: HOMO-LUMO gap              4.653509052546 eV    ::
         :: SCC energy               -39.889257733835 Eh    ::
         :: -> dispersion             -0.026790578690 Eh    ::
         :: repulsion energy           0.585786777592 Eh    ::

    * Orbital Energies and Occupations

         #    Occupation            Energy/Eh            Energy/eV
      -------------------------------------------------------------
         1        2.0000           -0.8585954             -23.3636
       ...           ...                  ...                  ...
        24        2.0000           -0.6334081             -17.2359
        25        2.0000           -0.6298457             -17.1390
        26        2.0000           -0.6236625             -16.9707
        27        2.0000           -0.6097983             -16.5935
        28        2.0000           -0.6046549             -16.4535
        29        2.0000           -0.6035883             -16.4245
        30        2.0000           -0.6018476             -16.3771
        31        2.0000           -0.6012515             -16.3609
        32        2.0000           -0.5577805             -15.1780
        33        2.0000           -0.5497447             -14.9593
        34        2.0000           -0.5451156             -14.8334
        35        2.0000           -0.5315436             -14.4640
        36        2.0000           -0.5308555             -14.4453 (HOMO)
        37                         -0.3598422              -9.7918 (LUMO)
        38                         -0.3492150              -9.5026
        39                         -0.2365421              -6.4366
        40                         -0.2078145              -5.6549
        41                         -0.1525251              -4.1504
        42                         -0.1428447              -3.8870
        43                         -0.1359064              -3.6982
        44                         -0.0979858              -2.6663
        45                         -0.0588055              -1.6002
        46                         -0.0521842              -1.4200
        47                         -0.0392099              -1.0670
       ...                                ...                  ...
        70                          0.5362813              14.5930
      -------------------------------------------------------------
                  HL-Gap            0.1710133 Eh            4.6535 eV

     #   Z          covCN         q      C6AA      α(0)
     1   8 O        1.656    -0.437    21.574     6.270
     2   6 C        3.672     0.076    19.542     6.336
     3   6 C        3.762    -0.042    21.377     6.591
     4   7 N        3.621     0.134    18.961     6.467
     5   6 C        3.764    -0.043    21.394     6.593
     6   6 C        2.967    -0.008    28.215     8.713
     7   6 C        2.923    -0.040    28.991     8.830
     8   6 C        2.918    -0.022    28.563     8.764
     9   6 C        2.920    -0.018    28.456     8.748
    10   6 C        2.919    -0.022    28.551     8.762
    11   6 C        2.923    -0.039    28.964     8.826
    12   6 C        3.727    -0.095    22.419     6.760
    13   6 C        3.721    -0.097    22.477     6.771
    14   1 H        0.805     0.313     0.683     1.298
    15   1 H        0.923     0.044     2.402     2.424
    16   1 H        0.924     0.060     2.199     2.319
    17   1 H        0.924     0.091     1.873     2.140
    18   1 H        0.924     0.104     1.745     2.066
    19   1 H        0.924     0.087     1.912     2.162
    20   1 H        0.924     0.085     1.924     2.169
    21   1 H        0.926     0.036     2.498     2.472
    22   1 H        0.926     0.059     2.214     2.327
    23   1 H        0.926     0.063     2.162     2.299
    24   1 H        0.926     0.060     2.197     2.318
    25   1 H        0.926     0.043     2.411     2.428
    26   1 H        0.925     0.097     1.808     2.103
    27   1 H        0.925     0.099     1.798     2.097
    28   1 H        0.925     0.099     1.791     2.093
    29   1 H        0.925     0.109     1.702     2.040
    30   1 H        0.925     0.113     1.673     2.023
    31   1 H        0.925     0.092     1.864     2.135

Wiberg/Mayer (AO) data.
largest (>0.10) Wiberg bond orders for each atom

     #   Z sym  total        # sym  WBO       # sym  WBO       # sym  WBO
 ---------------------------------------------------------------------------
     1   8 O    1.955 --     2 C    1.008    14 H    0.887
     2   6 C    3.962 --     1 O    1.008     3 C    1.005    16 H    0.964
                            15 H    0.959
     3   6 C    3.939 --     2 C    1.005    18 H    0.962    17 H    0.962
                             4 N    0.937
     4   7 N    3.811 --    12 C    0.959    13 C    0.956     3 C    0.937
                             5 C    0.912
     5   6 C    3.929 --     6 C    1.005    19 H    0.964    20 H    0.962
                             4 N    0.912
     6   6 C    3.979 --    11 C    1.408     7 C    1.407     5 C    1.005
                             9 C    0.109
     7   6 C    3.991 --     8 C    1.445     6 C    1.407    21 H    0.967
                            10 C    0.109
     8   6 C    3.990 --     7 C    1.445     9 C    1.438    22 H    0.969
                            11 C    0.109
     9   6 C    3.988 --    10 C    1.438     8 C    1.438    23 H    0.968
                             6 C    0.109
    10   6 C    3.990 --    11 C    1.445     9 C    1.438    24 H    0.968
                             7 C    0.109
    11   6 C    3.991 --    10 C    1.445     6 C    1.408    25 H    0.968
                             8 C    0.109
    12   6 C    3.929 --    26 H    0.974    27 H    0.974    28 H    0.972
                             4 N    0.959
    13   6 C    3.920 --    31 H    0.976    29 H    0.972    30 H    0.970
                             4 N    0.956
    14   1 H    0.902 --     1 O    0.887
    15   1 H    0.998 --     2 C    0.959
    16   1 H    0.996 --     2 C    0.964
    17   1 H    0.992 --     3 C    0.962
    18   1 H    0.989 --     3 C    0.962
    19   1 H    0.992 --     5 C    0.964
    20   1 H    0.992 --     5 C    0.962
    21   1 H    0.999 --     7 C    0.967
    22   1 H    0.996 --     8 C    0.969
    23   1 H    0.995 --     9 C    0.968
    24   1 H    0.996 --    10 C    0.968
    25   1 H    0.998 --    11 C    0.968
    26   1 H    0.990 --    12 C    0.974
    27   1 H    0.990 --    12 C    0.974
    28   1 H    0.990 --    12 C    0.972
    29   1 H    0.987 --    13 C    0.972
    30   1 H    0.987 --    13 C    0.970
    31   1 H    0.992 --    13 C    0.976
 ---------------------------------------------------------------------------

molecular dipole:
                 x           y           z       tot (Debye)
 q only:        4.378      -4.279       2.599
   full:        4.287      -4.106       2.709      16.584

           -------------------------------------------------
          | TOTAL ENERGY              -39.303470956243 Eh   |
          | GRADIENT NORM               0.000217515644 Eh/α |
          | HOMO-LUMO GAP               4.653509052546 eV   |
           -------------------------------------------------

 * finished run on 2024/12/20 at 02:13:43.682
