   * xtb version 6.7.1 (edcfbbe) compiled by 'conda@3ef47c1a292c' on 2024-11-25

   ID    Z sym.   atoms
    1    6 C      1-3, 5-8
    2    7 N      4
    3    1 H      9-26

          program call               : xtb C0283.xyz --opt --namespace C0283 --charge +1
          :  Hamiltonian                  GFN2-xTB          :
 * total energy  :   -26.6833458 Eh     change       -0.3085177E-10 Eh
 * total energy  :   -26.6888770 Eh     change       -0.5531224E-02 Eh
 * total energy  :   -26.6901068 Eh     change       -0.1229800E-02 Eh
 * total energy  :   -26.6901527 Eh     change       -0.4587042E-04 Eh
 * total energy  :   -26.6901771 Eh     change       -0.2444431E-04 Eh
 * total energy  :   -26.6901939 Eh     change       -0.1677828E-04 Eh
 * total energy  :   -26.6902080 Eh     change       -0.1406582E-04 Eh
 * total energy  :   -26.6902105 Eh     change       -0.2551694E-05 Eh
   *** GEOMETRY OPTIMIZATION CONVERGED AFTER 8 ITERATIONS ***

 final structure:
================
26
 xtb: 6.7.1 (edcfbbe)
C            0.97027626166647        0.02077018339379        0.41598299589287
C            0.44545903551863        1.38867966987909       -0.01226102258664
C            0.98325225890193        1.93889884632978       -1.33669845775683
N            0.43324944116466        1.39598067251156       -2.62042411468563
C           -1.06027831504322        1.43990069999243       -2.66844443306746
C           -1.68429600450149        2.81394563662954       -2.48409255353183
C            0.99763313918081        2.20253197569870       -3.72169787692985
C            0.85547940101228       -0.00193295756171       -2.82952361636909
H            0.47393853874648       -0.80340750914349       -0.08815014937998
H            0.79287086461408       -0.10811158075661        1.48006016730791
H            2.04141158107151       -0.05736455426886        0.24902948676886
H           -0.64380797945833        1.39243146654839        0.00754487000305
H            0.77078421505135        2.11202616177970        0.73874870086581
H            0.80005282374904        3.01440365507086       -1.35177472366938
H            2.06460720177831        1.78616937927734       -1.36326897735863
H           -1.36139155768494        1.03824314051643       -3.63841368437534
H           -1.43584828931051        0.76520552309444       -1.89797933594316
H           -1.40169974812945        3.50658178364978       -3.27109358959794
H           -2.76416234075457        2.69660611772409       -2.53136110170697
H           -1.44711174467541        3.25147219399305       -1.51909184497730
H            2.07945831375154        2.08606540297054       -3.75083002203292
H            0.58639392848270        1.87331685227097       -4.67425638346050
H            0.76937225431173        3.25687263329075       -3.58744248411017
H            1.93437598367847       -0.08931968224345       -2.71900903812041
H            0.37629733456176       -0.65936178493939       -2.11040281228532
H            0.58108340231624       -0.32759392570776       -3.83158999889317

          :  Hamiltonian                  GFN2-xTB          :
         :: total energy             -26.690210536505 Eh    ::
         :: gradient norm              0.000384252377 Eh/a0 ::
         :: HOMO-LUMO gap              9.276832650145 eV    ::
         :: SCC energy               -27.074048966072 Eh    ::
         :: -> dispersion             -0.017033929073 Eh    ::
         :: repulsion energy           0.383838429567 Eh    ::

    * Orbital Energies and Occupations

         #    Occupation            Energy/Eh            Energy/eV
      -------------------------------------------------------------
         1        2.0000           -0.8660041             -23.5652
       ...           ...                  ...                  ...
        13        2.0000           -0.6681102             -18.1802
        14        2.0000           -0.6591728             -17.9370
        15        2.0000           -0.6544346             -17.8081
        16        2.0000           -0.6509405             -17.7130
        17        2.0000           -0.6456356             -17.5686
        18        2.0000           -0.6388344             -17.3836
        19        2.0000           -0.6332294             -17.2311
        20        2.0000           -0.6308088             -17.1652
        21        2.0000           -0.6119088             -16.6509
        22        2.0000           -0.6043944             -16.4464
        23        2.0000           -0.5961065             -16.2209
        24        2.0000           -0.5822483             -15.8438
        25        2.0000           -0.5747101             -15.6387 (HOMO)
        26                         -0.2337928              -6.3618 (LUMO)
        27                         -0.1721492              -4.6844
        28                         -0.1526331              -4.1534
        29                         -0.1484760              -4.0402
        30                         -0.0771159              -2.0984
        31                         -0.0606662              -1.6508
        32                         -0.0486110              -1.3228
        33                         -0.0369386              -1.0052
        34                         -0.0167251              -0.4551
        35                         -0.0037834              -0.1030
        36                          0.0058611               0.1595
       ...                                ...                  ...
        50                          0.1784938               4.8571
      -------------------------------------------------------------
                  HL-Gap            0.3409173 Eh            9.2768 eV

     #   Z          covCN         q      C6AA      α(0)
     1   6 C        3.751    -0.120    22.870     6.820
     2   6 C        3.798    -0.069    21.828     6.652
     3   6 C        3.757    -0.041    21.362     6.590
     4   7 N        3.620     0.130    19.021     6.478
     5   6 C        3.759    -0.033    21.219     6.567
     6   6 C        3.751    -0.130    23.057     6.848
     7   6 C        3.728    -0.095    22.427     6.761
     8   6 C        3.725    -0.096    22.441     6.764
     9   1 H        0.925     0.043     2.415     2.430
    10   1 H        0.925     0.068     2.105     2.269
    11   1 H        0.925     0.052     2.291     2.367
    12   1 H        0.925     0.060     2.198     2.318
    13   1 H        0.924     0.075     2.028     2.227
    14   1 H        0.924     0.086     1.923     2.168
    15   1 H        0.924     0.086     1.921     2.167
    16   1 H        0.924     0.085     1.933     2.174
    17   1 H        0.924     0.089     1.888     2.149
    18   1 H        0.925     0.067     2.120     2.277
    19   1 H        0.925     0.086     1.918     2.166
    20   1 H        0.925     0.068     2.109     2.271
    21   1 H        0.925     0.097     1.813     2.106
    22   1 H        0.925     0.098     1.806     2.102
    23   1 H        0.925     0.100     1.784     2.089
    24   1 H        0.925     0.098     1.802     2.099
    25   1 H        0.925     0.104     1.752     2.070
    26   1 H        0.925     0.094     1.837     2.120

Wiberg/Mayer (AO) data.
largest (>0.10) Wiberg bond orders for each atom

     #   Z sym  total        # sym  WBO       # sym  WBO       # sym  WBO
 ---------------------------------------------------------------------------
     1   6 C    3.990 --     2 C    1.019    11 H    0.985    10 H    0.982
                             9 H    0.980
     2   6 C    3.985 --     1 C    1.019     3 C    1.006    12 H    0.969
                            13 H    0.965
     3   6 C    3.929 --     2 C    1.006    14 H    0.966    15 H    0.966
                             4 N    0.923
     4   7 N    3.809 --     8 C    0.959     7 C    0.959     5 C    0.926
                             3 C    0.923
     5   6 C    3.933 --     6 C    1.023    16 H    0.967    17 H    0.964
                             4 N    0.926
     6   6 C    3.981 --     5 C    1.023    18 H    0.980    20 H    0.980
                            19 H    0.972
     7   6 C    3.929 --    21 H    0.975    22 H    0.974    23 H    0.972
                             4 N    0.959
     8   6 C    3.927 --    26 H    0.975    24 H    0.974    25 H    0.966
                             4 N    0.959
     9   1 H    0.998 --     1 C    0.980
    10   1 H    0.995 --     1 C    0.982
    11   1 H    0.997 --     1 C    0.985
    12   1 H    0.996 --     2 C    0.969
    13   1 H    0.994 --     2 C    0.965
    14   1 H    0.993 --     3 C    0.966
    15   1 H    0.993 --     3 C    0.966
    16   1 H    0.993 --     5 C    0.967
    17   1 H    0.992 --     5 C    0.964
    18   1 H    0.996 --     6 C    0.980
    19   1 H    0.992 --     6 C    0.972
    20   1 H    0.995 --     6 C    0.980
    21   1 H    0.991 --     7 C    0.975
    22   1 H    0.990 --     7 C    0.974
    23   1 H    0.990 --     7 C    0.972
    24   1 H    0.990 --     8 C    0.974
    25   1 H    0.989 --     8 C    0.966
    26   1 H    0.991 --     8 C    0.975
 ---------------------------------------------------------------------------

molecular dipole:
                 x           y           z       tot (Debye)
 q only:        0.638       2.712      -4.546
   full:        0.674       2.706      -4.620      13.716

           -------------------------------------------------
          | TOTAL ENERGY              -26.690210536505 Eh   |
          | GRADIENT NORM               0.000384252377 Eh/α |
          | HOMO-LUMO GAP               9.276832650145 eV   |
           -------------------------------------------------

 * finished run on 2024/12/20 at 02:13:44.173
