   * xtb version 6.7.1 (edcfbbe) compiled by 'conda@3ef47c1a292c' on 2024-11-25

   ID    Z sym.   atoms
    1    6 C      1-12, 14, 17-29
    2    7 N      13, 15, 16
    3   17 Cl     30
    4    1 H      31-67

          program call               : xtb C0281.xyz --opt --namespace C0281 --charge +1
          :  Hamiltonian                  GFN2-xTB          :
 * total energy  :   -87.5444194 Eh     change       -0.1084430E-08 Eh
 * total energy  :   -87.5499115 Eh     change       -0.5492111E-02 Eh
 * total energy  :   -87.5509801 Eh     change       -0.1068645E-02 Eh
 * total energy  :   -87.5514104 Eh     change       -0.4303032E-03 Eh
 * total energy  :   -87.5518809 Eh     change       -0.4704435E-03 Eh
 * total energy  :   -87.5522307 Eh     change       -0.3497796E-03 Eh
 * total energy  :   -87.5525479 Eh     change       -0.3172085E-03 Eh
 * total energy  :   -87.5528096 Eh     change       -0.2617161E-03 Eh
 * total energy  :   -87.5530232 Eh     change       -0.2135723E-03 Eh
 * total energy  :   -87.5532199 Eh     change       -0.1967759E-03 Eh
 * total energy  :   -87.5584123 Eh     change       -0.1456095E-04 Eh
 * total energy  :   -87.5584246 Eh     change       -0.1226855E-04 Eh
 * total energy  :   -87.5584357 Eh     change       -0.1108707E-04 Eh
 * total energy  :   -87.5584460 Eh     change       -0.1030657E-04 Eh
 * total energy  :   -87.5584545 Eh     change       -0.8513492E-05 Eh
 * total energy  :   -87.5584623 Eh     change       -0.7778447E-05 Eh
 * total energy  :   -87.5584709 Eh     change       -0.8670777E-05 Eh
 * total energy  :   -87.5584814 Eh     change       -0.1042858E-04 Eh
 * total energy  :   -87.5584848 Eh     change       -0.3431403E-05 Eh
   *** GEOMETRY OPTIMIZATION CONVERGED AFTER 68 ITERATIONS ***

 final structure:
================
67
 xtb: 6.7.1 (edcfbbe)
C            1.39918135874432        0.98743232947083        0.08337017303294
C            1.19505810241488        1.58716939238428       -1.30278901889626
C            1.48517510171958        0.60154617904061       -2.43580349736235
C            0.57865552042703       -0.63056917897277       -2.46785368853901
C           -0.91255739897039       -0.33297273400780       -2.63689352037743
C           -1.28143827836323        0.42058826040324       -3.91676935276492
C           -0.85391022423747       -0.26371278761134       -5.21725807174849
C           -1.37761228930905       -1.68935886853175       -5.40154816114048
C           -2.90211641333893       -1.82189147753222       -5.43119070219532
C           -3.57713431461638       -1.16693182444960       -6.63907975037954
C           -3.30127387765024       -1.87469612643172       -7.96827438359699
C           -4.02183981208014       -3.22123325493772       -8.10156367505997
N           -5.44382983154301       -3.06285524407328       -8.32790590774016
C           -6.02334706073233       -2.81884368125441       -9.51487659597927
N           -5.37875891352218       -2.73863778097614      -10.68451989180552
N           -7.35774470159732       -2.72605346165156       -9.37836845273670
C           -7.66399357114425       -2.90965714754690       -8.03515390994636
C           -6.44767443896768       -3.12188892991993       -7.36749895381859
C           -6.40916789759180       -3.34584475421674       -6.00123468250523
C           -7.61683312733505       -3.34530934761755       -5.32728608697026
C           -8.82277577004751       -3.13135677760108       -5.98970416730011
C           -8.86974193140115       -2.91113422772814       -7.35439152486149
C           -8.30076962610751       -2.51651554772933      -10.46136760568801
C           -7.92223768071202       -1.32539752128506      -11.30745734403526
C           -7.75741990344071       -1.45210087484501      -12.68311004675930
C           -7.40554123006772       -0.35846288146370      -13.45412710347109
C           -7.20471718827824        0.87390720012346      -12.84654188742077
C           -7.36802034608795        1.01284523552652      -11.47310893923490
C           -7.72751191716086       -0.08262935048365      -10.71222074295871
Cl          -6.75466466941126        2.23544416961119      -13.79787876843059
H            0.68128255538946        0.19507096332234        0.27956516526566
H            1.27314656544578        1.75213438585529        0.84625197546363
H            2.40166230519223        0.57514308524439        0.17535515868764
H            0.17493155873046        1.96565682938566       -1.38968883450359
H            1.86752837329235        2.44061756832252       -1.41821786633706
H            1.41103391696301        1.13129973013109       -3.38797828397797
H            2.51761961363826        0.25649114412289       -2.33820660926099
H            0.91339679430257       -1.27927976483691       -3.28045326388061
H            0.70907294532554       -1.19184626396691       -1.54091831255349
H           -1.45659786743287       -1.28014549175482       -2.60364982216540
H           -1.25724199318481        0.25802234916081       -1.78657751979977
H           -2.36339254700884        0.57537793095020       -3.92467437885864
H           -0.82211997316519        1.41013829295844       -3.89208111531431
H           -1.17730679629298        0.35832323485908       -6.05549205493986
H            0.23573126554276       -0.30172319785926       -5.25550536445011
H           -0.95529871549607       -2.09448324641687       -6.32436896698985
H           -1.00292826449595       -2.30890695864454       -4.58604728628919
H           -3.14782966072514       -2.88650804597170       -5.39938599899189
H           -3.31265983296847       -1.37305179466079       -4.52652334328852
H           -4.65632306161771       -1.12591093562569       -6.47030220248972
H           -3.22587657544262       -0.13839706265893       -6.71901761973599
H           -3.60594519273887       -1.22182333953921       -8.79052208929795
H           -2.23059676159586       -2.05114241689950       -8.06730138804116
H           -3.60346522252961       -3.80181269581665       -8.92855276833245
H           -3.89731471618080       -3.80601389750360       -7.19029471982934
H           -4.37429135302335       -2.69470647721070      -10.69788329119003
H           -5.87780170842732       -2.39607475874726      -11.49290606135954
H           -5.48337971995761       -3.50825737443138       -5.47567377239062
H           -7.62430798074363       -3.51503902573999       -4.26274298692484
H           -9.74182475222990       -3.13923781611284       -5.42637267353981
H           -9.80993889946769       -2.75095063203906       -7.85605684203150
H           -8.35446816164846       -3.42095970751517      -11.07675300803718
H           -9.28036709352710       -2.35517235270740      -10.00691079632455
H           -7.92486669683116       -2.40654992489630      -13.16149566650803
H           -7.29041522991020       -0.45827868066798      -14.52108828358920
H           -7.22287361286764        1.97538022002157      -11.01038460148839
H           -7.86591117371149        0.02991714232432       -9.64671824596734

          :  Hamiltonian                  GFN2-xTB          :
         :: total energy             -87.558484791756 Eh    ::
         :: gradient norm              0.000200884561 Eh/a0 ::
         :: HOMO-LUMO gap              2.343276553898 eV    ::
         :: SCC energy               -88.904630653269 Eh    ::
         :: -> dispersion             -0.069215346123 Eh    ::
         :: repulsion energy           1.346145861513 Eh    ::

    * Orbital Energies and Occupations

         #    Occupation            Energy/Eh            Energy/eV
      -------------------------------------------------------------
         1        2.0000           -1.1443583             -31.1396
       ...           ...                  ...                  ...
        69        2.0000           -0.5226649             -14.2224
        70        2.0000           -0.5198516             -14.1459
        71        2.0000           -0.5118301             -13.9276
        72        2.0000           -0.5097505             -13.8710
        73        2.0000           -0.5077490             -13.8166
        74        2.0000           -0.5014825             -13.6460
        75        2.0000           -0.4984972             -13.5648
        76        2.0000           -0.4911306             -13.3643
        77        2.0000           -0.4881511             -13.2833
        78        2.0000           -0.4840398             -13.1714
        79        2.0000           -0.4709699             -12.8157
        80        2.0000           -0.4665116             -12.6944
        81        2.0000           -0.4643915             -12.6367 (HOMO)
        82                         -0.3782777             -10.2935 (LUMO)
        83                         -0.3545635              -9.6482
        84                         -0.3512231              -9.5573
        85                         -0.3459478              -9.4137
        86                         -0.3333820              -9.0718
        87                         -0.2293940              -6.2421
        88                         -0.2236505              -6.0858
        89                         -0.2204643              -5.9991
        90                         -0.1776647              -4.8345
        91                         -0.1295227              -3.5245
        92                         -0.1248648              -3.3977
       ...                                ...                  ...
       162                          0.5608594              15.2618
      -------------------------------------------------------------
                  HL-Gap            0.0861138 Eh            2.3433 eV

     #   Z          covCN         q      C6AA      α(0)
     1   6 C        3.751    -0.102    22.518     6.767
     2   6 C        3.799    -0.052    21.517     6.605
     3   6 C        3.800    -0.058    21.614     6.619
     4   6 C        3.800    -0.058    21.614     6.619
     5   6 C        3.800    -0.057    21.606     6.618
     6   6 C        3.800    -0.058    21.618     6.620
     7   6 C        3.800    -0.059    21.636     6.623
     8   6 C        3.800    -0.060    21.664     6.627
     9   6 C        3.800    -0.060    21.663     6.627
    10   6 C        3.800    -0.064    21.724     6.636
    11   6 C        3.801    -0.068    21.807     6.649
    12   6 C        3.739    -0.016    20.933     6.528
    13   7 N        2.818    -0.026    21.753     6.927
    14   6 C        2.999     0.195    23.845     8.010
    15   7 N        2.638    -0.249    26.486     7.643
    16   7 N        2.820    -0.029    21.796     6.934
    17   6 C        3.087     0.036    27.092     8.532
    18   6 C        3.089     0.039    27.018     8.520
    19   6 C        2.911    -0.037    28.909     8.816
    20   6 C        2.926    -0.024    28.601     8.770
    21   6 C        2.926    -0.023    28.584     8.768
    22   6 C        2.910    -0.037    28.928     8.819
    23   6 C        3.745    -0.020    20.994     6.536
    24   6 C        2.969    -0.011    28.279     8.723
    25   6 C        2.923    -0.043    29.073     8.842
    26   6 C        2.954    -0.037    28.927     8.822
    27   6 C        2.886     0.105    25.667     8.306
    28   6 C        2.954    -0.036    28.901     8.818
    29   6 C        2.923    -0.037    28.909     8.817
    30  17 Cl       0.967    -0.132   103.274    15.547
    31   1 H        0.925     0.033     2.538     2.491
    32   1 H        0.925     0.034     2.536     2.490
    33   1 H        0.925     0.035     2.513     2.479
    34   1 H        0.924     0.029     2.596     2.520
    35   1 H        0.924     0.029     2.599     2.521
    36   1 H        0.924     0.027     2.624     2.533
    37   1 H        0.924     0.031     2.571     2.507
    38   1 H        0.924     0.027     2.636     2.539
    39   1 H        0.924     0.035     2.522     2.484
    40   1 H        0.924     0.024     2.676     2.558
    41   1 H        0.924     0.036     2.508     2.477
    42   1 H        0.924     0.023     2.684     2.562
    43   1 H        0.924     0.037     2.483     2.464
    44   1 H        0.924     0.024     2.673     2.557
    45   1 H        0.924     0.040     2.445     2.445
    46   1 H        0.924     0.024     2.667     2.554
    47   1 H        0.924     0.044     2.396     2.421
    48   1 H        0.924     0.020     2.728     2.583
    49   1 H        0.925     0.047     2.353     2.399
    50   1 H        0.924     0.028     2.615     2.529
    51   1 H        0.925     0.055     2.260     2.351
    52   1 H        0.924     0.034     2.533     2.489
    53   1 H        0.925     0.067     2.121     2.277
    54   1 H        0.924     0.060     2.197     2.318
    55   1 H        0.925     0.088     1.895     2.153
    56   1 H        0.860     0.218     1.019     1.581
    57   1 H        0.860     0.222     0.999     1.566
    58   1 H        0.926     0.068     2.105     2.269
    59   1 H        0.926     0.073     2.053     2.241
    60   1 H        0.926     0.073     2.054     2.241
    61   1 H        0.926     0.062     2.177     2.307
    62   1 H        0.924     0.075     2.035     2.231
    63   1 H        0.924     0.093     1.848     2.126
    64   1 H        0.926     0.055     2.254     2.348
    65   1 H        0.926     0.078     1.999     2.211
    66   1 H        0.926     0.076     2.018     2.222
    67   1 H        0.926     0.051     2.308     2.376

Wiberg/Mayer (AO) data.
largest (>0.10) Wiberg bond orders for each atom

     #   Z sym  total        # sym  WBO       # sym  WBO       # sym  WBO
 ---------------------------------------------------------------------------
     1   6 C    3.997 --     2 C    1.020    33 H    0.988    32 H    0.987
                            31 H    0.986
     2   6 C    3.998 --     1 C    1.020     3 C    1.008    35 H    0.978
                            34 H    0.976
     3   6 C    3.997 --     2 C    1.008     4 C    1.008    37 H    0.977
                            36 H    0.976
     4   6 C    3.997 --     5 C    1.008     3 C    1.008    38 H    0.975
                            39 H    0.975
     5   6 C    3.997 --     4 C    1.008     6 C    1.008    40 H    0.975
                            41 H    0.974
     6   6 C    3.997 --     5 C    1.008     7 C    1.007    42 H    0.975
                            43 H    0.974
     7   6 C    3.997 --     8 C    1.008     6 C    1.007    44 H    0.974
                            45 H    0.974
     8   6 C    3.996 --     7 C    1.008     9 C    1.007    46 H    0.973
                            47 H    0.973
     9   6 C    3.996 --    10 C    1.008     8 C    1.007    49 H    0.972
                            48 H    0.971
    10   6 C    3.993 --     9 C    1.008    11 C    1.007    50 H    0.976
                            51 H    0.970
    11   6 C    3.988 --    10 C    1.007    12 C    0.991    52 H    0.975
                            53 H    0.966
    12   6 C    3.945 --    11 C    0.991    13 N    0.968    54 H    0.965
                            55 H    0.959
    13   7 N    3.602 --    14 C    1.271    18 C    1.089    12 C    0.968
    14   6 C    3.972 --    13 N    1.271    15 N    1.269    16 N    1.264
    15   7 N    3.353 --    14 C    1.269    56 H    0.928    57 H    0.910
    16   7 N    3.595 --    14 C    1.264    17 C    1.088    23 C    0.965
    17   6 C    3.948 --    22 C    1.367    18 C    1.285    16 N    1.088
    18   6 C    3.950 --    19 C    1.365    17 C    1.285    13 N    1.089
    19   6 C    3.986 --    20 C    1.465    18 C    1.365    58 H    0.960
                            22 C    0.114
    20   6 C    3.982 --    19 C    1.465    21 C    1.406    59 H    0.967
    21   6 C    3.981 --    22 C    1.465    20 C    1.406    60 H    0.967
    22   6 C    3.986 --    21 C    1.465    17 C    1.367    61 H    0.962
                            19 C    0.114
    23   6 C    3.948 --    24 C    0.995    16 N    0.965    62 H    0.960
                            63 H    0.953
    24   6 C    3.984 --    25 C    1.401    29 C    1.399    23 C    0.995
    25   6 C    3.989 --    26 C    1.444    24 C    1.401    64 H    0.965
                            28 C    0.104
    26   6 C    3.986 --    25 C    1.444    27 C    1.396    65 H    0.965
                            29 C    0.107
    27   6 C    3.927 --    26 C    1.396    28 C    1.387    30 Cl   1.011
    28   6 C    3.987 --    29 C    1.457    27 C    1.387    66 H    0.965
                            25 C    0.104
    29   6 C    3.991 --    28 C    1.457    24 C    1.399    67 H    0.968
                            26 C    0.107
    30  17 Cl   1.164 --    27 C    1.011
    31   1 H    0.999 --     1 C    0.986
    32   1 H    0.999 --     1 C    0.987
    33   1 H    0.999 --     1 C    0.988
    34   1 H    0.999 --     2 C    0.976
    35   1 H    0.999 --     2 C    0.978
    36   1 H    0.999 --     3 C    0.976
    37   1 H    0.999 --     3 C    0.977
    38   1 H    0.999 --     4 C    0.975
    39   1 H    0.999 --     4 C    0.975
    40   1 H    0.999 --     5 C    0.975
    41   1 H    0.999 --     5 C    0.974
    42   1 H    0.999 --     6 C    0.975
    43   1 H    0.999 --     6 C    0.974
    44   1 H    0.999 --     7 C    0.974
    45   1 H    0.998 --     7 C    0.974
    46   1 H    0.999 --     8 C    0.973
    47   1 H    0.998 --     8 C    0.973
    48   1 H    1.000 --     9 C    0.971
    49   1 H    0.998 --     9 C    0.972
    50   1 H    0.999 --    10 C    0.976
    51   1 H    0.997 --    10 C    0.970
    52   1 H    0.999 --    11 C    0.975
    53   1 H    0.995 --    11 C    0.966
    54   1 H    0.996 --    12 C    0.965
    55   1 H    0.992 --    12 C    0.959
    56   1 H    0.952 --    15 N    0.928
    57   1 H    0.950 --    15 N    0.910
    58   1 H    0.995 --    19 C    0.960
    59   1 H    0.994 --    20 C    0.967
    60   1 H    0.994 --    21 C    0.967
    61   1 H    0.996 --    22 C    0.962
    62   1 H    0.993 --    23 C    0.960
    63   1 H    0.990 --    23 C    0.953
    64   1 H    0.997 --    25 C    0.965
    65   1 H    0.994 --    26 C    0.965
    66   1 H    0.994 --    28 C    0.965
    67   1 H    0.997 --    29 C    0.968
 ---------------------------------------------------------------------------

molecular dipole:
                 x           y           z       tot (Debye)
 q only:      -11.500      -5.110     -16.646
   full:      -11.431      -4.764     -17.153      53.774

           -------------------------------------------------
          | TOTAL ENERGY              -87.558484791756 Eh   |
          | GRADIENT NORM               0.000200884561 Eh/α |
          | HOMO-LUMO GAP               2.343276553898 eV   |
           -------------------------------------------------

 * finished run on 2024/12/20 at 02:13:42.845
