   * xtb version 6.7.1 (edcfbbe) compiled by 'conda@3ef47c1a292c' on 2024-11-25

   ID    Z sym.   atoms
    1    6 C      1, 4, 6-14
    2    7 N      2, 3, 5
    3    9 F      15-27
    4    1 H      28-36

          program call               : xtb C0288.xyz --opt --namespace C0288 --charge +1
          :  Hamiltonian                  GFN2-xTB          :
 * total energy  :   -97.9720928 Eh     change       -0.1198828E-09 Eh
 * total energy  :   -97.9837214 Eh     change       -0.1162859E-01 Eh
 * total energy  :   -97.9877682 Eh     change       -0.4046872E-02 Eh
 * total energy  :   -97.9884791 Eh     change       -0.7108283E-03 Eh
 * total energy  :   -97.9888988 Eh     change       -0.4197012E-03 Eh
 * total energy  :   -97.9890479 Eh     change       -0.1491419E-03 Eh
 * total energy  :   -97.9891678 Eh     change       -0.1199025E-03 Eh
 * total energy  :   -97.9892568 Eh     change       -0.8902686E-04 Eh
 * total energy  :   -97.9893568 Eh     change       -0.9990383E-04 Eh
 * total energy  :   -97.9895146 Eh     change       -0.1578812E-03 Eh
 * total energy  :   -97.9899012 Eh     change       -0.6265832E-04 Eh
 * total energy  :   -97.9899430 Eh     change       -0.4179761E-04 Eh
 * total energy  :   -97.9899580 Eh     change       -0.1496488E-04 Eh
 * total energy  :   -97.9899903 Eh     change       -0.3236598E-04 Eh
 * total energy  :   -97.9900065 Eh     change       -0.1615368E-04 Eh
 * total energy  :   -97.9900276 Eh     change       -0.2107577E-04 Eh
 * total energy  :   -97.9900361 Eh     change       -0.8518746E-05 Eh
 * total energy  :   -97.9900459 Eh     change       -0.9801955E-05 Eh
 * total energy  :   -97.9900490 Eh     change       -0.3142240E-05 Eh
   *** GEOMETRY OPTIMIZATION CONVERGED AFTER 21 ITERATIONS ***

 final structure:
================
36
 xtb: 6.7.1 (edcfbbe)
C           -0.07185383172015       -0.14349232794390       -0.03560418770494
N            0.14871188170043        1.14517582141489        0.55043949719090
N            0.27063976213675        1.27959162693787        1.86528329867070
C            0.49073659801137        2.53577802154619        2.08647087550588
N            0.50806272115790        3.23066777390805        0.91398540603661
C            0.28782221320466        2.31769948729879       -0.04346796321215
C            0.77947392459817        4.64198192963797        0.74689557684344
C            2.24483205117913        4.98343131836939        1.04497898278725
C            3.27995515271808        4.26835617332993        0.17081411854500
C            3.24962231947264        4.51695254256163       -1.37451508306858
C            3.28381634995340        5.99119020912315       -1.88480209788158
C            4.46542251557569        6.92079510517732       -1.46600184992828
C            5.91142594423082        6.52370414467648       -1.89819993182993
C            6.14789926799255        6.43711714565638       -3.44448848584478
F            5.58389086692192        7.45517388705220       -4.07918296625485
F            7.44058981460101        6.43454751714644       -3.70065508309533
F            5.61870190155002        5.30922551974359       -3.91393644945216
F            6.74455387158224        7.43360080921587       -1.38122019192536
F            6.22431986228709        5.33414925249592       -1.35417916407513
F            4.18834706088217        8.14137689790699       -1.93980659186978
F            4.43183999284786        7.01611036072723       -0.11830628911663
F            3.17926482629921        5.97350756763737       -3.21729299223840
F            2.15235435170604        6.57562612993819       -1.41470385145390
F            4.21714743741500        3.80460859855529       -1.95541310593160
F            2.07289304943283        3.99972973540780       -1.82754193633146
F            4.51117689769709        4.54120588491081        0.62572173375290
F            3.12029842688734        2.91849454106108        0.31019792772106
H           -0.58542200765544       -0.04506391350980       -0.98921846169750
H           -0.66570498255703       -0.74084027248722        0.65495583464575
H            0.88335853873232       -0.64932098478237       -0.19053094041413
H            0.62526667932112        2.96246376916933        3.06022911431196
H            0.23918086673589        2.50936499433690       -1.09827847694251
H            0.49858871728818        4.93567739487131       -0.26584443514108
H            0.15735096259136        5.20182124292887        1.45094075800379
H            2.38785976353055        6.06099685210489        0.96379576097938
H            2.49784623168761        4.69738524387503        2.07055165041772

          :  Hamiltonian                  GFN2-xTB          :
         :: total energy             -97.990049040917 Eh    ::
         :: gradient norm              0.000921445609 Eh/a0 ::
         :: HOMO-LUMO gap              4.506661145020 eV    ::
         :: SCC energy               -98.512607369380 Eh    ::
         :: -> dispersion             -0.036076726135 Eh    ::
         :: repulsion energy           0.522558328463 Eh    ::

    * Orbital Energies and Occupations

         #    Occupation            Energy/Eh            Energy/eV
      -------------------------------------------------------------
         1        2.0000           -1.0423227             -28.3630
       ...           ...                  ...                  ...
        67        2.0000           -0.6691840             -18.2094
        68        2.0000           -0.6662222             -18.1288
        69        2.0000           -0.6651231             -18.0989
        70        2.0000           -0.6637879             -18.0626
        71        2.0000           -0.6594992             -17.9459
        72        2.0000           -0.6557730             -17.8445
        73        2.0000           -0.6547010             -17.8153
        74        2.0000           -0.6463821             -17.5890
        75        2.0000           -0.6395713             -17.4036
        76        2.0000           -0.6295011             -17.1296
        77        2.0000           -0.6246292             -16.9970
        78        2.0000           -0.6158805             -16.7590
        79        2.0000           -0.6096138             -16.5884 (HOMO)
        80                         -0.4439971             -12.0818 (LUMO)
        81                         -0.4200733             -11.4308
        82                         -0.2445325              -6.6541
        83                         -0.2390292              -6.5043
        84                         -0.2264151              -6.1611
        85                         -0.2201902              -5.9917
        86                         -0.2117757              -5.7627
        87                         -0.1920975              -5.2272
        88                         -0.1813517              -4.9348
        89                         -0.1685470              -4.5864
        90                         -0.1367944              -3.7224
       ...                                ...                  ...
       117                          0.3425320               9.3208
      -------------------------------------------------------------
                  HL-Gap            0.1656167 Eh            4.5067 eV

     #   Z          covCN         q      C6AA      α(0)
     1   6 C        3.693    -0.104    22.678     6.814
     2   7 N        3.058     0.178    18.272     6.349
     3   7 N        2.047    -0.129    24.480     7.339
     4   6 C        3.141     0.086    25.847     8.319
     5   7 N        2.856     0.054    20.305     6.692
     6   6 C        3.062     0.050    26.824     8.493
     7   6 C        3.738    -0.031    21.205     6.571
     8   6 C        3.803    -0.099    22.382     6.735
     9   6 C        3.516     0.318    16.957     6.079
    10   6 C        3.517     0.311    17.030     6.089
    11   6 C        3.518     0.310    17.039     6.090
    12   6 C        3.517     0.314    16.991     6.083
    13   6 C        3.515     0.309    17.077     6.101
    14   6 C        3.326     0.487    17.417     6.631
    15   9 F        0.790    -0.158    10.806     3.883
    16   9 F        0.791    -0.136    10.591     3.844
    17   9 F        0.791    -0.167    10.899     3.900
    18   9 F        0.790    -0.144    10.669     3.858
    19   9 F        0.789    -0.170    10.927     3.905
    20   9 F        0.790    -0.148    10.716     3.867
    21   9 F        0.790    -0.176    10.993     3.917
    22   9 F        0.789    -0.155    10.778     3.878
    23   9 F        0.790    -0.182    11.053     3.927
    24   9 F        0.789    -0.157    10.798     3.882
    25   9 F        0.790    -0.194    11.176     3.949
    26   9 F        0.789    -0.180    11.028     3.923
    27   9 F        0.790    -0.207    11.304     3.972
    28   1 H        0.925     0.114     1.664     2.017
    29   1 H        0.925     0.136     1.490     1.909
    30   1 H        0.924     0.130     1.536     1.938
    31   1 H        0.926     0.128     1.548     1.946
    32   1 H        0.926     0.140     1.461     1.890
    33   1 H        0.924     0.111     1.685     2.030
    34   1 H        0.924     0.121     1.607     1.983
    35   1 H        0.925     0.120     1.616     1.988
    36   1 H        0.924     0.118     1.629     1.996

Wiberg/Mayer (AO) data.
largest (>0.10) Wiberg bond orders for each atom

     #   Z sym  total        # sym  WBO       # sym  WBO       # sym  WBO
 ---------------------------------------------------------------------------
     1   6 C    3.914 --     2 N    0.987    28 H    0.968    29 H    0.960
                            30 H    0.945
     2   7 N    3.764 --     6 C    1.421     3 N    1.210     1 C    0.987
     3   7 N    3.032 --     4 C    1.601     2 N    1.210
     4   6 C    3.946 --     3 N    1.601     5 N    1.235    31 H    0.952
     5   7 N    3.708 --     6 C    1.326     4 C    1.235     7 C    0.976
     6   6 C    3.946 --     2 N    1.421     5 N    1.326    32 H    0.946
     7   6 C    3.941 --     8 C    0.997     5 N    0.976    33 H    0.962
                            34 H    0.953
     8   6 C    3.969 --     7 C    0.997     9 C    0.968    36 H    0.957
                            35 H    0.956
     9   6 C    3.868 --    26 F    0.976     8 C    0.968    27 F    0.941
                            10 C    0.906
    10   6 C    3.881 --    24 F    0.994    25 F    0.948    11 C    0.911
                             9 C    0.906
    11   6 C    3.889 --    22 F    0.991    23 F    0.958    10 C    0.911
                            12 C    0.910
    12   6 C    3.895 --    20 F    0.991    21 F    0.966    11 C    0.910
                            13 C    0.908
    13   6 C    3.897 --    18 F    0.993    19 F    0.974    12 C    0.908
                            14 C    0.883
    14   6 C    3.887 --    16 F    0.997    15 F    0.980    17 F    0.969
                            13 C    0.883
    15   9 F    1.117 --    14 C    0.980
    16   9 F    1.140 --    14 C    0.997
    17   9 F    1.105 --    14 C    0.969
    18   9 F    1.117 --    13 C    0.993
    19   9 F    1.092 --    13 C    0.974
    20   9 F    1.115 --    12 C    0.991
    21   9 F    1.085 --    12 C    0.966
    22   9 F    1.113 --    11 C    0.991
    23   9 F    1.076 --    11 C    0.958
    24   9 F    1.115 --    10 C    0.994
    25   9 F    1.065 --    10 C    0.948
    26   9 F    1.091 --     9 C    0.976
    27   9 F    1.056 --     9 C    0.941
    28   1 H    0.987 --     1 C    0.968
    29   1 H    0.981 --     1 C    0.960
    30   1 H    0.983 --     1 C    0.945
    31   1 H    0.984 --     4 C    0.952
    32   1 H    0.980 --     6 C    0.946
    33   1 H    0.988 --     7 C    0.962
    34   1 H    0.985 --     7 C    0.953
    35   1 H    0.985 --     8 C    0.956
    36   1 H    0.986 --     8 C    0.957
 ---------------------------------------------------------------------------

molecular dipole:
                 x           y           z       tot (Debye)
 q only:        0.383       4.923       1.417
   full:        0.478       5.376       1.155      14.030

           -------------------------------------------------
          | TOTAL ENERGY              -97.990049040917 Eh   |
          | GRADIENT NORM               0.000921445609 Eh/α |
          | HOMO-LUMO GAP               4.506661145020 eV   |
           -------------------------------------------------

 * finished run on 2024/12/20 at 02:13:53.609
