   * xtb version 6.7.1 (edcfbbe) compiled by 'conda@3ef47c1a292c' on 2024-11-25

   ID    Z sym.   atoms
    1    6 C      1-16, 18-23
    2    7 N      17
    3    1 H      24-63

          program call               : xtb C0286.xyz --opt --namespace C0286 --charge +1
          :  Hamiltonian                  GFN2-xTB          :
 * total energy  :   -70.0623150 Eh     change       -0.1653164E-07 Eh
 * total energy  :   -70.0656857 Eh     change       -0.3370674E-02 Eh
 * total energy  :   -70.0662373 Eh     change       -0.5516830E-03 Eh
 * total energy  :   -70.0663634 Eh     change       -0.1260903E-03 Eh
 * total energy  :   -70.0665488 Eh     change       -0.1853572E-03 Eh
 * total energy  :   -70.0667010 Eh     change       -0.1521811E-03 Eh
 * total energy  :   -70.0668723 Eh     change       -0.1713181E-03 Eh
 * total energy  :   -70.0670685 Eh     change       -0.1961820E-03 Eh
 * total energy  :   -70.0672364 Eh     change       -0.1679743E-03 Eh
 * total energy  :   -70.0673713 Eh     change       -0.1348661E-03 Eh
 * total energy  :   -70.0698488 Eh     change       -0.1151492E-04 Eh
 * total energy  :   -70.0698557 Eh     change       -0.6856666E-05 Eh
 * total energy  :   -70.0698719 Eh     change       -0.1620710E-04 Eh
 * total energy  :   -70.0698813 Eh     change       -0.9369462E-05 Eh
 * total energy  :   -70.0698919 Eh     change       -0.1067662E-04 Eh
 * total energy  :   -70.0699037 Eh     change       -0.1177174E-04 Eh
 * total energy  :   -70.0699128 Eh     change       -0.9055064E-05 Eh
 * total energy  :   -70.0699191 Eh     change       -0.6309860E-05 Eh
 * total energy  :   -70.0699241 Eh     change       -0.4987139E-05 Eh
   *** GEOMETRY OPTIMIZATION CONVERGED AFTER 53 ITERATIONS ***

 final structure:
================
63
 xtb: 6.7.1 (edcfbbe)
C            1.25445500215845        0.61830476080253        0.24246819998349
C            1.08158161887429        0.56528527590098       -1.27053810499411
C            1.55826177200477       -0.75029260407334       -1.88768030885221
C            0.80658586101520       -1.99730616147478       -1.41629389016479
C           -0.70466501903959       -1.97001288090878       -1.65144057652165
C           -1.12936216843426       -1.77232864562409       -3.10752290585698
C           -0.65426536654329       -2.85939665210507       -4.07319369791875
C           -1.15590322019860       -4.27054975968522       -3.75870234029917
C           -2.67725559250966       -4.41444363479985       -3.67872961360520
C           -3.43519969687250       -3.97109323794340       -4.93132406934063
C           -3.09665264706847       -4.75248004293147       -6.20214685314371
C           -3.40784475312754       -6.24948611588449       -6.14280883297409
C           -4.86417017268715       -6.59704243238511       -5.82138381567749
C           -5.90115864529245       -5.95467847569717       -6.74679928493360
C           -5.75533098663119       -6.31392286807361       -8.22504124112195
C           -6.06825148552273       -7.78350935402295       -8.54204664097146
N           -7.47181397261493       -8.06879654434394       -8.30658679644058
C           -7.86572071717580       -8.59965476340576       -7.14607978268431
C           -9.20676726835857       -8.80293304573977       -6.88264948073659
C          -10.14933535966373       -8.44672157074396       -7.83141384623912
C           -9.73285853852845       -7.88836239115281       -9.04473531497022
C           -8.37174572423753       -7.71707634766665       -9.23387405112607
C          -10.71343258729725       -7.50076153444847      -10.09331184956502
H            0.61790215098738       -0.11168274270008        0.73603809968782
H            0.99056684693977        1.60466424563443        0.61717645016144
H            2.28766409797563        0.41439592429519        0.51483983662010
H            0.03365881582913        0.73637728121074       -1.52361426924692
H            1.65895004804318        1.37784301160926       -1.71885048998287
H            1.48307868984788       -0.67328904413114       -2.97462864857285
H            2.61589201903173       -0.88377819680077       -1.64604049914180
H            1.23543660912394       -2.86546516075438       -1.92190816996278
H            0.98122235476302       -2.13493789469675       -0.34737725462043
H           -1.12541759730603       -2.90566039093815       -1.27590678528610
H           -1.14297550223606       -1.16452104418892       -1.05883765245306
H           -2.21955948370930       -1.71040358167666       -3.14057094692046
H           -0.74715591817391       -0.81337173108533       -3.46243898723406
H           -0.96799190466736       -2.58116501440215       -5.08218352313120
H            0.43692483893462       -2.88228061051231       -4.07685347465482
H           -0.76610233099302       -4.94932444257251       -4.52110052633619
H           -0.73726947349154       -4.59387222433803       -2.80388535394268
H           -2.91190367245177       -5.45903089661347       -3.46025452482785
H           -3.04545792685872       -3.82509675777286       -2.83713156730723
H           -4.50654051540914       -4.04651116881157       -4.72924984455641
H           -3.22311993620123       -2.91765430229513       -5.11910878487281
H           -3.63456739243901       -4.29954551409902       -7.03889710846325
H           -2.03262757208948       -4.64075442521475       -6.41444477297135
H           -3.12276603157545       -6.69965163579124       -7.09735918021134
H           -2.78099986836250       -6.71203480990257       -5.37936013987446
H           -4.96413714255852       -7.68619720188306       -5.83519768172935
H           -5.08639253477874       -6.27498619081293       -4.80346476731261
H           -6.90390348880529       -6.22160913879307       -6.39712912284225
H           -5.81783076723306       -4.87168640292017       -6.66000443373658
H           -6.41535588527711       -5.67545251396814       -8.81644961450441
H           -4.73322814535324       -6.11859438112237       -8.54585585557799
H           -5.83879019067126       -7.98894541505720       -9.58942264149382
H           -5.46001696089954       -8.43614481706995       -7.91570458751073
H           -7.10130565160017       -8.86800112662103       -6.43329463365018
H           -9.50348365387098       -9.23584089536566       -5.94118500187790
H          -11.20090298471890       -8.59835325128638       -7.64315269545199
H           -7.98786466901176       -7.29110530604849      -10.14957362461447
H          -11.19738202312981       -8.39048995072306      -10.49545390900406
H          -11.49487674093992       -6.87416350497498       -9.66796099675066
H          -10.23711083888410       -6.96764975047858      -10.91052721777663

          :  Hamiltonian                  GFN2-xTB          :
         :: total energy             -70.069924054639 Eh    ::
         :: gradient norm              0.000401704176 Eh/a0 ::
         :: HOMO-LUMO gap              0.248492009573 eV    ::
         :: SCC energy               -71.163416812035 Eh    ::
         :: -> dispersion             -0.053965255589 Eh    ::
         :: repulsion energy           1.093492757396 Eh    ::

    * Orbital Energies and Occupations

         #    Occupation            Energy/Eh            Energy/eV
      -------------------------------------------------------------
         1        2.0000           -0.8670473             -23.5936
       ...           ...                  ...                  ...
        54        2.0000           -0.5144412             -13.9987
        55        2.0000           -0.5084757             -13.8363
        56        2.0000           -0.5052607             -13.7488
        57        2.0000           -0.4986558             -13.5691
        58        2.0000           -0.4929280             -13.4133
        59        2.0000           -0.4890092             -13.3066
        60        2.0000           -0.4848201             -13.1926
        61        2.0000           -0.4753675             -12.9354
        62        2.0000           -0.4737373             -12.8910
        63        2.0000           -0.4713870             -12.8271
        64        2.0000           -0.4613610             -12.5543
        65        1.9968           -0.4560849             -12.4107
        66        1.9853           -0.4546410             -12.3714 (HOMO)
        67        0.0179           -0.4455090             -12.1229 (LUMO)
        68                         -0.4119791             -11.2105
        69                         -0.2955807              -8.0432
        70                         -0.1602614              -4.3609
        71                         -0.0747342              -2.0336
        72                         -0.0595681              -1.6209
        73                         -0.0400601              -1.0901
        74                         -0.0343791              -0.9355
        75                         -0.0299163              -0.8141
        76                         -0.0094153              -0.2562
        77                         -0.0057167              -0.1556
       ...                                ...                  ...
       132                          0.4506125              12.2618
      -------------------------------------------------------------
                  HL-Gap            0.0091319 Eh            0.2485 eV

     #   Z          covCN         q      C6AA      α(0)
     1   6 C        3.751    -0.102    22.509     6.766
     2   6 C        3.799    -0.052    21.508     6.603
     3   6 C        3.800    -0.057    21.602     6.617
     4   6 C        3.800    -0.057    21.595     6.616
     5   6 C        3.800    -0.056    21.587     6.615
     6   6 C        3.800    -0.057    21.597     6.617
     7   6 C        3.800    -0.057    21.601     6.617
     8   6 C        3.800    -0.057    21.602     6.618
     9   6 C        3.800    -0.057    21.607     6.618
    10   6 C        3.800    -0.059    21.628     6.621
    11   6 C        3.800    -0.060    21.660     6.626
    12   6 C        3.800    -0.061    21.676     6.629
    13   6 C        3.800    -0.061    21.671     6.628
    14   6 C        3.800    -0.065    21.749     6.640
    15   6 C        3.801    -0.068    21.810     6.649
    16   6 C        3.760    -0.034    21.224     6.568
    17   7 N        2.749     0.107    19.409     6.543
    18   6 C        2.891     0.027    27.401     8.582
    19   6 C        2.913    -0.016    28.407     8.740
    20   6 C        2.930    -0.005    28.139     8.700
    21   6 C        2.961     0.048    26.923     8.511
    22   6 C        2.900     0.016    27.654     8.622
    23   6 C        3.759    -0.133    23.100     6.852
    24   1 H        0.925     0.035     2.519     2.482
    25   1 H        0.925     0.033     2.549     2.497
    26   1 H        0.925     0.035     2.513     2.479
    27   1 H        0.924     0.031     2.572     2.508
    28   1 H        0.924     0.029     2.604     2.523
    29   1 H        0.924     0.029     2.602     2.523
    30   1 H        0.924     0.031     2.575     2.510
    31   1 H        0.924     0.028     2.609     2.526
    32   1 H        0.924     0.034     2.535     2.490
    33   1 H        0.924     0.027     2.624     2.533
    34   1 H        0.924     0.033     2.548     2.496
    35   1 H        0.924     0.026     2.644     2.543
    36   1 H        0.924     0.034     2.532     2.488
    37   1 H        0.924     0.025     2.652     2.546
    38   1 H        0.924     0.035     2.520     2.483
    39   1 H        0.924     0.026     2.651     2.546
    40   1 H        0.924     0.035     2.520     2.483
    41   1 H        0.924     0.024     2.668     2.555
    42   1 H        0.924     0.036     2.508     2.477
    43   1 H        0.924     0.023     2.695     2.567
    44   1 H        0.924     0.039     2.457     2.451
    45   1 H        0.924     0.023     2.682     2.561
    46   1 H        0.924     0.043     2.406     2.426
    47   1 H        0.924     0.024     2.673     2.557
    48   1 H        0.924     0.046     2.369     2.407
    49   1 H        0.924     0.017     2.777     2.606
    50   1 H        0.924     0.050     2.322     2.383
    51   1 H        0.924     0.021     2.718     2.578
    52   1 H        0.925     0.065     2.143     2.289
    53   1 H        0.924     0.049     2.334     2.389
    54   1 H        0.925     0.083     1.951     2.184
    55   1 H        0.924     0.085     1.924     2.169
    56   1 H        0.925     0.093     1.852     2.128
    57   1 H        0.926     0.105     1.742     2.064
    58   1 H        0.926     0.101     1.777     2.085
    59   1 H        0.926     0.098     1.799     2.098
    60   1 H        0.926     0.100     1.787     2.090
    61   1 H        0.925     0.096     1.820     2.109
    62   1 H        0.925     0.093     1.848     2.126
    63   1 H        0.925     0.077     2.015     2.220

Wiberg/Mayer (AO) data.
largest (>0.10) Wiberg bond orders for each atom

     #   Z sym  total        # sym  WBO       # sym  WBO       # sym  WBO
 ---------------------------------------------------------------------------
     1   6 C    3.995 --     2 C    1.020    25 H    0.987    26 H    0.987
                            24 H    0.985
     2   6 C    3.994 --     1 C    1.020     3 C    1.008    28 H    0.977
                            27 H    0.975
     3   6 C    3.994 --     2 C    1.008     4 C    1.006    30 H    0.976
                            29 H    0.974
     4   6 C    3.993 --     5 C    1.007     3 C    1.006    31 H    0.975
                            32 H    0.974
     5   6 C    3.995 --     4 C    1.007     6 C    1.007    34 H    0.974
                            33 H    0.974
     6   6 C    3.995 --     7 C    1.008     5 C    1.007    35 H    0.974
                            36 H    0.973
     7   6 C    3.996 --     6 C    1.008     8 C    1.007    37 H    0.975
                            38 H    0.974
     8   6 C    3.996 --     9 C    1.007     7 C    1.007    39 H    0.976
                            40 H    0.975
     9   6 C    3.997 --    10 C    1.008     8 C    1.007    41 H    0.975
                            42 H    0.974
    10   6 C    3.997 --     9 C    1.008    11 C    1.008    43 H    0.975
                            44 H    0.973
    11   6 C    3.996 --    10 C    1.008    12 C    1.007    45 H    0.975
                            46 H    0.973
    12   6 C    3.995 --    11 C    1.007    13 C    1.007    47 H    0.975
                            48 H    0.973
    13   6 C    3.995 --    14 C    1.007    12 C    1.007    49 H    0.974
                            50 H    0.973
    14   6 C    3.993 --    15 C    1.009    13 C    1.007    51 H    0.973
                            52 H    0.966
    15   6 C    3.981 --    14 C    1.009    16 C    0.974    53 H    0.974
                            54 H    0.961
    16   6 C    3.935 --    15 C    0.974    17 N    0.965    55 H    0.962
                            56 H    0.961
    17   7 N    3.756 --    18 C    1.329    22 C    1.315    16 C    0.965
    18   6 C    3.953 --    19 C    1.440    17 N    1.329    57 H    0.954
    19   6 C    3.982 --    20 C    1.448    18 C    1.440    58 H    0.960
    20   6 C    3.965 --    19 C    1.448    21 C    1.364    59 H    0.962
    21   6 C    3.981 --    22 C    1.426    20 C    1.364    23 C    1.045
    22   6 C    3.953 --    21 C    1.426    17 N    1.315    60 H    0.954
    23   6 C    3.983 --    21 C    1.045    63 H    0.980    62 H    0.958
                            61 H    0.949
    24   1 H    0.998 --     1 C    0.985
    25   1 H    0.999 --     1 C    0.987
    26   1 H    0.998 --     1 C    0.987
    27   1 H    0.998 --     2 C    0.975
    28   1 H    0.997 --     2 C    0.977
    29   1 H    0.998 --     3 C    0.974
    30   1 H    0.998 --     3 C    0.976
    31   1 H    0.998 --     4 C    0.975
    32   1 H    0.997 --     4 C    0.974
    33   1 H    0.998 --     5 C    0.974
    34   1 H    0.998 --     5 C    0.974
    35   1 H    0.999 --     6 C    0.974
    36   1 H    0.998 --     6 C    0.973
    37   1 H    0.999 --     7 C    0.975
    38   1 H    0.999 --     7 C    0.974
    39   1 H    0.999 --     8 C    0.976
    40   1 H    0.999 --     8 C    0.975
    41   1 H    0.999 --     9 C    0.975
    42   1 H    0.999 --     9 C    0.974
    43   1 H    0.999 --    10 C    0.975
    44   1 H    0.998 --    10 C    0.973
    45   1 H    0.999 --    11 C    0.975
    46   1 H    0.998 --    11 C    0.973
    47   1 H    0.999 --    12 C    0.975
    48   1 H    0.998 --    12 C    0.973
    49   1 H    1.000 --    13 C    0.974
    50   1 H    0.998 --    13 C    0.973
    51   1 H    1.000 --    14 C    0.973
    52   1 H    0.995 --    14 C    0.966
    53   1 H    0.998 --    15 C    0.974
    54   1 H    0.992 --    15 C    0.961
    55   1 H    0.992 --    16 C    0.962
    56   1 H    0.991 --    16 C    0.961
    57   1 H    0.988 --    18 C    0.954
    58   1 H    0.989 --    19 C    0.960
    59   1 H    0.990 --    20 C    0.962
    60   1 H    0.990 --    22 C    0.954
    61   1 H    0.990 --    23 C    0.949
    62   1 H    0.991 --    23 C    0.958
    63   1 H    0.994 --    23 C    0.980
 ---------------------------------------------------------------------------

molecular dipole:
                 x           y           z       tot (Debye)
 q only:      -14.737     -14.396     -15.232
   full:      -14.762     -14.506     -15.261      65.359

           -------------------------------------------------
          | TOTAL ENERGY              -70.069924054639 Eh   |
          | GRADIENT NORM               0.000401704176 Eh/α |
          | HOMO-LUMO GAP               0.248492009573 eV   |
           -------------------------------------------------

 * finished run on 2024/12/20 at 02:13:51.411
