   * xtb version 6.7.1 (edcfbbe) compiled by 'conda@3ef47c1a292c' on 2024-11-25

   ID    Z sym.   atoms
    1    6 C      1, 2, 4, 6, 8, 9, 11-23
    2    8 O      3, 5
    3    7 N      7, 10
    4    1 H      24-44

          program call               : xtb C0285.xyz --opt --namespace C0285 --charge +1
          :  Hamiltonian                  GFN2-xTB          :
 * total energy  :   -65.0288304 Eh     change       -0.6617711E-09 Eh
 * total energy  :   -65.0372362 Eh     change       -0.8405836E-02 Eh
 * total energy  :   -65.0385837 Eh     change       -0.1347429E-02 Eh
 * total energy  :   -65.0387451 Eh     change       -0.1614600E-03 Eh
 * total energy  :   -65.0388415 Eh     change       -0.9632961E-04 Eh
 * total energy  :   -65.0388853 Eh     change       -0.4379426E-04 Eh
 * total energy  :   -65.0389366 Eh     change       -0.5137641E-04 Eh
 * total energy  :   -65.0389873 Eh     change       -0.5066297E-04 Eh
 * total energy  :   -65.0390384 Eh     change       -0.5115408E-04 Eh
 * total energy  :   -65.0390920 Eh     change       -0.5358339E-04 Eh
 * total energy  :   -65.0410860 Eh     change       -0.5981784E-04 Eh
 * total energy  :   -65.0411068 Eh     change       -0.2082535E-04 Eh
 * total energy  :   -65.0411241 Eh     change       -0.1726061E-04 Eh
 * total energy  :   -65.0411393 Eh     change       -0.1524271E-04 Eh
 * total energy  :   -65.0411355 Eh     change        0.3803290E-05 Eh
 * total energy  :   -65.0411554 Eh     change       -0.1984171E-04 Eh
 * total energy  :   -65.0411658 Eh     change       -0.1043905E-04 Eh
 * total energy  :   -65.0411745 Eh     change       -0.8708204E-05 Eh
 * total energy  :   -65.0411779 Eh     change       -0.3394313E-05 Eh
   *** GEOMETRY OPTIMIZATION CONVERGED AFTER 45 ITERATIONS ***

 final structure:
================
44
 xtb: 6.7.1 (edcfbbe)
C            0.52819596455365       -0.80844665236284       -0.38437988026866
C            0.32643962881830        0.30385813866244       -1.39875389915630
O            1.06321322964185        0.03620479628584       -2.60785435632576
C            2.32682652279292        0.43967186515236       -2.65843577004659
O            2.91830574037303        1.04685288311326       -1.81974472586894
C            2.95817760693838        0.01767669287659       -4.00569946837585
N            2.48023492012495       -1.27554818744642       -4.40497560142350
C            1.35127022407665       -1.53710233645552       -5.07767165713811
C            0.49020429972698       -0.51543523423756       -5.70023851507912
N            1.12676381142756       -2.85461755679271       -5.09737251719376
C            2.13828839440099       -3.48346356849451       -4.39539736453927
C            3.00282411723357       -2.47113579428990       -3.94515187241778
C            4.12890198058076       -2.76105896367428       -3.18686623988771
C            4.36397022885964       -4.09133384366318       -2.90297008896024
C            3.50931410369519       -5.09984695541213       -3.35402711514229
C            2.38466640299650       -4.81907760917874       -4.10331711469833
C           -0.07224298522383       -3.49275725746042       -5.60208764286800
C           -1.26839510491459       -3.08958521402905       -4.76752415295794
C           -2.41937476273926       -2.59559468868306       -5.36374396162902
C           -3.50115075215720       -2.22070934163847       -4.58481931899829
C           -3.43460812223521       -2.32699003744237       -3.20660015751709
C           -2.28743681951419       -2.81965785338821       -2.60657009199697
C           -1.20882823647006       -3.20228634368909       -3.38344998726388
H            0.23640610666111       -1.76697677809436       -0.80724405530052
H           -0.08230430311696       -0.60864547756691        0.49057858431188
H            1.57001487837309       -0.85569564485105       -0.07646416527651
H           -0.71573057276939        0.36766101896023       -1.71661590248603
H            0.65667032939700        1.26295855117428       -0.99176935119402
H            2.70022673358021        0.77245097133094       -4.75210371274844
H            4.04292824406139       -0.00181167310429       -3.88781082850780
H           -0.11326919196594       -0.02569742816863       -4.93493058155291
H            1.08998008346887        0.24618060679602       -6.19577235385862
H           -0.18121936820978       -0.96073048472965       -6.42736438700105
H            4.78933517455497       -1.98859338532922       -2.82881720356340
H            5.22788474389117       -4.36061852683748       -2.31690132867808
H            3.73436789368836       -6.12498934883106       -3.10726928588764
H            1.73292180740615       -5.60847251283931       -4.44051432524124
H           -0.22311801758537       -3.22295635511667       -6.65063764560776
H            0.08180765702943       -4.57247588988495       -5.55028077644336
H           -2.47985963352899       -2.51655283692948       -6.43986525484821
H           -4.39546397811087       -1.84537671975867       -5.05687076434919
H           -4.27699046207601       -2.03301331322850       -2.60037341954381
H           -2.23693267204612       -2.91426009246897       -1.53218218416703
H           -0.31948584569420       -3.59916161826662       -2.91262955830412

          :  Hamiltonian                  GFN2-xTB          :
         :: total energy             -65.041177929370 Eh    ::
         :: gradient norm              0.000769656840 Eh/a0 ::
         :: HOMO-LUMO gap              3.058596373535 eV    ::
         :: SCC energy               -66.053067952701 Eh    ::
         :: -> dispersion             -0.048303537933 Eh    ::
         :: repulsion energy           1.011890023331 Eh    ::

    * Orbital Energies and Occupations

         #    Occupation            Energy/Eh            Energy/eV
      -------------------------------------------------------------
         1        2.0000           -0.8786937             -23.9105
       ...           ...                  ...                  ...
        47        2.0000           -0.5873069             -15.9814
        48        2.0000           -0.5776112             -15.7176
        49        2.0000           -0.5760134             -15.6741
        50        2.0000           -0.5685903             -15.4721
        51        2.0000           -0.5669008             -15.4262
        52        2.0000           -0.5594614             -15.2237
        53        2.0000           -0.5535043             -15.0616
        54        2.0000           -0.5456236             -14.8472
        55        2.0000           -0.5410883             -14.7238
        56        2.0000           -0.5354984             -14.5717
        57        2.0000           -0.5333722             -14.5138
        58        2.0000           -0.5196567             -14.1406
        59        2.0000           -0.5175639             -14.0836 (HOMO)
        60                         -0.4051625             -11.0250 (LUMO)
        61                         -0.3618296              -9.8459
        62                         -0.3587044              -9.7608
        63                         -0.3505834              -9.5399
        64                         -0.3414429              -9.2911
        65                         -0.3377258              -9.1900
        66                         -0.2331229              -6.3436
        67                         -0.2131106              -5.7990
        68                         -0.1678686              -4.5679
        69                         -0.1373250              -3.7368
        70                         -0.1227109              -3.3391
       ...                                ...                  ...
       113                          0.5618928              15.2899
      -------------------------------------------------------------
                  HL-Gap            0.1124013 Eh            3.0586 eV

     #   Z          covCN         q      C6AA      α(0)
     1   6 C        3.751    -0.119    22.842     6.816
     2   6 C        3.696     0.071    19.548     6.325
     3   8 O        1.702    -0.269    18.465     5.802
     4   6 C        2.710     0.360    20.896     7.483
     5   8 O        0.856    -0.355    20.794     6.114
     6   6 C        3.741    -0.048    21.510     6.617
     7   7 N        2.832     0.013    21.018     6.809
     8   6 C        3.073     0.128    25.128     8.219
     9   6 C        3.755    -0.135    23.161     6.862
    10   7 N        2.832     0.013    21.024     6.810
    11   6 C        3.096     0.040    26.984     8.513
    12   6 C        3.097     0.037    27.049     8.524
    13   6 C        2.909    -0.034    28.854     8.808
    14   6 C        2.926    -0.019    28.479     8.752
    15   6 C        2.925    -0.020    28.501     8.755
    16   6 C        2.909    -0.033    28.833     8.805
    17   6 C        3.747    -0.019    20.984     6.534
    18   6 C        2.972    -0.002    28.065     8.690
    19   6 C        2.923    -0.036    28.908     8.817
    20   6 C        2.920    -0.023    28.568     8.765
    21   6 C        2.920    -0.023    28.583     8.767
    22   6 C        2.919    -0.025    28.629     8.774
    23   6 C        2.923    -0.037    28.912     8.818
    24   1 H        0.925     0.053     2.287     2.365
    25   1 H        0.925     0.071     2.070     2.250
    26   1 H        0.925     0.064     2.152     2.294
    27   1 H        0.924     0.067     2.114     2.274
    28   1 H        0.924     0.076     2.023     2.225
    29   1 H        0.924     0.103     1.755     2.072
    30   1 H        0.924     0.112     1.683     2.029
    31   1 H        0.924     0.109     1.701     2.040
    32   1 H        0.925     0.093     1.849     2.126
    33   1 H        0.925     0.096     1.821     2.110
    34   1 H        0.926     0.070     2.081     2.256
    35   1 H        0.926     0.079     1.988     2.205
    36   1 H        0.926     0.078     1.997     2.210
    37   1 H        0.926     0.068     2.109     2.271
    38   1 H        0.924     0.076     2.020     2.223
    39   1 H        0.924     0.088     1.901     2.156
    40   1 H        0.926     0.041     2.434     2.440
    41   1 H        0.926     0.057     2.239     2.340
    42   1 H        0.926     0.056     2.245     2.343
    43   1 H        0.926     0.049     2.334     2.389
    44   1 H        0.925     0.027     2.626     2.534

Wiberg/Mayer (AO) data.
largest (>0.10) Wiberg bond orders for each atom

     #   Z sym  total        # sym  WBO       # sym  WBO       # sym  WBO
 ---------------------------------------------------------------------------
     1   6 C    3.988 --     2 C    1.015    24 H    0.985    26 H    0.984
                            25 H    0.979
     2   6 C    3.905 --     1 C    1.015    27 H    0.971    28 H    0.969
                             3 O    0.911
     3   8 O    2.316 --     4 C    1.159     2 C    0.911     5 O    0.188
     4   6 C    3.934 --     5 O    1.795     3 O    1.159     6 C    0.915
     5   8 O    2.101 --     4 C    1.795     3 O    0.188
     6   6 C    3.952 --     7 N    0.994    30 H    0.957    29 H    0.943
                             4 C    0.915
     7   7 N    3.653 --     8 C    1.316    12 C    1.110     6 C    0.994
     8   6 C    3.956 --    10 N    1.337     7 N    1.316     9 C    1.051
     9   6 C    3.977 --     8 C    1.051    33 H    0.967    32 H    0.957
                            31 H    0.938
    10   7 N    3.658 --     8 C    1.337    11 C    1.117    17 C    0.964
    11   6 C    3.954 --    16 C    1.344    12 C    1.278    10 N    1.117
    12   6 C    3.951 --    13 C    1.348    11 C    1.278     7 N    1.110
    13   6 C    3.985 --    14 C    1.487    12 C    1.348    34 H    0.963
                            16 C    0.118
    14   6 C    3.983 --    13 C    1.487    15 C    1.384    35 H    0.966
    15   6 C    3.983 --    16 C    1.488    14 C    1.384    36 H    0.966
    16   6 C    3.984 --    15 C    1.488    11 C    1.344    37 H    0.961
                            13 C    0.118
    17   6 C    3.942 --    18 C    0.984    10 N    0.964    38 H    0.958
                            39 H    0.955
    18   6 C    3.979 --    19 C    1.419    23 C    1.411    17 C    0.984
                            21 C    0.109
    19   6 C    3.990 --    20 C    1.438    18 C    1.419    40 H    0.968
                            22 C    0.110
    20   6 C    3.990 --    21 C    1.443    19 C    1.438    41 H    0.969
                            23 C    0.112
    21   6 C    3.990 --    20 C    1.443    22 C    1.435    42 H    0.969
                            18 C    0.109
    22   6 C    3.991 --    23 C    1.448    21 C    1.435    43 H    0.969
                            19 C    0.110
    23   6 C    3.992 --    22 C    1.448    18 C    1.411    44 H    0.969
                            20 C    0.112
    24   1 H    0.997 --     1 C    0.985
    25   1 H    0.994 --     1 C    0.979
    26   1 H    0.996 --     1 C    0.984
    27   1 H    0.995 --     2 C    0.971
    28   1 H    0.994 --     2 C    0.969
    29   1 H    0.989 --     6 C    0.943
    30   1 H    0.987 --     6 C    0.957
    31   1 H    0.984 --     9 C    0.938
    32   1 H    0.989 --     9 C    0.957
    33   1 H    0.990 --     9 C    0.967
    34   1 H    0.994 --    13 C    0.963
    35   1 H    0.993 --    14 C    0.966
    36   1 H    0.993 --    15 C    0.966
    37   1 H    0.995 --    16 C    0.961
    38   1 H    0.993 --    17 C    0.958
    39   1 H    0.992 --    17 C    0.955
    40   1 H    0.998 --    19 C    0.968
    41   1 H    0.996 --    20 C    0.969
    42   1 H    0.996 --    21 C    0.969
    43   1 H    0.997 --    22 C    0.969
    44   1 H    0.999 --    23 C    0.969
 ---------------------------------------------------------------------------

molecular dipole:
                 x           y           z       tot (Debye)
 q only:        1.923      -4.239      -8.289
   full:        1.901      -4.184      -8.503      24.568

           -------------------------------------------------
          | TOTAL ENERGY              -65.041177929370 Eh   |
          | GRADIENT NORM               0.000769656840 Eh/α |
          | HOMO-LUMO GAP               3.058596373535 eV   |
           -------------------------------------------------

 * finished run on 2024/12/20 at 02:13:47.967
