   * xtb version 6.7.1 (edcfbbe) compiled by 'conda@3ef47c1a292c' on 2024-11-25

   ID    Z sym.   atoms
    1    6 C      1-8, 10, 11, 13-16
    2    7 N      9, 12
    3    1 H      17-43

          program call               : xtb C0284.xyz --opt --namespace C0284 --charge +1
          :  Hamiltonian                  GFN2-xTB          :
 * total energy  :   -49.2445896 Eh     change       -0.2760459E-10 Eh
 * total energy  :   -49.2484694 Eh     change       -0.3879838E-02 Eh
 * total energy  :   -49.2493279 Eh     change       -0.8584444E-03 Eh
 * total energy  :   -49.2495267 Eh     change       -0.1988497E-03 Eh
 * total energy  :   -49.2497114 Eh     change       -0.1847021E-03 Eh
 * total energy  :   -49.2497948 Eh     change       -0.8338720E-04 Eh
 * total energy  :   -49.2499213 Eh     change       -0.1264743E-03 Eh
 * total energy  :   -49.2500770 Eh     change       -0.1556706E-03 Eh
 * total energy  :   -49.2501930 Eh     change       -0.1160612E-03 Eh
 * total energy  :   -49.2502799 Eh     change       -0.8685420E-04 Eh
 * total energy  :   -49.2513388 Eh     change       -0.8105961E-05 Eh
 * total energy  :   -49.2513450 Eh     change       -0.6154295E-05 Eh
 * total energy  :   -49.2513503 Eh     change       -0.5365781E-05 Eh
 * total energy  :   -49.2513562 Eh     change       -0.5913424E-05 Eh
 * total energy  :   -49.2513635 Eh     change       -0.7223966E-05 Eh
 * total energy  :   -49.2513711 Eh     change       -0.7581953E-05 Eh
 * total energy  :   -49.2513777 Eh     change       -0.6691058E-05 Eh
 * total energy  :   -49.2513834 Eh     change       -0.5630396E-05 Eh
 * total energy  :   -49.2513856 Eh     change       -0.2220265E-05 Eh
   *** GEOMETRY OPTIMIZATION CONVERGED AFTER 44 ITERATIONS ***

 final structure:
================
43
 xtb: 6.7.1 (edcfbbe)
C            1.00989901632652       -0.05926682701153        0.84445362776665
C            0.78450671158236        1.34278730398005        1.39779140042897
C            1.12853399722538        2.44853009600731        0.39834882308424
C            0.28408799084445        2.44812685518193       -0.87764675307377
C           -1.22030274582521        2.62618414873495       -0.65850926756234
C           -1.62071450930519        3.90643750530730        0.08025113604541
C           -1.12728802865844        5.20300728059287       -0.56312445070552
C           -1.67038913654040        5.45067595527606       -1.97606918433357
N           -3.09447120625577        5.69434614487599       -1.96131120885505
C           -4.07246373587248        4.75078082806348       -2.03361899688070
C           -5.26802673004446        5.39555456563031       -1.92883049783754
N           -5.00180371440445        6.72355884934494       -1.79602235364540
C           -3.68104013997425        6.87884062642828       -1.80959280030475
C           -5.98460147314160        7.76361886725256       -1.59836739335549
C           -6.41659468658318        7.84519740972522       -0.12917272926725
C           -5.27548266401941        8.25611081382442        0.79163940351659
H            0.31544415421796       -0.28534896789005        0.03902891500299
H            0.86630966622891       -0.79857909118288        1.62827955034978
H            2.02383381783318       -0.15885480876266        0.46416865470553
H           -0.25115277883690        1.44280059773159        1.72880521148143
H            1.41811220466456        1.47831317302619        2.27681980447868
H            1.03991813792576        3.41545730128935        0.89896450456765
H            2.17417677030232        2.33381704915326        0.10459541469266
H            0.65621961718887        3.23500896792363       -1.53860176429081
H            0.43545878111071        1.50260324813359       -1.39969061542607
H           -1.71252915091777        2.58307911875538       -1.63429372196208
H           -1.59648262932524        1.78039017889214       -0.08218431106934
H           -2.71031088107671        3.93259476120361        0.17667696006975
H           -1.21588755177494        3.86618770337837        1.09144053314567
H           -1.40025656347975        6.04683150202439        0.07499666689529
H           -0.04062514706340        5.18150763293935       -0.62993111250445
H           -1.17880287636762        6.32341324675571       -2.41038895027976
H           -1.47473811076479        4.58462059865213       -2.60906651132786
H           -3.86222258537582        3.70895611114966       -2.16286022426820
H           -6.26531386046945        5.00620577977641       -1.94726392982715
H           -3.16764678122517        7.81720518516229       -1.72891736910629
H           -5.54948064653058        8.71460073662255       -1.91150030322152
H           -6.84796088892226        7.54375530659583       -2.22953017800868
H           -7.21845246297033        8.58007329897230       -0.06345312030886
H           -6.82039587555963        6.88159222387961        0.18591227286204
H           -4.86364182170109        9.21671917240265        0.49153098365614
H           -5.64132935436597        8.35187013806078        1.80940921539754
H           -4.47747212810556        7.51559941212481        0.79409466928844

          :  Hamiltonian                  GFN2-xTB          :
         :: total energy             -49.251385594592 Eh    ::
         :: gradient norm              0.000158300362 Eh/a0 ::
         :: HOMO-LUMO gap              2.513170932649 eV    ::
         :: SCC energy               -49.996249232989 Eh    ::
         :: -> dispersion             -0.034426665869 Eh    ::
         :: repulsion energy           0.744863638397 Eh    ::

    * Orbital Energies and Occupations

         #    Occupation            Energy/Eh            Energy/eV
      -------------------------------------------------------------
         1        2.0000           -0.8907275             -24.2379
       ...           ...                  ...                  ...
        34        2.0000           -0.5830770             -15.8663
        35        2.0000           -0.5741523             -15.6235
        36        2.0000           -0.5709159             -15.5354
        37        2.0000           -0.5679199             -15.4539
        38        2.0000           -0.5649704             -15.3736
        39        2.0000           -0.5542920             -15.0831
        40        2.0000           -0.5494620             -14.9516
        41        2.0000           -0.5346364             -14.5482
        42        2.0000           -0.5277828             -14.3617
        43        2.0000           -0.5231864             -14.2366
        44        2.0000           -0.5026106             -13.6767
        45        2.0000           -0.4986308             -13.5684
        46        2.0000           -0.4942122             -13.4482 (HOMO)
        47                         -0.4018549             -10.9350 (LUMO)
        48                         -0.3657717              -9.9532
        49                         -0.1792810              -4.8785
        50                         -0.1258602              -3.4248
        51                         -0.0601460              -1.6367
        52                         -0.0565250              -1.5381
        53                         -0.0464550              -1.2641
        54                         -0.0421772              -1.1477
        55                         -0.0313440              -0.8529
        56                         -0.0222144              -0.6045
        57                         -0.0144022              -0.3919
       ...                                ...                  ...
        91                          0.4686919              12.7538
      -------------------------------------------------------------
                  HL-Gap            0.0923573 Eh            2.5132 eV

     #   Z          covCN         q      C6AA      α(0)
     1   6 C        3.751    -0.105    22.570     6.775
     2   6 C        3.799    -0.054    21.551     6.610
     3   6 C        3.801    -0.061    21.673     6.628
     4   6 C        3.800    -0.062    21.692     6.631
     5   6 C        3.800    -0.061    21.680     6.629
     6   6 C        3.800    -0.065    21.745     6.639
     7   6 C        3.801    -0.069    21.812     6.649
     8   6 C        3.742    -0.027    21.135     6.559
     9   7 N        2.868     0.068    20.048     6.650
    10   6 C        3.075    -0.005    28.065     8.686
    11   6 C        3.074    -0.008    28.142     8.698
    12   7 N        2.868     0.069    20.035     6.648
    13   6 C        3.104     0.046    26.829     8.487
    14   6 C        3.742    -0.028    21.143     6.560
    15   6 C        3.801    -0.066    21.763     6.642
    16   6 C        3.752    -0.116    22.779     6.806
    17   1 H        0.925     0.033     2.544     2.494
    18   1 H        0.925     0.039     2.460     2.453
    19   1 H        0.925     0.039     2.456     2.451
    20   1 H        0.924     0.028     2.615     2.529
    21   1 H        0.924     0.035     2.512     2.479
    22   1 H        0.924     0.026     2.643     2.542
    23   1 H        0.924     0.040     2.454     2.450
    24   1 H        0.924     0.024     2.669     2.555
    25   1 H        0.924     0.046     2.366     2.406
    26   1 H        0.924     0.018     2.768     2.602
    27   1 H        0.924     0.050     2.319     2.381
    28   1 H        0.924     0.024     2.667     2.554
    29   1 H        0.925     0.061     2.186     2.312
    30   1 H        0.924     0.045     2.384     2.414
    31   1 H        0.925     0.078     1.997     2.210
    32   1 H        0.924     0.078     1.997     2.210
    33   1 H        0.924     0.095     1.829     2.115
    34   1 H        0.926     0.108     1.713     2.047
    35   1 H        0.926     0.105     1.741     2.063
    36   1 H        0.926     0.110     1.696     2.036
    37   1 H        0.924     0.085     1.930     2.173
    38   1 H        0.924     0.088     1.897     2.154
    39   1 H        0.925     0.076     2.022     2.223
    40   1 H        0.924     0.058     2.222     2.331
    41   1 H        0.925     0.051     2.309     2.376
    42   1 H        0.925     0.068     2.108     2.271
    43   1 H        0.925     0.033     2.548     2.496

Wiberg/Mayer (AO) data.
largest (>0.10) Wiberg bond orders for each atom

     #   Z sym  total        # sym  WBO       # sym  WBO       # sym  WBO
 ---------------------------------------------------------------------------
     1   6 C    3.996 --     2 C    1.020    19 H    0.987    18 H    0.987
                            17 H    0.986
     2   6 C    3.998 --     1 C    1.020     3 C    1.008    21 H    0.978
                            20 H    0.976
     3   6 C    3.997 --     2 C    1.008     4 C    1.008    23 H    0.976
                            22 H    0.975
     4   6 C    3.996 --     3 C    1.008     5 C    1.007    24 H    0.975
                            25 H    0.973
     5   6 C    3.995 --     4 C    1.007     6 C    1.007    26 H    0.973
                            27 H    0.973
     6   6 C    3.993 --     7 C    1.008     5 C    1.007    28 H    0.975
                            29 H    0.970
     7   6 C    3.983 --     6 C    1.008     8 C    0.981    30 H    0.975
                            31 H    0.963
     8   6 C    3.935 --     7 C    0.981     9 N    0.968    32 H    0.966
                            33 H    0.959
     9   7 N    3.718 --    13 C    1.360    10 C    1.230     8 C    0.968
    10   6 C    3.950 --    11 C    1.586     9 N    1.230    34 H    0.959
    11   6 C    3.950 --    10 C    1.586    12 N    1.230    35 H    0.962
    12   7 N    3.718 --    13 C    1.360    11 C    1.230    14 C    0.970
    13   6 C    3.948 --    12 N    1.360     9 N    1.360    36 H    0.954
    14   6 C    3.938 --    15 C    0.983    12 N    0.970    37 H    0.966
                            38 H    0.963
    15   6 C    3.985 --    16 C    1.022    14 C    0.983    40 H    0.975
                            39 H    0.968
    16   6 C    3.992 --    15 C    1.022    43 H    0.986    41 H    0.986
                            42 H    0.981
    17   1 H    0.999 --     1 C    0.986
    18   1 H    0.998 --     1 C    0.987
    19   1 H    0.998 --     1 C    0.987
    20   1 H    0.999 --     2 C    0.976
    21   1 H    0.999 --     2 C    0.978
    22   1 H    0.999 --     3 C    0.975
    23   1 H    0.998 --     3 C    0.976
    24   1 H    0.999 --     4 C    0.975
    25   1 H    0.998 --     4 C    0.973
    26   1 H    1.000 --     5 C    0.973
    27   1 H    0.997 --     5 C    0.973
    28   1 H    0.999 --     6 C    0.975
    29   1 H    0.996 --     6 C    0.970
    30   1 H    0.998 --     7 C    0.975
    31   1 H    0.993 --     7 C    0.963
    32   1 H    0.994 --     8 C    0.966
    33   1 H    0.990 --     8 C    0.959
    34   1 H    0.988 --    10 C    0.959
    35   1 H    0.989 --    11 C    0.962
    36   1 H    0.988 --    13 C    0.954
    37   1 H    0.993 --    14 C    0.966
    38   1 H    0.992 --    14 C    0.963
    39   1 H    0.993 --    15 C    0.968
    40   1 H    0.997 --    15 C    0.975
    41   1 H    0.997 --    16 C    0.986
    42   1 H    0.995 --    16 C    0.981
    43   1 H    0.999 --    16 C    0.986
 ---------------------------------------------------------------------------

molecular dipole:
                 x           y           z       tot (Debye)
 q only:       -7.275      11.539      -2.791
   full:       -7.298      11.642      -2.923      35.706

           -------------------------------------------------
          | TOTAL ENERGY              -49.251385594592 Eh   |
          | GRADIENT NORM               0.000158300362 Eh/α |
          | HOMO-LUMO GAP               2.513170932649 eV   |
           -------------------------------------------------

 * finished run on 2024/12/20 at 02:13:45.762
