   * xtb version 6.7.1 (edcfbbe) compiled by 'conda@3ef47c1a292c' on 2024-11-25

   ID    Z sym.   atoms
    1    6 C      1, 3, 4, 7
    2    7 N      2, 5, 6
    3    1 H      8-15

          program call               : xtb C0294.xyz --opt --namespace C0294 --charge +1
          :  Hamiltonian                  GFN2-xTB          :
 * total energy  :   -20.9813319 Eh     change       -0.1877609E-10 Eh
 * total energy  :   -20.9894188 Eh     change       -0.8086977E-02 Eh
 * total energy  :   -20.9905065 Eh     change       -0.1087681E-02 Eh
 * total energy  :   -20.9906657 Eh     change       -0.1592220E-03 Eh
 * total energy  :   -20.9907493 Eh     change       -0.8354325E-04 Eh
 * total energy  :   -20.9907558 Eh     change       -0.6494447E-05 Eh
 * total energy  :   -20.9907646 Eh     change       -0.8794534E-05 Eh
 * total energy  :   -20.9907734 Eh     change       -0.8864206E-05 Eh
 * total energy  :   -20.9907997 Eh     change       -0.2627039E-04 Eh
 * total energy  :   -20.9908137 Eh     change       -0.1403170E-04 Eh
 * total energy  :   -20.9908265 Eh     change       -0.1277124E-04 Eh
 * total energy  :   -20.9906995 Eh     change        0.1270252E-03 Eh
 * total energy  :   -20.9908374 Eh     change       -0.1379341E-03 Eh
 * total energy  :   -20.9908433 Eh     change       -0.5837668E-05 Eh
 * total energy  :   -20.9908465 Eh     change       -0.3191143E-05 Eh
   *** GEOMETRY OPTIMIZATION CONVERGED AFTER 15 ITERATIONS ***

 final structure:
================
15
 xtb: 6.7.1 (edcfbbe)
C            0.91697338516298       -0.02437136354673       -0.11827254396357
N            0.58655411589117        1.32036119141063       -0.48412091661528
C            1.09464358093526        2.46672210831078        0.01240314417418
C            0.45072136921184        3.47417658666342       -0.66586930296407
N           -0.39249759882326        2.85391482330179       -1.51568196128491
N           -0.30191432937544        1.56350866089408       -1.39748672988947
C           -1.30253834755399        3.44653094079872       -2.45035643773167
H            0.33173408325149       -0.70130217185094       -0.73681013382619
H            0.68471935079827       -0.19832838426328        0.93236157108383
H            1.97910844501517       -0.20957842755768       -0.27707868127446
H            1.84374421527240        2.50053918270302        0.77666708305947
H            0.54407881840177        4.53823789985605       -0.59196011591286
H           -1.12199256635067        3.04093041943574       -3.44626699913677
H           -2.32951485480087        3.20741087635461       -2.17025861287774
H           -1.16933966703609        4.52547765748980       -2.46154936284052

          :  Hamiltonian                  GFN2-xTB          :
         :: total energy             -20.990846452478 Eh    ::
         :: gradient norm              0.000776128646 Eh/a0 ::
         :: HOMO-LUMO gap              4.624467379933 eV    ::
         :: SCC energy               -21.277467815961 Eh    ::
         :: -> dispersion             -0.008406537221 Eh    ::
         :: repulsion energy           0.286621363483 Eh    ::

    * Orbital Energies and Occupations

         #    Occupation            Energy/Eh            Energy/eV
      -------------------------------------------------------------
         1        2.0000           -0.9444463             -25.6997
       ...           ...                  ...                  ...
         7        2.0000           -0.7962298             -21.6665
         8        2.0000           -0.7774454             -21.1554
         9        2.0000           -0.7345346             -19.9877
        10        2.0000           -0.7225901             -19.6627
        11        2.0000           -0.7125849             -19.3904
        12        2.0000           -0.6998863             -19.0449
        13        2.0000           -0.6915261             -18.8174
        14        2.0000           -0.6590509             -17.9337
        15        2.0000           -0.6570257             -17.8786
        16        2.0000           -0.6526661             -17.7599
        17        2.0000           -0.6310196             -17.1709
        18        2.0000           -0.6268400             -17.0572
        19        2.0000           -0.6223375             -16.9347 (HOMO)
        20                         -0.4523915             -12.3102 (LUMO)
        21                         -0.4014124             -10.9230
        22                         -0.2019410              -5.4951
        23                         -0.1556602              -4.2357
        24                         -0.0894053              -2.4328
        25                         -0.0613614              -1.6697
        26                         -0.0268747              -0.7313
        27                         -0.0135721              -0.3693
        28                         -0.0029776              -0.0810
        29                          0.0112512               0.3062
        30                          0.0366813               0.9981
       ...                                ...                  ...
        36                          0.4402149              11.9789
      -------------------------------------------------------------
                  HL-Gap            0.1699460 Eh            4.6245 eV

     #   Z          covCN         q      C6AA      α(0)
     1   6 C        3.695    -0.100    22.596     6.800
     2   7 N        3.035     0.172    18.359     6.364
     3   6 C        3.018    -0.007    28.164     8.705
     4   6 C        3.019    -0.005    28.116     8.698
     5   7 N        3.034     0.171    18.380     6.367
     6   7 N        2.163    -0.101    23.711     7.226
     7   6 C        3.694    -0.099    22.570     6.797
     8   1 H        0.925     0.127     1.558     1.952
     9   1 H        0.925     0.119     1.624     1.993
    10   1 H        0.925     0.118     1.626     1.994
    11   1 H        0.926     0.121     1.602     1.979
    12   1 H        0.926     0.120     1.610     1.984
    13   1 H        0.924     0.125     1.573     1.961
    14   1 H        0.924     0.124     1.579     1.965
    15   1 H        0.925     0.113     1.674     2.024

Wiberg/Mayer (AO) data.
largest (>0.10) Wiberg bond orders for each atom

     #   Z sym  total        # sym  WBO       # sym  WBO       # sym  WBO
 ---------------------------------------------------------------------------
     1   6 C    3.921 --     2 N    0.990     8 H    0.969    10 H    0.955
                             9 H    0.953
     2   7 N    3.766 --     6 N    1.329     3 C    1.298     1 C    0.990
     3   6 C    3.956 --     4 C    1.513     2 N    1.298    11 H    0.958
                             6 N    0.116
     4   6 C    3.956 --     3 C    1.513     5 N    1.299    12 H    0.958
                             6 N    0.114
     5   7 N    3.764 --     6 N    1.324     4 C    1.299     7 C    0.990
     6   7 N    3.002 --     2 N    1.329     5 N    1.324     3 C    0.116
                             4 C    0.114
     7   6 C    3.922 --     5 N    0.990    15 H    0.972    13 H    0.955
                            14 H    0.951
     8   1 H    0.984 --     1 C    0.969
     9   1 H    0.985 --     1 C    0.953
    10   1 H    0.985 --     1 C    0.955
    11   1 H    0.985 --     3 C    0.958
    12   1 H    0.985 --     4 C    0.958
    13   1 H    0.984 --     7 C    0.955
    14   1 H    0.984 --     7 C    0.951
    15   1 H    0.987 --     7 C    0.972
 ---------------------------------------------------------------------------

molecular dipole:
                 x           y           z       tot (Debye)
 q only:        0.335       4.135      -1.730
   full:        0.530       4.388      -1.531      11.889

           -------------------------------------------------
          | TOTAL ENERGY              -20.990846452478 Eh   |
          | GRADIENT NORM               0.000776128646 Eh/α |
          | HOMO-LUMO GAP               4.624467379933 eV   |
           -------------------------------------------------

 * finished run on 2024/12/20 at 02:14:09.218
