   * xtb version 6.7.1 (edcfbbe) compiled by 'conda@3ef47c1a292c' on 2024-11-25

   ID    Z sym.   atoms
    1    8 O      1, 16
    2    6 C      2-9, 11, 13-15, 19
    3    7 N      10, 12, 17, 18
    4    1 H      20-34

          program call               : xtb C0299.xyz --opt --namespace C0299 --charge +1
          :  Hamiltonian                  GFN2-xTB          :
 * total energy  :   -54.9161742 Eh     change       -0.1339465E-08 Eh
 * total energy  :   -54.9258099 Eh     change       -0.9635735E-02 Eh
 * total energy  :   -54.9293336 Eh     change       -0.3523643E-02 Eh
 * total energy  :   -54.9301110 Eh     change       -0.7774042E-03 Eh
 * total energy  :   -54.9305766 Eh     change       -0.4656499E-03 Eh
 * total energy  :   -54.9308748 Eh     change       -0.2981740E-03 Eh
 * total energy  :   -54.9311857 Eh     change       -0.3108555E-03 Eh
 * total energy  :   -54.9315416 Eh     change       -0.3559272E-03 Eh
 * total energy  :   -54.9319600 Eh     change       -0.4183757E-03 Eh
 * total energy  :   -54.9324401 Eh     change       -0.4801227E-03 Eh
 * total energy  :   -54.9386321 Eh     change       -0.3186186E-04 Eh
 * total energy  :   -54.9386498 Eh     change       -0.1771808E-04 Eh
 * total energy  :   -54.9386731 Eh     change       -0.2330251E-04 Eh
 * total energy  :   -54.9386817 Eh     change       -0.8649015E-05 Eh
 * total energy  :   -54.9386894 Eh     change       -0.7641386E-05 Eh
 * total energy  :   -54.9386961 Eh     change       -0.6707024E-05 Eh
 * total energy  :   -54.9387005 Eh     change       -0.4401438E-05 Eh
 * total energy  :   -54.9387028 Eh     change       -0.2337188E-05 Eh
 * total energy  :   -54.9387058 Eh     change       -0.2931765E-05 Eh
   *** GEOMETRY OPTIMIZATION CONVERGED AFTER 44 ITERATIONS ***

 final structure:
================
34
 xtb: 6.7.1 (edcfbbe)
O            2.14501324751863       -1.41865313446234       -1.55715584658054
C            3.09870907248858       -0.94243124409023       -0.98122325790331
C            3.46513727883349       -1.23734192069316        0.40015337421490
C            4.60064476659299       -0.71263941502127        1.02743989095347
C            4.88175818858556       -1.05322784680576        2.33584845009122
C            4.04413693844793       -1.91079611422966        3.03574804918072
C            2.91594596406913       -2.43582886173396        2.42321458689398
C            2.62782113999299       -2.10382157236975        1.11566099096005
C            4.01738998106682        0.03116612486458       -1.76285414056057
N            3.35058123367359        0.38060269720800       -2.98281294098768
C            2.95625915790539       -0.50846988591024       -3.87689407738499
N            2.18163661398247        0.08705124050112       -4.79686986116768
C            2.05114022031506        1.40967784676817       -4.45577875362140
C            2.76904093302620        1.59659537403420       -3.28406479131746
C            2.98267949590855        2.81114687682300       -2.46368107773994
O            3.93506433394199        2.92557618693585       -1.72250916454400
N            2.06040629250408        3.78699298439521       -2.64646495692151
N            1.30556573505784        2.28176778437329       -5.17764743253298
C            1.56425598695745       -0.55324105991772       -5.92913671799578
H            5.26588415401285       -0.04364364022802        0.50567500831292
H            5.75813002590718       -0.64684831670282        2.81643939600534
H            4.27280412214256       -2.16904883897077        4.05824421059426
H            2.26500131264034       -3.10353384399661        2.96574068326689
H            1.75592651743723       -2.50327233960253        0.62009826135894
H            4.22237736876040        0.94568211664697       -1.20280534477716
H            4.95787130889406       -0.48264453699124       -1.97776996832015
H            3.22457164777815       -1.54584603344633       -3.88582630323821
H            1.13611079951236        3.58159534066358       -2.98497656968393
H            2.16011996716723        4.60221991846067       -2.05896758055308
H            1.03490801749804        2.00314090407236       -6.10772127789196
H            1.52697674066489        3.26014796254932       -5.07562620663128
H            1.92930315125879       -0.11949565210603       -6.86219147387202
H            1.80924068155848       -1.61234639486818       -5.91725554588551
H            0.47991760389404       -0.44473270612961       -5.87879961171091

          :  Hamiltonian                  GFN2-xTB          :
         :: total energy             -54.938705757544 Eh    ::
         :: gradient norm              0.000357065232 Eh/a0 ::
         :: HOMO-LUMO gap              3.122550848530 eV    ::
         :: SCC energy               -55.734829650546 Eh    ::
         :: -> dispersion             -0.033042310738 Eh    ::
         :: repulsion energy           0.796123893002 Eh    ::

    * Orbital Energies and Occupations

         #    Occupation            Energy/Eh            Energy/eV
      -------------------------------------------------------------
         1        2.0000           -0.8790025             -23.9189
       ...           ...                  ...                  ...
        37        2.0000           -0.5979617             -16.2714
        38        2.0000           -0.5909791             -16.0814
        39        2.0000           -0.5863446             -15.9552
        40        2.0000           -0.5849558             -15.9175
        41        2.0000           -0.5818776             -15.8337
        42        2.0000           -0.5503056             -14.9746
        43        2.0000           -0.5442582             -14.8100
        44        2.0000           -0.5325402             -14.4912
        45        2.0000           -0.5289033             -14.3922
        46        2.0000           -0.5263890             -14.3238
        47        2.0000           -0.5182823             -14.1032
        48        2.0000           -0.5177981             -14.0900
        49        2.0000           -0.5138047             -13.9813 (HOMO)
        50                         -0.3990530             -10.8588 (LUMO)
        51                         -0.3940740             -10.7233
        52                         -0.3707350             -10.0882
        53                         -0.3302094              -8.9855
        54                         -0.3021638              -8.2223
        55                         -0.2896870              -7.8828
        56                         -0.1928674              -5.2482
        57                         -0.1688854              -4.5956
        58                         -0.1616107              -4.3977
        59                         -0.0979479              -2.6653
        60                         -0.0897269              -2.4416
       ...                                ...                  ...
        91                          0.5602746              15.2458
      -------------------------------------------------------------
                  HL-Gap            0.1147516 Eh            3.1226 eV

     #   Z          covCN         q      C6AA      α(0)
     1   8 O        0.857    -0.366    21.020     6.147
     2   6 C        2.824     0.227    23.227     7.897
     3   6 C        2.970    -0.016    28.411     8.743
     4   6 C        2.919    -0.026    28.654     8.778
     5   6 C        2.917    -0.019    28.480     8.751
     6   6 C        2.920    -0.008    28.208     8.710
     7   6 C        2.916    -0.019    28.480     8.751
     8   6 C        2.927    -0.010    28.270     8.720
     9   6 C        3.746    -0.058    21.686     6.642
    10   7 N        2.852     0.071    20.002     6.643
    11   6 C        3.055     0.057    26.677     8.470
    12   7 N        2.849     0.025    20.813     6.776
    13   6 C        3.012     0.115    25.448     8.275
    14   6 C        3.093    -0.039    28.860     8.805
    15   6 C        2.745     0.287    22.136     7.704
    16   8 O        0.859    -0.410    21.879     6.271
    17   7 N        2.640    -0.274    27.098     7.731
    18   7 N        2.634    -0.257    26.671     7.670
    19   6 C        3.691    -0.078    22.184     6.740
    20   1 H        0.926     0.050     2.317     2.380
    21   1 H        0.926     0.062     2.178     2.308
    22   1 H        0.926     0.066     2.134     2.285
    23   1 H        0.926     0.063     2.159     2.298
    24   1 H        0.926     0.071     2.070     2.250
    25   1 H        0.924     0.138     1.478     1.901
    26   1 H        0.924     0.101     1.773     2.082
    27   1 H        0.926     0.119     1.621     1.991
    28   1 H        0.860     0.198     1.117     1.656
    29   1 H        0.860     0.221     1.006     1.571
    30   1 H        0.860     0.207     1.071     1.621
    31   1 H        0.860     0.210     1.056     1.610
    32   1 H        0.924     0.091     1.872     2.140
    33   1 H        0.925     0.102     1.768     2.080
    34   1 H        0.924     0.100     1.789     2.092

Wiberg/Mayer (AO) data.
largest (>0.10) Wiberg bond orders for each atom

     #   Z sym  total        # sym  WBO       # sym  WBO       # sym  WBO
 ---------------------------------------------------------------------------
     1   8 O    2.096 --     2 C    1.795
     2   6 C    3.929 --     1 O    1.795     3 C    1.079     9 C    0.928
     3   6 C    3.982 --     4 C    1.353     8 C    1.349     2 C    1.079
     4   6 C    3.990 --     5 C    1.471     3 C    1.353    20 H    0.965
                             7 C    0.102
     5   6 C    3.990 --     4 C    1.471     6 C    1.419    21 H    0.968
     6   6 C    3.985 --     7 C    1.426     5 C    1.419    22 H    0.968
     7   6 C    3.989 --     8 C    1.465     6 C    1.426    23 H    0.967
                             4 C    0.102
     8   6 C    3.985 --     7 C    1.465     3 C    1.349    24 H    0.965
     9   6 C    3.935 --    10 N    0.992    26 H    0.939    25 H    0.932
                             2 C    0.928
    10   7 N    3.709 --    11 C    1.392    14 C    1.150     9 C    0.992
    11   6 C    3.943 --    10 N    1.392    12 N    1.289    27 H    0.952
    12   7 N    3.660 --    11 C    1.289    13 C    1.171    19 C    0.989
    13   6 C    3.959 --    14 C    1.400    18 N    1.217    12 N    1.171
    14   6 C    3.919 --    13 C    1.400    10 N    1.150    15 C    1.012
    15   6 C    3.963 --    16 O    1.670    17 N    1.239    14 C    1.012
    16   8 O    2.033 --    15 C    1.670    17 N    0.197
    17   7 N    3.364 --    15 C    1.239    28 H    0.937    29 H    0.932
                            16 O    0.197
    18   7 N    3.304 --    13 C    1.217    30 H    0.933    31 H    0.929
    19   6 C    3.938 --    12 N    0.989    33 H    0.974    34 H    0.966
                            32 H    0.966
    20   1 H    0.997 --     4 C    0.965
    21   1 H    0.996 --     5 C    0.968
    22   1 H    0.995 --     6 C    0.968
    23   1 H    0.995 --     7 C    0.967
    24   1 H    0.995 --     8 C    0.965
    25   1 H    0.981 --     9 C    0.932
    26   1 H    0.989 --     9 C    0.939
    27   1 H    0.985 --    11 C    0.952
    28   1 H    0.961 --    17 N    0.937
    29   1 H    0.951 --    17 N    0.932
    30   1 H    0.957 --    18 N    0.933
    31   1 H    0.956 --    18 N    0.929
    32   1 H    0.991 --    19 C    0.966
    33   1 H    0.989 --    19 C    0.974
    34   1 H    0.989 --    19 C    0.966
 ---------------------------------------------------------------------------

molecular dipole:
                 x           y           z       tot (Debye)
 q only:        4.524       0.965      -6.504
   full:        4.525       1.015      -6.748      20.811

           -------------------------------------------------
          | TOTAL ENERGY              -54.938705757544 Eh   |
          | GRADIENT NORM               0.000357065232 Eh/α |
          | HOMO-LUMO GAP               3.122550848530 eV   |
           -------------------------------------------------

 * finished run on 2024/12/20 at 02:14:24.899
