   * xtb version 6.7.1 (edcfbbe) compiled by 'conda@3ef47c1a292c' on 2024-11-25

   ID    Z sym.   atoms
    1    6 C      1-3, 5-10, 13, 14
    2    7 N      4
    3    8 O      11, 12
    4    1 H      15-30

          program call               : xtb C0296.xyz --opt --namespace C0296 --charge +1
          :  Hamiltonian                  GFN2-xTB          :
 * total energy  :   -42.3677013 Eh     change       -0.1004480E-08 Eh
 * total energy  :   -42.3732062 Eh     change       -0.5504859E-02 Eh
 * total energy  :   -42.3742735 Eh     change       -0.1067311E-02 Eh
 * total energy  :   -42.3745264 Eh     change       -0.2528876E-03 Eh
 * total energy  :   -42.3746453 Eh     change       -0.1188908E-03 Eh
 * total energy  :   -42.3746937 Eh     change       -0.4841758E-04 Eh
 * total energy  :   -42.3747417 Eh     change       -0.4801186E-04 Eh
 * total energy  :   -42.3747928 Eh     change       -0.5106381E-04 Eh
 * total energy  :   -42.3748295 Eh     change       -0.3674862E-04 Eh
 * total energy  :   -42.3748583 Eh     change       -0.2875243E-04 Eh
 * total energy  :   -42.3748438 Eh     change        0.1444251E-04 Eh
 * total energy  :   -42.3748684 Eh     change       -0.2459212E-04 Eh
 * total energy  :   -42.3748850 Eh     change       -0.1651851E-04 Eh
 * total energy  :   -42.3748967 Eh     change       -0.1172481E-04 Eh
 * total energy  :   -42.3749062 Eh     change       -0.9504109E-05 Eh
 * total energy  :   -42.3749116 Eh     change       -0.5417320E-05 Eh
 * total energy  :   -42.3749130 Eh     change       -0.1385349E-05 Eh
   *** GEOMETRY OPTIMIZATION CONVERGED AFTER 17 ITERATIONS ***

 final structure:
================
30
 xtb: 6.7.1 (edcfbbe)
C            0.12893007084474       -2.45194944928651       -0.07903863481599
C           -0.07510015046281       -2.29763741055059       -1.58132641230045
C            0.72632956209604       -1.11743724217397       -2.14487935305957
N            0.34613955965222        0.15279979378526       -1.54316992661694
C           -0.91863436773525        0.58550481369720       -1.63968915079133
C           -1.30299992559003        1.79370184720194       -1.09783245571073
C           -0.36285031797327        2.57758151823074       -0.44066714179152
C            0.94322346237631        2.11337802630266       -0.35463709290023
C            1.26722046837804        0.89623381160086       -0.91711427927059
C            0.58363166061780       -1.00448693835795       -3.69130581501120
O            1.53809922274201       -0.86611349805026       -4.39611959659257
O           -0.67882669196441       -1.07500439160807       -4.05928998538340
C           -0.96767731106740       -0.98710406631672       -5.47292701729720
C           -1.09132404871774        0.46011023778491       -5.91594561012401
H            1.18186532495940       -2.57976966074934        0.15946357227032
H           -0.40163353461465       -3.33228601750595        0.27083681706158
H           -0.25209867995186       -1.59195262193758        0.46842203734554
H            0.27390109478842       -3.19794402433919       -2.08880606658264
H           -1.13482329905860       -2.18403187750553       -1.80919422449903
H            1.79144485006036       -1.27832586434101       -1.95057343750445
H           -1.61576816598499       -0.04569505734374       -2.16982424834249
H           -2.32808104441235        2.11528859978279       -1.19044570312914
H           -0.64056964529642        3.52606551260790       -0.00873819425795
H            1.70744808872669        2.68763790501322        0.14422729238186
H            2.27362408036691        0.50720191473239       -0.86909373950558
H           -0.17000226982715       -1.49238516811868       -6.02274563786932
H           -1.90854077303699       -1.52507869876392       -5.59480943037239
H           -0.14439577840365        0.97985601732553       -5.78977657227801
H           -1.35968507014807        0.48560658104049       -6.96738431155717
H           -1.86303637136482        0.97405540784353       -5.34734568149539

          :  Hamiltonian                  GFN2-xTB          :
         :: total energy             -42.374912983425 Eh    ::
         :: gradient norm              0.000512854363 Eh/a0 ::
         :: HOMO-LUMO gap              2.673257847568 eV    ::
         :: SCC energy               -42.969372253575 Eh    ::
         :: -> dispersion             -0.024775411414 Eh    ::
         :: repulsion energy           0.594459270150 Eh    ::

    * Orbital Energies and Occupations

         #    Occupation            Energy/Eh            Energy/eV
      -------------------------------------------------------------
         1        2.0000           -0.8936756             -24.3182
       ...           ...                  ...                  ...
        26        2.0000           -0.6331682             -17.2294
        27        2.0000           -0.6306934             -17.1620
        28        2.0000           -0.6242738             -16.9874
        29        2.0000           -0.6230061             -16.9529
        30        2.0000           -0.6200089             -16.8713
        31        2.0000           -0.6166172             -16.7790
        32        2.0000           -0.6110195             -16.6267
        33        2.0000           -0.5870942             -15.9756
        34        2.0000           -0.5841922             -15.8967
        35        2.0000           -0.5797403             -15.7755
        36        2.0000           -0.5770721             -15.7029
        37        2.0000           -0.5663936             -15.4124
        38        2.0000           -0.5595344             -15.2257 (HOMO)
        39                         -0.4612940             -12.5524 (LUMO)
        40                         -0.4297765             -11.6948
        41                         -0.3800781             -10.3425
        42                         -0.3093250              -8.4172
        43                         -0.1729315              -4.7057
        44                         -0.1575496              -4.2871
        45                         -0.0926980              -2.5224
        46                         -0.0690693              -1.8795
        47                         -0.0500479              -1.3619
        48                         -0.0414770              -1.1286
        49                         -0.0302718              -0.8237
       ...                                ...                  ...
        72                          0.5349578              14.5569
      -------------------------------------------------------------
                  HL-Gap            0.0982404 Eh            2.6733 eV

     #   Z          covCN         q      C6AA      α(0)
     1   6 C        3.752    -0.118    22.823     6.813
     2   6 C        3.801    -0.066    21.758     6.641
     3   6 C        3.806    -0.018    20.883     6.506
     4   7 N        2.751     0.109    19.365     6.536
     5   6 C        2.890     0.032    27.282     8.563
     6   6 C        2.916    -0.010    28.267     8.718
     7   6 C        2.924     0.013    27.715     8.633
     8   6 C        2.916    -0.009    28.238     8.714
     9   6 C        2.890     0.034    27.236     8.556
    10   6 C        2.713     0.356    20.960     7.494
    11   8 O        0.856    -0.355    20.797     6.114
    12   8 O        1.702    -0.250    18.150     5.752
    13   6 C        3.697     0.067    19.614     6.335
    14   6 C        3.751    -0.121    22.890     6.823
    15   1 H        0.925     0.057     2.234     2.338
    16   1 H        0.925     0.075     2.030     2.228
    17   1 H        0.925     0.038     2.482     2.464
    18   1 H        0.924     0.080     1.975     2.198
    19   1 H        0.925     0.068     2.104     2.269
    20   1 H        0.924     0.102     1.771     2.081
    21   1 H        0.926     0.121     1.605     1.981
    22   1 H        0.926     0.108     1.714     2.047
    23   1 H        0.926     0.108     1.711     2.045
    24   1 H        0.926     0.111     1.690     2.033
    25   1 H        0.926     0.112     1.681     2.028
    26   1 H        0.924     0.079     1.994     2.208
    27   1 H        0.924     0.081     1.967     2.193
    28   1 H        0.925     0.062     2.176     2.307
    29   1 H        0.925     0.078     2.004     2.214
    30   1 H        0.925     0.056     2.248     2.345

Wiberg/Mayer (AO) data.
largest (>0.10) Wiberg bond orders for each atom

     #   Z sym  total        # sym  WBO       # sym  WBO       # sym  WBO
 ---------------------------------------------------------------------------
     1   6 C    3.989 --     2 C    1.018    17 H    0.987    15 H    0.985
                            16 H    0.979
     2   6 C    3.978 --     1 C    1.018     3 C    0.970    19 H    0.968
                            18 H    0.967
     3   6 C    3.936 --     2 C    0.970     4 N    0.957    20 H    0.955
                            10 C    0.888
     4   7 N    3.766 --     9 C    1.321     5 C    1.316     3 C    0.957
     5   6 C    3.953 --     6 C    1.467     4 N    1.316    21 H    0.947
     6   6 C    3.981 --     5 C    1.467     7 C    1.418    22 H    0.959
     7   6 C    3.963 --     8 C    1.422     6 C    1.418    23 H    0.961
     8   6 C    3.980 --     9 C    1.462     7 C    1.422    24 H    0.958
     9   6 C    3.955 --     8 C    1.462     4 N    1.321    25 H    0.952
    10   6 C    3.937 --    11 O    1.785    12 O    1.187     3 C    0.888
    11   8 O    2.102 --    10 C    1.785    12 O    0.195
    12   8 O    2.344 --    10 C    1.187    13 C    0.901    11 O    0.195
    13   6 C    3.895 --    14 C    1.016    27 H    0.969    26 H    0.968
                            12 O    0.901
    14   6 C    3.987 --    13 C    1.016    30 H    0.985    28 H    0.984
                            29 H    0.977
    15   1 H    0.997 --     1 C    0.985
    16   1 H    0.993 --     1 C    0.979
    17   1 H    0.999 --     1 C    0.987
    18   1 H    0.993 --     2 C    0.967
    19   1 H    0.995 --     2 C    0.968
    20   1 H    0.989 --     3 C    0.955
    21   1 H    0.985 --     5 C    0.947
    22   1 H    0.988 --     6 C    0.959
    23   1 H    0.988 --     7 C    0.961
    24   1 H    0.987 --     8 C    0.958
    25   1 H    0.988 --     9 C    0.952
    26   1 H    0.994 --    13 C    0.968
    27   1 H    0.993 --    13 C    0.969
    28   1 H    0.996 --    14 C    0.984
    29   1 H    0.993 --    14 C    0.977
    30   1 H    0.997 --    14 C    0.985
 ---------------------------------------------------------------------------

molecular dipole:
                 x           y           z       tot (Debye)
 q only:       -0.714       0.942      -2.876
   full:       -0.706       0.915      -2.840       7.793

           -------------------------------------------------
          | TOTAL ENERGY              -42.374912983425 Eh   |
          | GRADIENT NORM               0.000512854363 Eh/α |
          | HOMO-LUMO GAP               2.673257847568 eV   |
           -------------------------------------------------

 * finished run on 2024/12/20 at 02:14:14.027
