   * xtb version 6.7.1 (edcfbbe) compiled by 'conda@3ef47c1a292c' on 2024-11-25

   ID    Z sym.   atoms
    1    6 C      1-18, 20, 21, 23, 24
    2    7 N      19, 22
    3    1 H      25-65

          program call               : xtb C0295.xyz --opt --namespace C0295 --charge +1
          :  Hamiltonian                  GFN2-xTB          :
 * total energy  :   -73.4010806 Eh     change       -0.4244200E-08 Eh
 * total energy  :   -73.4075164 Eh     change       -0.6435808E-02 Eh
 * total energy  :   -73.4085323 Eh     change       -0.1015915E-02 Eh
 * total energy  :   -73.4087808 Eh     change       -0.2484918E-03 Eh
 * total energy  :   -73.4089173 Eh     change       -0.1364703E-03 Eh
 * total energy  :   -73.4089722 Eh     change       -0.5493615E-04 Eh
 * total energy  :   -73.4090293 Eh     change       -0.5710780E-04 Eh
 * total energy  :   -73.4090962 Eh     change       -0.6692903E-04 Eh
 * total energy  :   -73.4091759 Eh     change       -0.7971000E-04 Eh
 * total energy  :   -73.4092623 Eh     change       -0.8637016E-04 Eh
 * total energy  :   -73.4105835 Eh     change       -0.2692019E-04 Eh
 * total energy  :   -73.4105939 Eh     change       -0.1044286E-04 Eh
 * total energy  :   -73.4106056 Eh     change       -0.1164787E-04 Eh
 * total energy  :   -73.4106132 Eh     change       -0.7625198E-05 Eh
 * total energy  :   -73.4106246 Eh     change       -0.1137687E-04 Eh
 * total energy  :   -73.4106379 Eh     change       -0.1335461E-04 Eh
 * total energy  :   -73.4106505 Eh     change       -0.1257575E-04 Eh
 * total energy  :   -73.4106624 Eh     change       -0.1189092E-04 Eh
 * total energy  :   -73.4106666 Eh     change       -0.4167025E-05 Eh
   *** GEOMETRY OPTIMIZATION CONVERGED AFTER 68 ITERATIONS ***

 final structure:
================
65
 xtb: 6.7.1 (edcfbbe)
C            1.37746687912750       -0.06274602239230        0.28691542434782
C            0.93780357194231       -1.28422566057668       -0.51142997410313
C            1.08363771482041       -2.59584236729974        0.26175988186461
C            0.25463534771806       -2.68719712033298        1.54429214363460
C           -1.25726867028010       -2.50680678279613        1.34480720631167
C           -1.83024668010953       -3.51206257580136        0.39798978553630
C           -2.57506723583584       -4.54253829213487        0.76026538679101
C           -3.13684173610935       -5.56180413527071       -0.18761784055409
C           -2.60505782696479       -6.92493787012864        0.13368322268225
C           -3.34934661359939       -7.95383685266407        0.50171450840816
C           -2.81290912825247       -9.31211414638962        0.83274636227256
C           -2.84677319848301       -9.61036367820884        2.33841832123330
C           -4.23015656400476       -9.49107251378443        2.98098448266103
C           -5.31580875292379      -10.36319758945781        2.34767849538336
C           -5.01869792353802      -11.86410997030007        2.33742864081078
C           -4.77977804110019      -12.48848103784645        3.71452803814636
C           -5.93976049274229      -12.33707218450882        4.69990615825331
C           -7.21645331775317      -13.07310952331651        4.27780391474998
N           -7.05668023784615      -14.50551428787025        4.17888386736547
C           -6.55554931422795      -15.18088279285804        3.11946326857101
C           -6.17209711835631      -16.42336022587696        3.43478363408367
N           -6.34330783664511      -16.62664136256969        4.88819858129471
C           -6.93673560827810      -15.33459739194850        5.36193429554698
C           -5.07258897003002      -16.97656644170250        5.55476486216573
H            0.72601440028753        0.10380405213274        1.14103854413817
H            1.34691793340764        0.82657683018516       -0.33864415267729
H            2.39522584233047       -0.19108357653217        0.64946406079642
H           -0.09699331437279       -1.15475273919696       -0.83325008271446
H            1.55051855826297       -1.35451836263234       -1.41377677454409
H            0.81219718298079       -3.42368229763004       -0.39704077860632
H            2.13534048908027       -2.72629081148626        0.53044869555575
H            0.42825063870970       -3.66912443178008        1.99237445161459
H            0.60253065388649       -1.93670442403648        2.25629162347919
H           -1.74521291103774       -2.60280472703533        2.31763321820529
H           -1.45437387287776       -1.50136592345235        0.96781193388488
H           -1.59792561629591       -3.36226821723409       -0.64837763642836
H           -2.81352636826441       -4.70420917257183        1.80429670528295
H           -4.22814535859780       -5.56877419852320       -0.11500803851653
H           -2.85922214162232       -5.29521728912847       -1.21075051802429
H           -1.53006457506719       -7.02922675453330        0.05880809171011
H           -4.42346872533742       -7.83727847304665        0.57207060517062
H           -3.38919472237503      -10.06980273463236        0.29571455854495
H           -1.77639529990606       -9.38262678743083        0.49665369622298
H           -2.44331109438877      -10.61215372872486        2.50569274063387
H           -2.18288147135871       -8.90426575167436        2.84179157163861
H           -4.13886839378298       -9.73112781210502        4.04323546735209
H           -4.55521126878705       -8.45139786070927        2.91729829532614
H           -6.25683617963680      -10.17803932508058        2.87154752467720
H           -5.46517388028585      -10.04830567579472        1.31409681826804
H           -5.84857422392890      -12.37042848254788        1.83739277015921
H           -4.12858300429953      -12.04519963898051        1.73337805699020
H           -4.55083426551193      -13.55044608812447        3.57673465608670
H           -3.89784365681754      -12.02738008734104        4.15971646365520
H           -5.62110416089895      -12.69129276343093        5.68366080925648
H           -6.18875281252685      -11.28263848261140        4.80778635643741
H           -8.01327933165128      -12.87520931187061        4.99947943992006
H           -7.54663133206868      -12.71525645412079        3.30261103183690
H           -6.53074375441035      -14.73222913921656        2.14511178209699
H           -5.79276081145150      -17.22004524402211        2.83451322581101
H           -7.00014097257029      -17.39621041111515        5.05160724223797
H           -6.27935698174184      -14.87390659874827        6.10995894386498
H           -7.92213417797262      -15.50203227194454        5.81332211321084
H           -5.22373132069022      -17.09506449511013        6.62645636986942
H           -4.68852287212294      -17.90925525341132        5.14526744832829
H           -4.34274507285409      -16.18939425874238        5.37211000177274

          :  Hamiltonian                  GFN2-xTB          :
         :: total energy             -73.410666556852 Eh    ::
         :: gradient norm              0.000516073254 Eh/a0 ::
         :: HOMO-LUMO gap              1.808516169046 eV    ::
         :: SCC energy               -74.539239402193 Eh    ::
         :: -> dispersion             -0.053643672074 Eh    ::
         :: repulsion energy           1.128572845341 Eh    ::

    * Orbital Energies and Occupations

         #    Occupation            Energy/Eh            Energy/eV
      -------------------------------------------------------------
         1        2.0000           -0.8787544             -23.9121
       ...           ...                  ...                  ...
        57        2.0000           -0.4981515             -13.5554
        58        2.0000           -0.4974252             -13.5356
        59        2.0000           -0.4890767             -13.3085
        60        2.0000           -0.4861096             -13.2277
        61        2.0000           -0.4807810             -13.0827
        62        2.0000           -0.4763312             -12.9616
        63        2.0000           -0.4724790             -12.8568
        64        2.0000           -0.4686593             -12.7529
        65        2.0000           -0.4572139             -12.4414
        66        2.0000           -0.4544517             -12.3663
        67        2.0000           -0.4499600             -12.2440
        68        2.0000           -0.4373343             -11.9005
        69        2.0000           -0.4241852             -11.5427 (HOMO)
        70                         -0.3577234              -9.7341 (LUMO)
        71                         -0.2502870              -6.8107
        72                         -0.2399571              -6.5296
        73                         -0.2288494              -6.2273
        74                         -0.1737996              -4.7293
        75                         -0.1647541              -4.4832
        76                         -0.1253268              -3.4103
        77                         -0.1166929              -3.1754
        78                         -0.0654978              -1.7823
        79                         -0.0419733              -1.1422
        80                         -0.0313711              -0.8537
       ...                                ...                  ...
       137                          0.6082014              16.5500
      -------------------------------------------------------------
                  HL-Gap            0.0664617 Eh            1.8085 eV

     #   Z          covCN         q      C6AA      α(0)
     1   6 C        3.751    -0.102    22.501     6.765
     2   6 C        3.799    -0.051    21.497     6.601
     3   6 C        3.800    -0.056    21.586     6.615
     4   6 C        3.801    -0.053    21.523     6.605
     5   6 C        3.805    -0.057    21.596     6.616
     6   6 C        2.890    -0.040    28.996     8.828
     7   6 C        2.894    -0.044    29.085     8.842
     8   6 C        3.810    -0.057    21.595     6.615
     9   6 C        2.894    -0.037    28.917     8.817
    10   6 C        2.890    -0.048    29.199     8.859
    11   6 C        3.805    -0.057    21.603     6.617
    12   6 C        3.801    -0.054    21.551     6.610
    13   6 C        3.800    -0.058    21.627     6.621
    14   6 C        3.800    -0.060    21.648     6.625
    15   6 C        3.800    -0.060    21.658     6.626
    16   6 C        3.800    -0.061    21.668     6.628
    17   6 C        3.800    -0.071    21.860     6.657
    18   6 C        3.739    -0.019    20.995     6.538
    19   7 N        2.782    -0.059    22.384     7.027
    20   6 C        2.915     0.030    27.320     8.571
    21   6 C        2.906    -0.081    30.037     8.987
    22   7 N        3.606     0.056    20.266     6.686
    23   6 C        3.768     0.031    20.096     6.389
    24   6 C        3.692    -0.091    22.432     6.777
    25   1 H        0.925     0.034     2.525     2.485
    26   1 H        0.925     0.032     2.558     2.501
    27   1 H        0.925     0.033     2.541     2.493
    28   1 H        0.924     0.032     2.562     2.503
    29   1 H        0.924     0.027     2.628     2.535
    30   1 H        0.924     0.029     2.603     2.523
    31   1 H        0.924     0.029     2.604     2.524
    32   1 H        0.924     0.026     2.645     2.543
    33   1 H        0.924     0.035     2.523     2.484
    34   1 H        0.924     0.029     2.598     2.521
    35   1 H        0.924     0.042     2.422     2.434
    36   1 H        0.925     0.033     2.549     2.497
    37   1 H        0.925     0.024     2.666     2.553
    38   1 H        0.924     0.037     2.486     2.465
    39   1 H        0.924     0.043     2.412     2.429
    40   1 H        0.925     0.031     2.571     2.507
    41   1 H        0.925     0.026     2.648     2.545
    42   1 H        0.924     0.031     2.568     2.506
    43   1 H        0.924     0.034     2.526     2.486
    44   1 H        0.924     0.024     2.672     2.556
    45   1 H        0.924     0.036     2.509     2.477
    46   1 H        0.924     0.025     2.663     2.552
    47   1 H        0.924     0.042     2.425     2.435
    48   1 H        0.924     0.025     2.656     2.548
    49   1 H        0.924     0.045     2.385     2.415
    50   1 H        0.924     0.019     2.745     2.591
    51   1 H        0.924     0.045     2.384     2.415
    52   1 H        0.924     0.017     2.785     2.610
    53   1 H        0.924     0.053     2.284     2.363
    54   1 H        0.924     0.031     2.575     2.509
    55   1 H        0.925     0.070     2.088     2.260
    56   1 H        0.924     0.061     2.188     2.313
    57   1 H        0.925     0.084     1.938     2.177
    58   1 H        0.926     0.103     1.754     2.071
    59   1 H        0.927     0.087     1.912     2.162
    60   1 H        0.859     0.223     0.995     1.563
    61   1 H        0.924     0.100     1.785     2.089
    62   1 H        0.924     0.092     1.863     2.134
    63   1 H        0.925     0.098     1.803     2.100
    64   1 H        0.925     0.108     1.712     2.046
    65   1 H        0.925     0.108     1.717     2.049

Wiberg/Mayer (AO) data.
largest (>0.10) Wiberg bond orders for each atom

     #   Z sym  total        # sym  WBO       # sym  WBO       # sym  WBO
 ---------------------------------------------------------------------------
     1   6 C    3.997 --     2 C    1.020    27 H    0.988    26 H    0.987
                            25 H    0.986
     2   6 C    3.998 --     1 C    1.020     3 C    1.008    29 H    0.978
                            28 H    0.976
     3   6 C    3.998 --     4 C    1.008     2 C    1.008    31 H    0.977
                            30 H    0.977
     4   6 C    3.995 --     3 C    1.008     5 C    0.987    32 H    0.979
                            33 H    0.975
     5   6 C    3.997 --     6 C    1.026     4 C    0.987    34 H    0.975
                            35 H    0.965
     6   6 C    3.989 --     7 C    1.927     5 C    1.026    36 H    0.963
     7   6 C    3.987 --     6 C    1.927     8 C    1.006    37 H    0.966
     8   6 C    3.997 --     9 C    1.013     7 C    1.006    38 H    0.963
                            39 H    0.960
     9   6 C    3.989 --    10 C    1.927     8 C    1.013    40 H    0.965
    10   6 C    3.988 --     9 C    1.927    11 C    1.022    41 H    0.963
    11   6 C    3.997 --    10 C    1.022    12 C    0.990    43 H    0.975
                            42 H    0.967
    12   6 C    3.995 --    13 C    1.008    11 C    0.990    45 H    0.978
                            44 H    0.976
    13   6 C    3.997 --    12 C    1.008    14 C    1.008    46 H    0.975
                            47 H    0.975
    14   6 C    3.996 --    13 C    1.008    15 C    1.007    48 H    0.975
                            49 H    0.973
    15   6 C    3.996 --    14 C    1.007    16 C    1.007    50 H    0.974
                            51 H    0.973
    16   6 C    3.995 --    17 C    1.008    15 C    1.007    52 H    0.974
                            53 H    0.972
    17   6 C    3.991 --    16 C    1.008    18 C    0.991    54 H    0.974
                            55 H    0.965
    18   6 C    3.953 --    17 C    0.991    19 N    0.976    56 H    0.969
                            57 H    0.962
    19   7 N    3.450 --    20 C    1.226    23 C    1.003    18 C    0.976
                            21 C    0.172
    20   6 C    3.971 --    21 C    1.707    19 N    1.226    58 H    0.952
    21   6 C    3.822 --    20 C    1.707    59 H    0.965    22 N    0.911
                            19 N    0.172
    22   7 N    3.773 --    24 C    0.956    23 C    0.943    60 H    0.919
                            21 C    0.911
    23   6 C    3.936 --    19 N    1.003    62 H    0.964    61 H    0.956
                            22 N    0.943
    24   6 C    3.919 --    65 H    0.976    63 H    0.976    64 H    0.973
                            22 N    0.956
    25   1 H    0.999 --     1 C    0.986
    26   1 H    0.999 --     1 C    0.987
    27   1 H    0.999 --     1 C    0.988
    28   1 H    0.999 --     2 C    0.976
    29   1 H    0.999 --     2 C    0.978
    30   1 H    0.999 --     3 C    0.977
    31   1 H    0.999 --     3 C    0.977
    32   1 H    0.999 --     4 C    0.979
    33   1 H    0.998 --     4 C    0.975
    34   1 H    0.999 --     5 C    0.975
    35   1 H    0.998 --     5 C    0.965
    36   1 H    0.999 --     6 C    0.963
    37   1 H    0.999 --     7 C    0.966
    38   1 H    0.998 --     8 C    0.963
    39   1 H    0.998 --     8 C    0.960
    40   1 H    0.999 --     9 C    0.965
    41   1 H    0.999 --    10 C    0.963
    42   1 H    0.999 --    11 C    0.967
    43   1 H    0.999 --    11 C    0.975
    44   1 H    0.999 --    12 C    0.976
    45   1 H    0.999 --    12 C    0.978
    46   1 H    0.999 --    13 C    0.975
    47   1 H    0.998 --    13 C    0.975
    48   1 H    0.999 --    14 C    0.975
    49   1 H    0.998 --    14 C    0.973
    50   1 H    1.000 --    15 C    0.974
    51   1 H    0.998 --    15 C    0.973
    52   1 H    1.000 --    16 C    0.974
    53   1 H    0.997 --    16 C    0.972
    54   1 H    0.999 --    17 C    0.974
    55   1 H    0.993 --    17 C    0.965
    56   1 H    0.996 --    18 C    0.969
    57   1 H    0.993 --    18 C    0.962
    58   1 H    0.989 --    20 C    0.952
    59   1 H    0.992 --    21 C    0.965
    60   1 H    0.950 --    22 N    0.919
    61   1 H    0.990 --    23 C    0.956
    62   1 H    0.992 --    23 C    0.964
    63   1 H    0.990 --    24 C    0.976
    64   1 H    0.988 --    24 C    0.973
    65   1 H    0.988 --    24 C    0.976
 ---------------------------------------------------------------------------

molecular dipole:
                 x           y           z       tot (Debye)
 q only:      -11.666     -29.164       8.962
   full:      -11.752     -29.440       9.135      83.850

           -------------------------------------------------
          | TOTAL ENERGY              -73.410666556852 Eh   |
          | GRADIENT NORM               0.000516073254 Eh/α |
          | HOMO-LUMO GAP               1.808516169046 eV   |
           -------------------------------------------------

 * finished run on 2024/12/20 at 02:14:13.312
