   * xtb version 6.7.1 (edcfbbe) compiled by 'conda@3ef47c1a292c' on 2024-11-25

   ID    Z sym.   atoms
    1    8 O      1, 21
    2    6 C      2-13, 15, 16, 18-20, 22-31
    3    7 N      14, 17
    4    1 H      32-64

          program call               : xtb C0293.xyz --opt --namespace C0293 --charge +1
          :  Hamiltonian                  GFN2-xTB          :
 * total energy  :   -88.2473556 Eh     change       -0.1654726E-08 Eh
 * total energy  :   -88.2605712 Eh     change       -0.1321563E-01 Eh
 * total energy  :   -88.2639951 Eh     change       -0.3423850E-02 Eh
 * total energy  :   -88.2646898 Eh     change       -0.6946970E-03 Eh
 * total energy  :   -88.2652910 Eh     change       -0.6012271E-03 Eh
 * total energy  :   -88.2656628 Eh     change       -0.3717741E-03 Eh
 * total energy  :   -88.2660824 Eh     change       -0.4196487E-03 Eh
 * total energy  :   -88.2665532 Eh     change       -0.4707087E-03 Eh
 * total energy  :   -88.2669911 Eh     change       -0.4379025E-03 Eh
 * total energy  :   -88.2673234 Eh     change       -0.3323896E-03 Eh
 * total energy  :   -88.2841053 Eh     change       -0.2750366E-04 Eh
 * total energy  :   -88.2841335 Eh     change       -0.2817720E-04 Eh
 * total energy  :   -88.2841578 Eh     change       -0.2433577E-04 Eh
 * total energy  :   -88.2841748 Eh     change       -0.1699947E-04 Eh
 * total energy  :   -88.2841862 Eh     change       -0.1134757E-04 Eh
 * total energy  :   -88.2841946 Eh     change       -0.8406588E-05 Eh
 * total energy  :   -88.2842026 Eh     change       -0.7998532E-05 Eh
 * total energy  :   -88.2842091 Eh     change       -0.6501997E-05 Eh
 * total energy  :   -88.2842109 Eh     change       -0.1771838E-05 Eh
   *** GEOMETRY OPTIMIZATION CONVERGED AFTER 152 ITERATIONS ***

 final structure:
================
64
 xtb: 6.7.1 (edcfbbe)
O            2.34191281180629       -0.57995486271830       -1.66247193380565
C            2.94043502665856       -1.11983879134357       -0.77147008982533
C            2.59503413541065       -2.37757127582646       -0.07613504851787
C            2.86450816030984       -3.59916154548493       -0.69703620873024
C            3.47810112586031       -3.66394587570260       -2.06277476993547
C            2.57472774469495       -4.77725914026644       -0.00507834790394
C            2.85703896513713       -6.11032945743572       -0.62182051983453
C            2.02274159294408       -4.69706823024388        1.26380320536231
C            1.73462722603205       -3.48581014807762        1.87506990821591
C            2.02527603556664       -2.30209195059553        1.19724609634119
C            1.68910762934460       -0.97540499180678        1.81490524906084
C            1.11801224210398       -3.45539430014329        3.23783560593212
C            4.27663694345148       -0.49737427399592       -0.26660042459827
N            4.36560964105750        0.85167286241120       -0.73431071226931
C            4.31092779793273        1.98988885825693        0.01572388854698
C            4.20846624795173        3.03756887254284       -0.84511697637916
N            4.17003994192295        2.52349260019262       -2.10794536025470
C            4.27282467816911        1.19789428670491       -2.01789409668413
C            4.24384489392148        3.24635731354474       -3.34070684227806
C            5.57081637172500        2.88214410385223       -4.06928054452758
O            6.20754154241282        1.93444712567887       -3.69611727834111
C            5.85531520279521        3.77841159803714       -5.21104721040092
C            6.43724888541167        5.02259947683689       -4.95955802062118
C            6.84192280251476        5.41742529811357       -3.56893909870188
C            6.66604132610551        5.88634015475876       -6.03080545547450
C            7.29410136856930        7.22634132140627       -5.81177668650680
C            6.30234684921434        5.48348664208634       -7.30708438969934
C            5.73371790193921        4.24540092501709       -7.56269352104144
C            5.50903680949234        3.36778118764666       -6.50003209508020
C            4.88522910852203        2.02795001450824       -6.75104541025580
C            5.36684119762651        3.85775693650909       -8.96010780672924
H            4.47964241328972       -4.09179604702302       -2.01053463866424
H            2.88328915073898       -4.30705296190673       -2.70852172601788
H            3.54021817298431       -2.68494212761705       -2.52904790168057
H            3.91136701448375       -6.20183651194866       -0.87904189972297
H            2.59690422342074       -6.91174245475556        0.06340919623040
H            2.28056582305695       -6.23963422620375       -1.53688773771306
H            1.80064827491891       -5.61194076614681        1.79313187011118
H            0.65829601701073       -0.98060486077714        2.16414088491394
H            2.32196673554262       -0.77959004546072        2.68153743406292
H            1.79400022498923       -0.15923292847142        1.10335074593904
H            0.11912373226202       -3.02223905853625        3.19596348965948
H            1.03701100770375       -4.45987732222050        3.64248310316175
H            1.71322939452904       -2.85237985487144        3.92157400911413
H            4.33519731152874       -0.53351162778185        0.82051037413237
H            5.08267583967497       -1.10917016032941       -0.68371577187960
H            4.35768414068476        1.97830413673680        1.08527609399681
H            4.15143811542708        4.08841696392395       -0.64823264573778
H            4.28180430607646        0.51885921020257       -2.84590559837534
H            3.42801253486202        2.95857851268939       -4.01107137239935
H            4.18727345983443        4.31952521838944       -3.16089089841998
H            7.87497127283453        5.75981532249925       -3.56612491185920
H            6.22750027810253        6.24285314964922       -3.20706639320250
H            6.76594627522413        4.58429888454081       -2.87367070401711
H            8.31035231698645        7.11548842312219       -5.43504544280518
H            7.33417135917023        7.78574748493695       -6.74172030173411
H            6.73077807538360        7.80565558668525       -5.08193245640378
H            6.47499508112745        6.15695124340131       -8.13356355747456
H            3.84925713807379        2.14323647704874       -7.07166806289671
H            5.41685742376864        1.51222888663482       -7.54815243001424
H            4.90950702133745        1.39615013891708       -5.86768357442250
H            4.31653101400176        3.57733718214340       -9.02160195251547
H            5.54675622591081        4.68116874424925       -9.64504799326732
H            5.95809641843232        3.00348065421608       -9.28801433511045

          :  Hamiltonian                  GFN2-xTB          :
         :: total energy             -88.284210859303 Eh    ::
         :: gradient norm              0.000211408288 Eh/a0 ::
         :: HOMO-LUMO gap              2.436623925637 eV    ::
         :: SCC energy               -89.687359708659 Eh    ::
         :: -> dispersion             -0.068312866739 Eh    ::
         :: repulsion energy           1.403148849356 Eh    ::

    * Orbital Energies and Occupations

         #    Occupation            Energy/Eh            Energy/eV
      -------------------------------------------------------------
         1        2.0000           -0.8705189             -23.6880
       ...           ...                  ...                  ...
        69        2.0000           -0.5354513             -14.5704
        70        2.0000           -0.5336153             -14.5204
        71        2.0000           -0.5330095             -14.5039
        72        2.0000           -0.5323865             -14.4870
        73        2.0000           -0.5309801             -14.4487
        74        2.0000           -0.5098702             -13.8743
        75        2.0000           -0.5092680             -13.8579
        76        2.0000           -0.5057601             -13.7624
        77        2.0000           -0.5021675             -13.6647
        78        2.0000           -0.4848237             -13.1927
        79        2.0000           -0.4840143             -13.1707
        80        2.0000           -0.4707840             -12.8107
        81        2.0000           -0.4701255             -12.7928 (HOMO)
        82                         -0.3805812             -10.3561 (LUMO)
        83                         -0.3793498             -10.3226
        84                         -0.3785320             -10.3004
        85                         -0.3505507              -9.5390
        86                         -0.3125439              -8.5048
        87                         -0.3123029              -8.4982
        88                         -0.3065761              -8.3424
        89                         -0.3059155              -8.3244
        90                         -0.1884103              -5.1269
        91                         -0.1876704              -5.1068
        92                         -0.1538978              -4.1878
       ...                                ...                  ...
       157                          0.5599764              15.2377
      -------------------------------------------------------------
                  HL-Gap            0.0895443 Eh            2.4366 eV

     #   Z          covCN         q      C6AA      α(0)
     1   8 O        0.857    -0.338    20.487     6.069
     2   6 C        2.820     0.249    22.835     7.830
     3   6 C        2.979    -0.043    29.064     8.843
     4   6 C        2.972     0.007    27.856     8.657
     5   6 C        3.757    -0.112    22.698     6.793
     6   6 C        2.969     0.014    27.702     8.633
     7   6 C        3.759    -0.115    22.757     6.801
     8   6 C        2.928    -0.046    29.150     8.854
     9   6 C        2.968     0.013    27.725     8.637
    10   6 C        2.973     0.001    28.008     8.681
    11   6 C        3.757    -0.111    22.670     6.789
    12   6 C        3.758    -0.115    22.749     6.800
    13   6 C        3.745    -0.052    21.584     6.627
    14   7 N        2.870     0.070    20.017     6.645
    15   6 C        3.064    -0.009    28.178     8.705
    16   6 C        3.064    -0.009    28.173     8.704
    17   7 N        2.870     0.071    20.010     6.644
    18   6 C        3.093     0.067    26.390     8.420
    19   6 C        3.745    -0.053    21.588     6.628
    20   6 C        2.820     0.249    22.828     7.829
    21   8 O        0.857    -0.338    20.476     6.067
    22   6 C        2.979    -0.043    29.072     8.844
    23   6 C        2.973     0.001    27.999     8.680
    24   6 C        3.757    -0.111    22.670     6.788
    25   6 C        2.968     0.013    27.725     8.637
    26   6 C        3.758    -0.115    22.748     6.800
    27   6 C        2.928    -0.047    29.158     8.856
    28   6 C        2.969     0.014    27.706     8.634
    29   6 C        2.972     0.006    27.882     8.661
    30   6 C        3.757    -0.112    22.696     6.792
    31   6 C        3.759    -0.115    22.756     6.801
    32   1 H        0.924     0.053     2.282     2.362
    33   1 H        0.925     0.066     2.126     2.280
    34   1 H        0.925     0.033     2.544     2.494
    35   1 H        0.925     0.056     2.246     2.343
    36   1 H        0.925     0.056     2.251     2.346
    37   1 H        0.925     0.059     2.213     2.326
    38   1 H        0.926     0.052     2.290     2.366
    39   1 H        0.925     0.066     2.124     2.279
    40   1 H        0.924     0.048     2.343     2.394
    41   1 H        0.925     0.027     2.625     2.534
    42   1 H        0.925     0.058     2.226     2.333
    43   1 H        0.925     0.056     2.248     2.344
    44   1 H        0.925     0.054     2.275     2.359
    45   1 H        0.925     0.104     1.750     2.069
    46   1 H        0.924     0.106     1.728     2.056
    47   1 H        0.926     0.099     1.795     2.095
    48   1 H        0.926     0.099     1.794     2.095
    49   1 H        0.926     0.125     1.574     1.962
    50   1 H        0.924     0.107     1.726     2.054
    51   1 H        0.925     0.104     1.749     2.068
    52   1 H        0.925     0.066     2.126     2.280
    53   1 H        0.924     0.048     2.340     2.392
    54   1 H        0.925     0.028     2.616     2.529
    55   1 H        0.925     0.058     2.226     2.333
    56   1 H        0.925     0.056     2.250     2.346
    57   1 H        0.925     0.054     2.274     2.358
    58   1 H        0.926     0.052     2.293     2.368
    59   1 H        0.924     0.052     2.298     2.370
    60   1 H        0.925     0.066     2.126     2.280
    61   1 H        0.925     0.032     2.553     2.499
    62   1 H        0.925     0.056     2.251     2.346
    63   1 H        0.925     0.055     2.253     2.347
    64   1 H        0.925     0.059     2.214     2.327

Wiberg/Mayer (AO) data.
largest (>0.10) Wiberg bond orders for each atom

     #   Z sym  total        # sym  WBO       # sym  WBO       # sym  WBO
 ---------------------------------------------------------------------------
     1   8 O    2.121 --     2 C    1.873
     2   6 C    3.902 --     1 O    1.873     3 C    0.994    13 C    0.913
     3   6 C    3.970 --     4 C    1.364    10 C    1.361     2 C    0.994
     4   6 C    3.985 --     6 C    1.369     3 C    1.364     5 C    1.030
     5   6 C    3.995 --     4 C    1.030    34 H    0.982    33 H    0.968
                            32 H    0.967
     6   6 C    3.988 --     8 C    1.418     4 C    1.369     7 C    1.031
     7   6 C    3.992 --     6 C    1.031    36 H    0.983    35 H    0.968
                            37 H    0.965
     8   6 C    3.989 --     6 C    1.418     9 C    1.412    38 H    0.964
     9   6 C    3.988 --     8 C    1.412    10 C    1.379    12 C    1.030
    10   6 C    3.985 --     9 C    1.379     3 C    1.361    11 C    1.025
    11   6 C    3.995 --    10 C    1.025    41 H    0.980    40 H    0.969
                            39 H    0.968
    12   6 C    3.992 --     9 C    1.030    43 H    0.983    44 H    0.970
                            42 H    0.964
    13   6 C    3.946 --    14 N    0.997    45 H    0.956    46 H    0.937
                             2 C    0.913
    14   7 N    3.705 --    18 C    1.341    15 C    1.209    13 C    0.997
    15   6 C    3.946 --    16 C    1.602    14 N    1.209    47 H    0.963
    16   6 C    3.947 --    15 C    1.602    17 N    1.209    48 H    0.963
    17   7 N    3.705 --    18 C    1.341    16 C    1.209    19 C    0.996
    18   6 C    3.942 --    17 N    1.341    14 N    1.341    49 H    0.952
    19   6 C    3.946 --    17 N    0.996    51 H    0.955    50 H    0.937
                            20 C    0.915
    20   6 C    3.902 --    21 O    1.875    22 C    0.991    19 C    0.915
    21   8 O    2.120 --    20 C    1.875
    22   6 C    3.970 --    29 C    1.364    23 C    1.364    20 C    0.991
    23   6 C    3.985 --    25 C    1.377    22 C    1.364    24 C    1.026
    24   6 C    3.995 --    23 C    1.026    54 H    0.980    53 H    0.969
                            52 H    0.968
    25   6 C    3.988 --    27 C    1.413    23 C    1.377    26 C    1.030
    26   6 C    3.992 --    25 C    1.030    56 H    0.983    57 H    0.970
                            55 H    0.965
    27   6 C    3.989 --    28 C    1.418    25 C    1.413    58 H    0.964
    28   6 C    3.988 --    27 C    1.418    29 C    1.370    31 C    1.030
    29   6 C    3.985 --    28 C    1.370    22 C    1.364    30 C    1.029
    30   6 C    3.995 --    29 C    1.029    61 H    0.982    60 H    0.969
                            59 H    0.967
    31   6 C    3.992 --    28 C    1.030    63 H    0.983    62 H    0.969
                            64 H    0.964
    32   1 H    0.997 --     5 C    0.967
    33   1 H    0.995 --     5 C    0.968
    34   1 H    0.999 --     5 C    0.982
    35   1 H    0.996 --     7 C    0.968
    36   1 H    0.996 --     7 C    0.983
    37   1 H    0.996 --     7 C    0.965
    38   1 H    0.996 --     8 C    0.964
    39   1 H    0.995 --    11 C    0.968
    40   1 H    0.997 --    11 C    0.969
    41   1 H    0.999 --    11 C    0.980
    42   1 H    0.996 --    12 C    0.964
    43   1 H    0.996 --    12 C    0.983
    44   1 H    0.997 --    12 C    0.970
    45   1 H    0.989 --    13 C    0.956
    46   1 H    0.988 --    13 C    0.937
    47   1 H    0.990 --    15 C    0.963
    48   1 H    0.990 --    16 C    0.963
    49   1 H    0.984 --    18 C    0.952
    50   1 H    0.988 --    19 C    0.937
    51   1 H    0.989 --    19 C    0.955
    52   1 H    0.995 --    24 C    0.968
    53   1 H    0.997 --    24 C    0.969
    54   1 H    0.999 --    24 C    0.980
    55   1 H    0.996 --    26 C    0.965
    56   1 H    0.996 --    26 C    0.983
    57   1 H    0.997 --    26 C    0.970
    58   1 H    0.996 --    27 C    0.964
    59   1 H    0.997 --    30 C    0.967
    60   1 H    0.995 --    30 C    0.969
    61   1 H    0.999 --    30 C    0.982
    62   1 H    0.996 --    31 C    0.969
    63   1 H    0.996 --    31 C    0.983
    64   1 H    0.996 --    31 C    0.964
 ---------------------------------------------------------------------------

molecular dipole:
                 x           y           z       tot (Debye)
 q only:        7.961       2.700      -3.231
   full:        7.963       2.789      -3.120      22.864

           -------------------------------------------------
          | TOTAL ENERGY              -88.284210859303 Eh   |
          | GRADIENT NORM               0.000211408288 Eh/α |
          | HOMO-LUMO GAP               2.436623925637 eV   |
           -------------------------------------------------

 * finished run on 2024/12/20 at 02:14:08.898
