   * xtb version 6.7.1 (edcfbbe) compiled by 'conda@3ef47c1a292c' on 2024-11-25

   ID    Z sym.   atoms
    1    6 C      1, 2, 4-8, 10-13, 15-17, 19-21, 26-28, 30, 32, 33, 36, 37
    2    7 N      3, 9, 14, 25
    3   35 Br     18, 22, 29, 34
    4   17 Cl     23, 24, 31, 35
    5    1 H      38-60

          program call               : xtb C0297.xyz --opt --namespace C0297 --charge +1
          :  Hamiltonian                  GFN2-xTB          :
 * total energy  :  -111.1494064 Eh     change       -0.2087802E-08 Eh
 * total energy  :  -111.1736935 Eh     change       -0.2428715E-01 Eh
 * total energy  :  -111.1834154 Eh     change       -0.9721853E-02 Eh
 * total energy  :  -111.1865964 Eh     change       -0.3180994E-02 Eh
 * total energy  :  -111.1887239 Eh     change       -0.2127544E-02 Eh
 * total energy  :  -111.1900183 Eh     change       -0.1294422E-02 Eh
 * total energy  :  -111.1910863 Eh     change       -0.1067987E-02 Eh
 * total energy  :  -111.1921348 Eh     change       -0.1048452E-02 Eh
 * total energy  :  -111.1928410 Eh     change       -0.7061978E-03 Eh
 * total energy  :  -111.1934701 Eh     change       -0.6291195E-03 Eh
 * total energy  :  -111.2159146 Eh     change       -0.1677587E-04 Eh
 * total energy  :  -111.2159263 Eh     change       -0.1177217E-04 Eh
 * total energy  :  -111.2159340 Eh     change       -0.7627238E-05 Eh
 * total energy  :  -111.2159418 Eh     change       -0.7859085E-05 Eh
 * total energy  :  -111.2159538 Eh     change       -0.1202308E-04 Eh
 * total energy  :  -111.2159604 Eh     change       -0.6568471E-05 Eh
 * total energy  :  -111.2159676 Eh     change       -0.7144072E-05 Eh
 * total energy  :  -111.2159728 Eh     change       -0.5279781E-05 Eh
 * total energy  :  -111.2159775 Eh     change       -0.4624668E-05 Eh
   *** GEOMETRY OPTIMIZATION CONVERGED AFTER 86 ITERATIONS ***

 final structure:
================
60
 xtb: 6.7.1 (edcfbbe)
C            1.17669867190641       -1.65840248835145        1.91156990837713
C            0.18920828097979       -0.49736763227888        1.85970868313842
N            0.54400798158748        0.55561754750647        2.78552509263410
C            1.23403017663466        1.68440017421009        2.45190409135509
C            1.84230839667519        2.03427633182351        1.24490294696395
C            2.18007795609676        1.27651476736864        0.13310397324573
C            2.73713918046530        1.88547623942066       -0.98275832413016
C            3.24265201714323        1.35440540041216       -2.17041281378135
N            3.56889705295597        0.06545148809507       -2.47799101501874
C            3.55709981568500       -1.03503687632528       -1.53984356421026
C            2.25918779077063       -1.83236973311448       -1.61449984251065
C            4.00662097606348        0.01214705003548       -3.78521476332450
C            3.95960485337277        1.33668381027669       -4.28844998567115
N            3.52631190060983        2.13829333988123       -3.25736162139236
C            3.38964948160194        3.58028968375885       -3.28494035026540
C            1.97645655976982        4.00835275939027       -3.66230258944002
C            4.29931343054461        1.60453499840401       -5.61529791217366
Br           4.14937012115018        3.29863729926556       -6.45173693131423
C            4.74064590474377        0.54822300687326       -6.41275252123299
C            4.81909979314043       -0.75338794076256       -5.90625774918092
C            4.43613632043824       -1.03908981089172       -4.59519923916636
Br           4.52969058861463       -2.85581869048748       -4.06332760408191
Cl           5.37425732317493       -2.01145893729566       -6.93105070085773
Cl           5.18339602208848        0.83288691467138       -8.04458738839563
N            1.24370625858827        2.51731928800147        3.53910298073968
C            0.63430336453585        1.88192892260528        4.59645100955955
C            0.16520695224825        0.63565577082589        4.10983041951000
C           -0.52875156293113       -0.23646081173527        4.94868728745883
Br          -1.21309725212753       -1.92732558950742        4.43464305828951
C           -0.73837795720304        0.14375850432017        6.27480341168929
Cl          -1.59512355060568       -0.89306029553220        7.33913600793326
C           -0.24243286827461        1.35677216571968        6.76447374745517
C            0.45548580697338        2.23473305153669        5.93474793441339
Br           1.14927398915061        3.80267545672749        6.74248313938014
Cl          -0.49276665921954        1.75208801248526        8.41378947473693
C            1.80920919584131        3.85108259086394        3.54133596182511
C            3.30277452646182        3.83274009300624        3.84414057252323
H            0.88460951888901       -2.41254922693628        1.18789673081543
H            1.17201966645153       -2.11859302508019        2.89493633756680
H            2.19047479664237       -1.32794728028741        1.69950074556885
H            0.14201241239884       -0.05517519284972        0.86344673000025
H           -0.81115939686881       -0.85260242844729        2.10483530084026
H            2.15439346597897        3.06624681948126        1.18981220552254
H            2.01306681009136        0.21640617519764        0.13723893388955
H            2.74764991999397        2.96415651404310       -0.94060648958175
H            4.40326917087833       -1.68548851289883       -1.75771874382535
H            3.71628152908606       -0.61866302354150       -0.54401286071077
H            2.14400607969793       -2.27942599673716       -2.59700961987472
H            2.28474493739640       -2.63350578800018       -0.88285910025452
H            1.39378541981523       -1.20131872284967       -1.42806166582876
H            3.66074624761807        3.97181315981649       -2.30275731002321
H            4.10905952816062        3.98153777271172       -3.99505878759540
H            1.25033891535636        3.61346156502745       -2.95596262152723
H            1.91444337577175        5.09196545956041       -3.66142495902560
H            1.72359367069948        3.65480403249658       -4.65773346548376
H            1.61890908646806        4.30767774971851        2.56821729889772
H            1.28073852076457        4.44902190435980        4.28018668847528
H            3.84042658308242        3.23935960155053        3.10863665195489
H            3.68774522483473        4.84739926083745        3.82666583531192
H            3.48688367704393        3.41674332171008        4.83042737978863

          :  Hamiltonian                  GFN2-xTB          :
         :: total energy            -111.215977464151 Eh    ::
         :: gradient norm              0.000420115019 Eh/a0 ::
         :: HOMO-LUMO gap              1.659704739117 eV    ::
         :: SCC energy              -112.445412778878 Eh    ::
         :: -> dispersion             -0.093456369456 Eh    ::
         :: repulsion energy           1.229435314727 Eh    ::

    * Orbital Energies and Occupations

         #    Occupation            Energy/Eh            Energy/eV
      -------------------------------------------------------------
         1        2.0000           -1.1566294             -31.4735
       ...           ...                  ...                  ...
        87        2.0000           -0.5273297             -14.3494
        88        2.0000           -0.5265599             -14.3284
        89        2.0000           -0.5263976             -14.3240
        90        2.0000           -0.5222533             -14.2112
        91        2.0000           -0.5145222             -14.0009
        92        2.0000           -0.5142967             -13.9947
        93        2.0000           -0.5084302             -13.8351
        94        2.0000           -0.5082221             -13.8294
        95        2.0000           -0.5055176             -13.7558
        96        2.0000           -0.5014984             -13.6465
        97        2.0000           -0.4953315             -13.4787
        98        2.0000           -0.4951251             -13.4730
        99        2.0000           -0.4690071             -12.7623 (HOMO)
       100                         -0.4080141             -11.1026 (LUMO)
       101                         -0.3760434             -10.2327
       102                         -0.3599040              -9.7935
       103                         -0.3586653              -9.7598
       104                         -0.3584165              -9.7530
       105                         -0.3214780              -8.7479
       106                         -0.3214104              -8.7460
       107                         -0.3202078              -8.7133
       108                         -0.3195664              -8.6958
       109                         -0.3090350              -8.4093
       110                         -0.2536473              -6.9021
       ...                                ...                  ...
       211                          0.5388731              14.6635
      -------------------------------------------------------------
                  HL-Gap            0.0609930 Eh            1.6597 eV

     #   Z          covCN         q      C6AA      α(0)
     1   6 C        3.752    -0.125    22.960     6.833
     2   6 C        3.740    -0.018    20.975     6.535
     3   7 N        2.813    -0.007    21.389     6.869
     4   6 C        3.020     0.109    25.576     8.296
     5   6 C        2.907    -0.097    30.447     9.048
     6   6 C        2.891    -0.025    28.633     8.773
     7   6 C        2.907    -0.097    30.448     9.048
     8   6 C        3.019     0.109    25.577     8.296
     9   7 N        2.813    -0.007    21.394     6.870
    10   6 C        3.740    -0.018    20.976     6.535
    11   6 C        3.752    -0.125    22.960     6.833
    12   6 C        3.092     0.032    27.175     8.544
    13   6 C        3.089     0.034    27.134     8.538
    14   7 N        2.818    -0.010    21.442     6.877
    15   6 C        3.740    -0.018    20.975     6.535
    16   6 C        3.752    -0.123    22.921     6.827
    17   6 C        2.936     0.047    26.947     8.513
    18  35 Br       1.206    -0.090   187.512    22.079
    19   6 C        3.021     0.071    26.379     8.425
    20   6 C        3.023     0.071    26.391     8.427
    21   6 C        2.936     0.047    26.942     8.513
    22  35 Br       1.212    -0.093   187.605    22.084
    23  17 Cl       1.167    -0.060   101.067    15.381
    24  17 Cl       1.162    -0.060   101.045    15.379
    25   7 N        2.818    -0.010    21.438     6.877
    26   6 C        3.090     0.034    27.133     8.538
    27   6 C        3.092     0.032    27.174     8.544
    28   6 C        2.936     0.047    26.938     8.512
    29  35 Br       1.212    -0.093   187.599    22.084
    30   6 C        3.023     0.071    26.392     8.427
    31  17 Cl       1.167    -0.060   101.065    15.380
    32   6 C        3.021     0.072    26.378     8.425
    33   6 C        2.936     0.047    26.947     8.513
    34  35 Br       1.205    -0.090   187.511    22.079
    35  17 Cl       1.161    -0.060   101.039    15.378
    36   6 C        3.740    -0.018    20.976     6.535
    37   6 C        3.752    -0.123    22.921     6.827
    38   1 H        0.925     0.070     2.083     2.257
    39   1 H        0.925     0.071     2.072     2.251
    40   1 H        0.925     0.050     2.314     2.379
    41   1 H        0.924     0.071     2.072     2.251
    42   1 H        0.925     0.091     1.868     2.137
    43   1 H        0.926     0.060     2.196     2.317
    44   1 H        0.926     0.062     2.172     2.305
    45   1 H        0.926     0.060     2.198     2.318
    46   1 H        0.925     0.091     1.868     2.138
    47   1 H        0.924     0.071     2.079     2.255
    48   1 H        0.925     0.071     2.072     2.251
    49   1 H        0.925     0.070     2.085     2.258
    50   1 H        0.925     0.051     2.310     2.377
    51   1 H        0.924     0.069     2.092     2.262
    52   1 H        0.925     0.094     1.840     2.122
    53   1 H        0.925     0.054     2.275     2.359
    54   1 H        0.925     0.073     2.055     2.242
    55   1 H        0.925     0.067     2.122     2.278
    56   1 H        0.924     0.070     2.090     2.261
    57   1 H        0.925     0.094     1.838     2.120
    58   1 H        0.925     0.053     2.278     2.360
    59   1 H        0.925     0.073     2.055     2.242
    60   1 H        0.925     0.067     2.122     2.278

Wiberg/Mayer (AO) data.
largest (>0.10) Wiberg bond orders for each atom

     #   Z sym  total        # sym  WBO       # sym  WBO       # sym  WBO
 ---------------------------------------------------------------------------
     1   6 C    3.984 --     2 C    1.006    40 H    0.981    38 H    0.979
                            39 H    0.978
     2   6 C    3.946 --     1 C    1.006     3 N    0.973    41 H    0.958
                            42 H    0.955
     3   7 N    3.585 --     4 C    1.203    27 C    1.148     2 C    0.973
     4   6 C    3.917 --     5 C    1.312     3 N    1.203    25 N    1.195
     5   6 C    3.930 --     6 C    1.422     4 C    1.312    43 H    0.944
     6   6 C    3.962 --     5 C    1.422     7 C    1.419    44 H    0.945
     7   6 C    3.930 --     6 C    1.419     8 C    1.315    45 H    0.944
     8   6 C    3.917 --     7 C    1.315     9 N    1.202    14 N    1.195
     9   7 N    3.585 --     8 C    1.202    12 C    1.148    10 C    0.973
    10   6 C    3.946 --    11 C    1.006     9 N    0.973    47 H    0.958
                            46 H    0.954
    11   6 C    3.984 --    10 C    1.006    50 H    0.981    48 H    0.979
                            49 H    0.979
    12   6 C    3.962 --    21 C    1.324    13 C    1.241     9 N    1.148
    13   6 C    3.964 --    17 C    1.320    12 C    1.241    14 N    1.158
    14   7 N    3.584 --     8 C    1.195    13 C    1.158    15 C    0.972
    15   6 C    3.945 --    16 C    1.006    14 N    0.972    51 H    0.957
                            52 H    0.953
    16   6 C    3.983 --    15 C    1.006    53 H    0.984    55 H    0.982
                            54 H    0.979
    17   6 C    3.934 --    19 C    1.362    13 C    1.320    18 Br   1.015
    18  35 Br   1.206 --    17 C    1.015
    19   6 C    3.925 --    17 C    1.362    20 C    1.324    24 Cl   1.040
    20   6 C    3.923 --    21 C    1.361    19 C    1.324    23 Cl   1.039
    21   6 C    3.935 --    20 C    1.361    12 C    1.324    22 Br   1.013
    22  35 Br   1.203 --    21 C    1.013
    23  17 Cl   1.222 --    20 C    1.039
    24  17 Cl   1.224 --    19 C    1.040
    25   7 N    3.585 --     4 C    1.195    26 C    1.158    36 C    0.971
    26   6 C    3.964 --    33 C    1.320    27 C    1.241    25 N    1.158
    27   6 C    3.962 --    28 C    1.324    26 C    1.241     3 N    1.148
    28   6 C    3.935 --    30 C    1.361    27 C    1.324    29 Br   1.013
    29  35 Br   1.204 --    28 C    1.013
    30   6 C    3.923 --    28 C    1.361    32 C    1.323    31 Cl   1.039
    31  17 Cl   1.222 --    30 C    1.039
    32   6 C    3.925 --    33 C    1.362    30 C    1.323    35 Cl   1.040
    33   6 C    3.934 --    32 C    1.362    26 C    1.320    34 Br   1.015
    34  35 Br   1.205 --    33 C    1.015
    35  17 Cl   1.224 --    32 C    1.040
    36   6 C    3.945 --    37 C    1.006    25 N    0.971    56 H    0.957
                            57 H    0.953
    37   6 C    3.983 --    36 C    1.006    58 H    0.984    60 H    0.982
                            59 H    0.979
    38   1 H    0.994 --     1 C    0.979
    39   1 H    0.995 --     1 C    0.978
    40   1 H    0.997 --     1 C    0.981
    41   1 H    0.994 --     2 C    0.958
    42   1 H    0.990 --     2 C    0.955
    43   1 H    0.995 --     5 C    0.944
    44   1 H    0.996 --     6 C    0.945
    45   1 H    0.995 --     7 C    0.944
    46   1 H    0.991 --    10 C    0.954
    47   1 H    0.994 --    10 C    0.958
    48   1 H    0.995 --    11 C    0.979
    49   1 H    0.994 --    11 C    0.979
    50   1 H    0.997 --    11 C    0.981
    51   1 H    0.994 --    15 C    0.957
    52   1 H    0.990 --    15 C    0.953
    53   1 H    0.997 --    16 C    0.984
    54   1 H    0.994 --    16 C    0.979
    55   1 H    0.996 --    16 C    0.982
    56   1 H    0.994 --    36 C    0.957
    57   1 H    0.989 --    36 C    0.953
    58   1 H    0.997 --    37 C    0.984
    59   1 H    0.994 --    37 C    0.979
    60   1 H    0.996 --    37 C    0.982
 ---------------------------------------------------------------------------

molecular dipole:
                 x           y           z       tot (Debye)
 q only:        4.245       3.097       0.268
   full:        4.221       2.603       0.296      12.628

           -------------------------------------------------
          | TOTAL ENERGY             -111.215977464151 Eh   |
          | GRADIENT NORM               0.000420115019 Eh/α |
          | HOMO-LUMO GAP               1.659704739117 eV   |
           -------------------------------------------------

 * finished run on 2024/12/20 at 02:14:21.969
