   * xtb version 6.7.1 (edcfbbe) compiled by 'conda@3ef47c1a292c' on 2024-11-25

   ID    Z sym.   atoms
    1    9 F      1
    2    6 C      2, 3, 5-10, 13, 14
    3    7 N      4
    4    8 O      11, 12
    5    1 H      15-27

          program call               : xtb C0291.xyz --opt --namespace C0291 --charge +1
          :  Hamiltonian                  GFN2-xTB          :
 * total energy  :   -43.4166985 Eh     change       -0.6609397E-09 Eh
 * total energy  :   -43.4213413 Eh     change       -0.4642815E-02 Eh
 * total energy  :   -43.4221673 Eh     change       -0.8260468E-03 Eh
 * total energy  :   -43.4222881 Eh     change       -0.1207928E-03 Eh
 * total energy  :   -43.4223728 Eh     change       -0.8462629E-04 Eh
 * total energy  :   -43.4224220 Eh     change       -0.4921663E-04 Eh
 * total energy  :   -43.4225051 Eh     change       -0.8315527E-04 Eh
 * total energy  :   -43.4226107 Eh     change       -0.1055381E-03 Eh
 * total energy  :   -43.4227262 Eh     change       -0.1155351E-03 Eh
 * total energy  :   -43.4228674 Eh     change       -0.1411427E-03 Eh
 * total energy  :   -43.4258221 Eh     change       -0.3287019E-04 Eh
 * total energy  :   -43.4258804 Eh     change       -0.5828851E-04 Eh
 * total energy  :   -43.4259288 Eh     change       -0.4843472E-04 Eh
 * total energy  :   -43.4259738 Eh     change       -0.4492069E-04 Eh
 * total energy  :   -43.4259981 Eh     change       -0.2434622E-04 Eh
 * total energy  :   -43.4260073 Eh     change       -0.9159531E-05 Eh
 * total energy  :   -43.4260189 Eh     change       -0.1161627E-04 Eh
 * total energy  :   -43.4260264 Eh     change       -0.7500329E-05 Eh
 * total energy  :   -43.4260304 Eh     change       -0.3974753E-05 Eh
   *** GEOMETRY OPTIMIZATION CONVERGED AFTER 44 ITERATIONS ***

 final structure:
================
27
 xtb: 6.7.1 (edcfbbe)
F            3.01393998014577       -0.14041620061896        1.19605374088552
C            3.25849108495882        0.60314201583506        0.07682479553498
C            2.04830514751306        1.50943068786980       -0.18563020608693
N            1.84286435375976        2.39989571576174        0.94594834983882
C            1.22060162182186        1.93074021232926        2.03653581905305
C            1.07806402746813        2.71116992135641        3.16641581869032
C            1.58447791542316        4.00231440007540        3.16662906051156
C            2.22405830993772        4.47364588667377        2.01987525009377
C            2.34196499195336        3.64060852360484        0.92268108753176
C            2.77997530611236        5.88333586782810        2.02309865988778
O            2.72094592968464        6.57625319120423        2.99878980476944
O            3.31707387794816        6.19226302584137        0.85821783647913
C            3.88094593676830        7.51486875483584        0.72497104440646
C            2.81030722006156        8.54593687469376        0.41080961144624
H            4.17021355621987        1.17911048865028        0.26476748342524
H            3.40841263865311       -0.08849963933221       -0.75635175305830
H            2.22205354375819        2.08788991963144       -1.09331357486672
H            1.15975552276354        0.88679265383349       -0.31715761742580
H            0.84979521171991        0.91648453305179        2.00070031392496
H            0.57760600321742        2.30821506254064        4.03261548913527
H            1.50181884175584        4.65444997079127        4.02459621348192
H            2.83839682389873        3.97863475536069        0.02433186070189
H            4.39603880912197        7.76845922906947        1.65548391023140
H            4.59904441641750        7.42419767137288       -0.09104831312848
H            2.11020633305758        8.63187813158613        1.23808361536877
H            3.28359552285065        9.51066118995882        0.25682719615433
H            2.26757707301024        8.27357715619523       -0.49102549698640

          :  Hamiltonian                  GFN2-xTB          :
         :: total energy             -43.426030365395 Eh    ::
         :: gradient norm              0.000324869630 Eh/a0 ::
         :: HOMO-LUMO gap              2.219515212247 eV    ::
         :: SCC energy               -43.960854293342 Eh    ::
         :: -> dispersion             -0.020666986054 Eh    ::
         :: repulsion energy           0.534823927947 Eh    ::

    * Orbital Energies and Occupations

         #    Occupation            Energy/Eh            Energy/eV
      -------------------------------------------------------------
         1        2.0000           -0.9619469             -26.1759
       ...           ...                  ...                  ...
        26        2.0000           -0.6547675             -17.8171
        27        2.0000           -0.6431662             -17.5014
        28        2.0000           -0.6348470             -17.2751
        29        2.0000           -0.6303485             -17.1527
        30        2.0000           -0.6286149             -17.1055
        31        2.0000           -0.6200622             -16.8728
        32        2.0000           -0.6121242             -16.6567
        33        2.0000           -0.6098706             -16.5954
        34        2.0000           -0.6052381             -16.4694
        35        2.0000           -0.5750109             -15.6468
        36        2.0000           -0.5689690             -15.4824
        37        2.0000           -0.5609842             -15.2652
        38        2.0000           -0.5530176             -15.0484 (HOMO)
        39                         -0.4714519             -12.8289 (LUMO)
        40                         -0.4509869             -12.2720
        41                         -0.3653617              -9.9420
        42                         -0.2914511              -7.9308
        43                         -0.1984126              -5.3991
        44                         -0.1432783              -3.8988
        45                         -0.1078920              -2.9359
        46                         -0.0895483              -2.4367
        47                         -0.0809540              -2.2029
        48                         -0.0495065              -1.3471
        49                         -0.0355428              -0.9672
       ...                                ...                  ...
        69                          0.5667144              15.4211
      -------------------------------------------------------------
                  HL-Gap            0.0815657 Eh            2.2195 eV

     #   Z          covCN         q      C6AA      α(0)
     1   9 F        0.785    -0.231    11.564     4.017
     2   6 C        3.608     0.096    19.494     6.378
     3   6 C        3.759    -0.043    21.394     6.594
     4   7 N        2.750     0.117    19.237     6.514
     5   6 C        2.890     0.039    27.114     8.537
     6   6 C        2.914    -0.006    28.164     8.702
     7   6 C        2.927     0.019    27.583     8.613
     8   6 C        2.967     0.007    27.860     8.658
     9   6 C        2.888     0.031    27.307     8.567
    10   6 C        2.720     0.360    20.889     7.482
    11   8 O        0.857    -0.358    20.855     6.123
    12   8 O        1.702    -0.251    18.167     5.755
    13   6 C        3.698     0.070    19.561     6.326
    14   6 C        3.751    -0.122    22.893     6.824
    15   1 H        0.924     0.083     1.947     2.182
    16   1 H        0.924     0.105     1.738     2.061
    17   1 H        0.924     0.106     1.733     2.059
    18   1 H        0.924     0.117     1.637     2.001
    19   1 H        0.926     0.130     1.537     1.939
    20   1 H        0.926     0.121     1.609     1.983
    21   1 H        0.926     0.133     1.516     1.925
    22   1 H        0.926     0.121     1.603     1.980
    23   1 H        0.924     0.076     2.021     2.223
    24   1 H        0.924     0.077     2.010     2.217
    25   1 H        0.925     0.068     2.113     2.273
    26   1 H        0.925     0.074     2.037     2.232
    27   1 H        0.925     0.061     2.189     2.314

Wiberg/Mayer (AO) data.
largest (>0.10) Wiberg bond orders for each atom

     #   Z sym  total        # sym  WBO       # sym  WBO       # sym  WBO
 ---------------------------------------------------------------------------
     1   9 F    1.025 --     2 C    0.954
     2   6 C    3.898 --     3 C    0.981    15 H    0.966    16 H    0.959
                             1 F    0.954
     3   6 C    3.941 --     2 C    0.981     4 N    0.970    17 H    0.963
                            18 H    0.956
     4   7 N    3.766 --     9 C    1.328     5 C    1.319     3 C    0.970
     5   6 C    3.949 --     6 C    1.458     4 N    1.319    19 H    0.950
     6   6 C    3.977 --     5 C    1.458     7 C    1.428    20 H    0.956
     7   6 C    3.957 --     6 C    1.428     8 C    1.383    21 H    0.952
     8   6 C    3.982 --     9 C    1.434     7 C    1.383    10 C    0.946
     9   6 C    3.955 --     8 C    1.434     4 N    1.328    22 H    0.949
    10   6 C    3.941 --    11 O    1.756    12 O    1.178     8 C    0.946
    11   8 O    2.087 --    10 C    1.756    12 O    0.199
    12   8 O    2.343 --    10 C    1.178    13 C    0.905    11 O    0.199
    13   6 C    3.895 --    14 C    1.013    24 H    0.970    23 H    0.967
                            12 O    0.905
    14   6 C    3.984 --    13 C    1.013    27 H    0.985    25 H    0.983
                            26 H    0.977
    15   1 H    0.993 --     2 C    0.966
    16   1 H    0.988 --     2 C    0.959
    17   1 H    0.988 --     3 C    0.963
    18   1 H    0.986 --     3 C    0.956
    19   1 H    0.983 --     5 C    0.950
    20   1 H    0.985 --     6 C    0.956
    21   1 H    0.982 --     7 C    0.952
    22   1 H    0.985 --     9 C    0.949
    23   1 H    0.994 --    13 C    0.967
    24   1 H    0.994 --    13 C    0.970
    25   1 H    0.995 --    14 C    0.983
    26   1 H    0.994 --    14 C    0.977
    27   1 H    0.996 --    14 C    0.985
 ---------------------------------------------------------------------------

molecular dipole:
                 x           y           z       tot (Debye)
 q only:        3.854       5.957       1.359
   full:        3.910       5.880       1.171      18.192

           -------------------------------------------------
          | TOTAL ENERGY              -43.426030365395 Eh   |
          | GRADIENT NORM               0.000324869630 Eh/α |
          | HOMO-LUMO GAP               2.219515212247 eV   |
           -------------------------------------------------

 * finished run on 2024/12/20 at 02:13:59.549
