   * xtb version 6.7.1 (edcfbbe) compiled by 'conda@3ef47c1a292c' on 2024-11-25

   ID    Z sym.   atoms
    1    8 O      1
    2    6 C      2-7, 9-11
    3    7 N      8
    4    1 H      12-25

          program call               : xtb C0292.xyz --opt --namespace C0292 --charge +1
          :  Hamiltonian                  GFN2-xTB          :
 * total energy  :   -32.9763826 Eh     change       -0.4677716E-09 Eh
 * total energy  :   -32.9824080 Eh     change       -0.6025389E-02 Eh
 * total energy  :   -32.9836879 Eh     change       -0.1279925E-02 Eh
 * total energy  :   -32.9837427 Eh     change       -0.5478507E-04 Eh
 * total energy  :   -32.9837809 Eh     change       -0.3827140E-04 Eh
 * total energy  :   -32.9838105 Eh     change       -0.2958527E-04 Eh
 * total energy  :   -32.9838320 Eh     change       -0.2148712E-04 Eh
 * total energy  :   -32.9838751 Eh     change       -0.4307723E-04 Eh
 * total energy  :   -32.9839183 Eh     change       -0.4321676E-04 Eh
 * total energy  :   -32.9839563 Eh     change       -0.3802367E-04 Eh
 * total energy  :   -32.9842064 Eh     change       -0.1981852E-04 Eh
 * total energy  :   -32.9842249 Eh     change       -0.1848331E-04 Eh
 * total energy  :   -32.9842330 Eh     change       -0.8035941E-05 Eh
 * total energy  :   -32.9842416 Eh     change       -0.8623147E-05 Eh
 * total energy  :   -32.9842515 Eh     change       -0.9912240E-05 Eh
 * total energy  :   -32.9842616 Eh     change       -0.1010350E-04 Eh
 * total energy  :   -32.9842700 Eh     change       -0.8435931E-05 Eh
 * total energy  :   -32.9842763 Eh     change       -0.6254539E-05 Eh
 * total energy  :   -32.9842809 Eh     change       -0.4594248E-05 Eh
   *** GEOMETRY OPTIMIZATION CONVERGED AFTER 28 ITERATIONS ***

 final structure:
================
25
 xtb: 6.7.1 (edcfbbe)
O            2.35701691103667        0.19102204230855       -0.16844075109251
C            1.02396804964944        0.14448030585483       -0.26822669786140
C            0.36932464470573        1.25608211111456       -0.80576262134947
C           -0.99939722533259        1.24633005752631       -0.92620219562237
C           -1.75113963484477        0.14600624202048       -0.52575569268518
C           -1.10861170360666       -0.95689478421022        0.00617823528626
C            0.27664062124442       -0.95788296433386        0.13975428696639
N           -1.85833034984975       -2.16298671931992        0.45738456248799
C           -1.66260472718015       -2.33192846900782        1.91242320719299
C           -3.30827150818426       -2.06283772149717        0.20324622784942
C           -1.35803013065005       -3.34984106917678       -0.26809974082318
H            2.73599197238031       -0.61380131266685        0.20731282088457
H            0.96073544608832        2.10143769361116       -1.11495324876157
H           -1.50791266254565        2.10255456509112       -1.33844086616506
H           -2.81798835974904        0.19550423722857       -0.64648641282286
H            0.80621364843546       -1.80188376400437        0.55775273374376
H           -2.02441790952736       -1.44724200371943        2.43412465078346
H           -2.21247194730751       -3.20332783121541        2.26441053455292
H           -0.61025060498541       -2.46475927606047        2.14947792432159
H           -3.49947084049027       -1.94242903352856       -0.86131550469827
H           -3.79562069856975       -2.97643726581560        0.54064663544140
H           -3.73564451398888       -1.22518240022687        0.75038343047514
H           -1.45498287653850       -3.18908121948440       -1.34066453342351
H           -0.31251505971923       -3.53666460900732       -0.03921055080953
H           -1.93466054047023       -4.22913681148039        0.01426356612880

          :  Hamiltonian                  GFN2-xTB          :
         :: total energy             -32.984280887649 Eh    ::
         :: gradient norm              0.000165777055 Eh/a0 ::
         :: HOMO-LUMO gap              4.047848131183 eV    ::
         :: SCC energy               -33.481699701929 Eh    ::
         :: -> dispersion             -0.020174159308 Eh    ::
         :: repulsion energy           0.497418814280 Eh    ::

    * Orbital Energies and Occupations

         #    Occupation            Energy/Eh            Energy/eV
      -------------------------------------------------------------
         1        2.0000           -0.8666159             -23.5818
       ...           ...                  ...                  ...
        18        2.0000           -0.6611610             -17.9911
        19        2.0000           -0.6528696             -17.7655
        20        2.0000           -0.6497081             -17.6795
        21        2.0000           -0.6469517             -17.6045
        22        2.0000           -0.6435875             -17.5129
        23        2.0000           -0.6412483             -17.4493
        24        2.0000           -0.6238841             -16.9767
        25        2.0000           -0.6166031             -16.7786
        26        2.0000           -0.6110044             -16.6263
        27        2.0000           -0.5838179             -15.8865
        28        2.0000           -0.5700460             -15.5117
        29        2.0000           -0.5548807             -15.0991
        30        2.0000           -0.5273789             -14.3507 (HOMO)
        31                         -0.3786232             -10.3029 (LUMO)
        32                         -0.3614884              -9.8366
        33                         -0.2405687              -6.5462
        34                         -0.2292449              -6.2381
        35                         -0.1602754              -4.3613
        36                         -0.1429708              -3.8904
        37                         -0.1280514              -3.4845
        38                         -0.0718599              -1.9554
        39                         -0.0500207              -1.3611
        40                         -0.0134806              -0.3668
        41                         -0.0032420              -0.0882
       ...                                ...                  ...
        58                          0.5215775              14.1928
      -------------------------------------------------------------
                  HL-Gap            0.1487557 Eh            4.0478 eV

     #   Z          covCN         q      C6AA      α(0)
     1   8 O        1.661    -0.348    19.861     6.016
     2   6 C        2.845     0.167    24.405     8.096
     3   6 C        2.917    -0.041    29.028     8.835
     4   6 C        2.922    -0.019    28.472     8.750
     5   6 C        2.918    -0.055    29.375     8.888
     6   6 C        2.929     0.029    27.352     8.577
     7   6 C        2.919    -0.085    30.141     9.003
     8   7 N        3.625     0.137    18.911     6.459
     9   6 C        3.725    -0.090    22.332     6.748
    10   6 C        3.726    -0.093    22.392     6.756
    11   6 C        3.725    -0.090    22.336     6.748
    12   1 H        0.805     0.318     0.668     1.284
    13   1 H        0.926     0.093     1.849     2.126
    14   1 H        0.926     0.080     1.982     2.201
    15   1 H        0.926     0.065     2.137     2.286
    16   1 H        0.926     0.045     2.383     2.414
    17   1 H        0.925     0.099     1.798     2.097
    18   1 H        0.925     0.097     1.810     2.104
    19   1 H        0.925     0.098     1.804     2.101
    20   1 H        0.925     0.102     1.770     2.080
    21   1 H        0.925     0.097     1.808     2.103
    22   1 H        0.925     0.101     1.772     2.082
    23   1 H        0.925     0.099     1.796     2.096
    24   1 H        0.925     0.098     1.804     2.101
    25   1 H        0.925     0.097     1.812     2.105

Wiberg/Mayer (AO) data.
largest (>0.10) Wiberg bond orders for each atom

     #   Z sym  total        # sym  WBO       # sym  WBO       # sym  WBO
 ---------------------------------------------------------------------------
     1   8 O    2.190 --     2 C    1.130    12 H    0.876
     2   6 C    3.946 --     7 C    1.365     3 C    1.327     1 O    1.130
     3   6 C    3.984 --     4 C    1.491     2 C    1.327    13 H    0.962
                             6 C    0.103
     4   6 C    3.987 --     3 C    1.491     5 C    1.392    14 H    0.965
     5   6 C    3.987 --     6 C    1.438     4 C    1.392    15 H    0.962
     6   6 C    3.918 --     5 C    1.438     7 C    1.400     8 N    0.901
                             3 C    0.103
     7   6 C    3.981 --     6 C    1.400     2 C    1.365    16 H    0.958
     8   7 N    3.811 --    10 C    0.959    11 C    0.953     9 C    0.953
                             6 C    0.901
     9   6 C    3.928 --    17 H    0.976    18 H    0.974    19 H    0.973
                             8 N    0.953
    10   6 C    3.927 --    20 H    0.974    22 H    0.973    21 H    0.973
                             8 N    0.959
    11   6 C    3.928 --    23 H    0.976    25 H    0.974    24 H    0.972
                             8 N    0.953
    12   1 H    0.899 --     1 O    0.876
    13   1 H    0.990 --     3 C    0.962
    14   1 H    0.993 --     4 C    0.965
    15   1 H    0.996 --     5 C    0.962
    16   1 H    0.998 --     7 C    0.958
    17   1 H    0.990 --     9 C    0.976
    18   1 H    0.990 --     9 C    0.974
    19   1 H    0.990 --     9 C    0.973
    20   1 H    0.990 --    10 C    0.974
    21   1 H    0.990 --    10 C    0.973
    22   1 H    0.990 --    10 C    0.973
    23   1 H    0.990 --    11 C    0.976
    24   1 H    0.990 --    11 C    0.972
    25   1 H    0.990 --    11 C    0.974
 ---------------------------------------------------------------------------

molecular dipole:
                 x           y           z       tot (Debye)
 q only:       -2.883      -3.669       0.742
   full:       -2.890      -3.957       0.866      12.648

           -------------------------------------------------
          | TOTAL ENERGY              -32.984280887649 Eh   |
          | GRADIENT NORM               0.000165777055 Eh/α |
          | HOMO-LUMO GAP               4.047848131183 eV   |
           -------------------------------------------------

 * finished run on 2024/12/20 at 02:14:00.201
