   * xtb version 6.7.1 (edcfbbe) compiled by 'conda@3ef47c1a292c' on 2024-11-25

   ID    Z sym.   atoms
    1    6 C      1-5, 7-13
    2    7 N      6
    3    1 H      14-41

          program call               : xtb C0298.xyz --opt --namespace C0298 --charge +1
          :  Hamiltonian                  GFN2-xTB          :
 * total energy  :   -42.5008356 Eh     change       -0.3175415E-10 Eh
 * total energy  :   -42.5069309 Eh     change       -0.6095343E-02 Eh
 * total energy  :   -42.5083488 Eh     change       -0.1417927E-02 Eh
 * total energy  :   -42.5084276 Eh     change       -0.7882319E-04 Eh
 * total energy  :   -42.5084853 Eh     change       -0.5761613E-04 Eh
 * total energy  :   -42.5085065 Eh     change       -0.2125815E-04 Eh
 * total energy  :   -42.5085376 Eh     change       -0.3103395E-04 Eh
 * total energy  :   -42.5085494 Eh     change       -0.1180444E-04 Eh
 * total energy  :   -42.5085663 Eh     change       -0.1695784E-04 Eh
 * total energy  :   -42.5085755 Eh     change       -0.9203719E-05 Eh
 * total energy  :   -42.5086115 Eh     change       -0.1106160E-04 Eh
 * total energy  :   -42.5086214 Eh     change       -0.9942847E-05 Eh
 * total energy  :   -42.5086281 Eh     change       -0.6670067E-05 Eh
 * total energy  :   -42.5086335 Eh     change       -0.5476864E-05 Eh
 * total energy  :   -42.5086404 Eh     change       -0.6892632E-05 Eh
 * total energy  :   -42.5086489 Eh     change       -0.8416408E-05 Eh
 * total energy  :   -42.5086569 Eh     change       -0.8065282E-05 Eh
 * total energy  :   -42.5086641 Eh     change       -0.7146651E-05 Eh
 * total energy  :   -42.5086667 Eh     change       -0.2626503E-05 Eh
   *** GEOMETRY OPTIMIZATION CONVERGED AFTER 22 ITERATIONS ***

 final structure:
================
41
 xtb: 6.7.1 (edcfbbe)
C            1.16587640344468       -0.32401559073734       -0.04038750520196
C            1.06354242279016        1.19440399729734        0.04295992253894
C            1.35206538599989        1.89740972025066       -1.28537544595383
C            0.45760947823441        1.47360742245090       -2.45734001079711
C           -1.05771405803387        1.55349505767980       -2.24934131028992
N           -1.74208808451905        2.86144414422391       -2.50317950458864
C           -1.47456121102473        3.41227741577162       -3.87012665161974
C           -1.77516359168487        2.52600770399559       -5.08256849740441
C           -3.21166248394316        2.53333329068414       -5.62069297622292
C           -3.77824611802803        3.91646972232964       -5.94910434307983
C           -2.94224378304536        4.68856134600850       -6.96300356863708
C           -3.18798062674968        2.64640818888407       -2.30164843592386
C           -1.30320593221201        3.87742906679105       -1.52715818345368
H            0.37152418549760       -0.75092212521307       -0.64844612098769
H            1.09292363677139       -0.75522867568243        0.95407869003024
H            2.12249582170855       -0.61652864600277       -0.46527842337008
H            0.07956391404012        1.47566062686958        0.42729384690068
H            1.79541021126739        1.55431154820629        0.76744833643236
H            1.31730100063164        2.97589135879628       -1.12613381641093
H            2.37666664773508        1.65917739035804       -1.57658383782643
H            0.75785626231676        2.02208626487911       -3.34979728709236
H            0.67244572639517        0.42311861665412       -2.65964854362623
H           -1.53186503740747        0.82355765769403       -2.90686325490754
H           -1.28969980289477        1.26601538638261       -1.22283796673714
H           -2.04502547620225        4.33800434169371       -3.95828120786029
H           -0.41687990348010        3.67809033206206       -3.89495869224506
H           -1.13204353080127        2.89410071435237       -5.88351431077206
H           -1.47034623162289        1.49627593841206       -4.89764680686443
H           -3.19986009011265        1.94723701637261       -6.54140822995770
H           -3.89607652338050        2.02686756320355       -4.93896065110490
H           -4.77783106025670        3.76949808606294       -6.36053677140505
H           -3.89900088406048        4.51388913700570       -5.04161335198164
H           -2.77478381794640        4.08701089834189       -7.85256026347781
H           -3.46452889419503        5.59321204555188       -7.26142482311717
H           -1.97706922365225        4.97959957713068       -6.55469640517145
H           -3.38683823838089        2.39884270553412       -1.26004997935685
H           -3.74164726143627        3.54769709234535       -2.55697081218811
H           -3.54342202898597        1.82959069698735       -2.92359838845024
H           -1.39751440351496        3.49152203058870       -0.51412332391885
H           -0.26675760592204        4.15259210266874       -1.70154665423526
H           -1.91764519333660        4.77186883311245       -1.61772443966771

          :  Hamiltonian                  GFN2-xTB          :
         :: total energy             -42.508666697261 Eh    ::
         :: gradient norm              0.000169323632 Eh/a0 ::
         :: HOMO-LUMO gap              8.399059386523 eV    ::
         :: SCC energy               -43.125301490879 Eh    ::
         :: -> dispersion             -0.031272778066 Eh    ::
         :: repulsion energy           0.616634793618 Eh    ::

    * Orbital Energies and Occupations

         #    Occupation            Energy/Eh            Energy/eV
      -------------------------------------------------------------
         1        2.0000           -0.8589258             -23.3726
       ...           ...                  ...                  ...
        28        2.0000           -0.6108423             -16.6219
        29        2.0000           -0.5906824             -16.0733
        30        2.0000           -0.5898275             -16.0500
        31        2.0000           -0.5834957             -15.8777
        32        2.0000           -0.5820882             -15.8394
        33        2.0000           -0.5720587             -15.5665
        34        2.0000           -0.5714539             -15.5501
        35        2.0000           -0.5481014             -14.9146
        36        2.0000           -0.5476715             -14.9029
        37        2.0000           -0.5414835             -14.7345
        38        2.0000           -0.5413456             -14.7308
        39        2.0000           -0.5367647             -14.6061
        40        2.0000           -0.5367481             -14.6057 (HOMO)
        41                         -0.2280883              -6.2066 (LUMO)
        42                         -0.1687661              -4.5924
        43                         -0.1464888              -3.9862
        44                         -0.1430387              -3.8923
        45                         -0.0780450              -2.1237
        46                         -0.0707700              -1.9258
        47                         -0.0613918              -1.6706
        48                         -0.0379281              -1.0321
        49                         -0.0349294              -0.9505
        50                         -0.0327201              -0.8904
        51                         -0.0168523              -0.4586
       ...                                ...                  ...
        80                          0.1940286               5.2798
      -------------------------------------------------------------
                  HL-Gap            0.3086598 Eh            8.3991 eV

     #   Z          covCN         q      C6AA      α(0)
     1   6 C        3.751    -0.112    22.704     6.795
     2   6 C        3.799    -0.058    21.623     6.621
     3   6 C        3.800    -0.070    21.841     6.654
     4   6 C        3.799    -0.074    21.916     6.666
     5   6 C        3.758    -0.039    21.326     6.584
     6   7 N        3.620     0.129    19.039     6.481
     7   6 C        3.758    -0.039    21.326     6.584
     8   6 C        3.799    -0.074    21.916     6.666
     9   6 C        3.800    -0.070    21.841     6.654
    10   6 C        3.799    -0.058    21.623     6.621
    11   6 C        3.751    -0.112    22.704     6.795
    12   6 C        3.728    -0.092    22.352     6.750
    13   6 C        3.728    -0.092    22.352     6.750
    14   1 H        0.925     0.032     2.562     2.503
    15   1 H        0.925     0.050     2.317     2.380
    16   1 H        0.925     0.048     2.345     2.395
    17   1 H        0.924     0.021     2.713     2.576
    18   1 H        0.924     0.050     2.314     2.379
    19   1 H        0.924     0.033     2.549     2.497
    20   1 H        0.924     0.059     2.209     2.325
    21   1 H        0.925     0.053     2.282     2.362
    22   1 H        0.924     0.077     2.014     2.219
    23   1 H        0.924     0.079     1.984     2.203
    24   1 H        0.924     0.090     1.880     2.144
    25   1 H        0.924     0.090     1.880     2.144
    26   1 H        0.924     0.079     1.984     2.203
    27   1 H        0.924     0.077     2.014     2.219
    28   1 H        0.925     0.053     2.282     2.362
    29   1 H        0.924     0.059     2.209     2.325
    30   1 H        0.924     0.033     2.549     2.497
    31   1 H        0.924     0.050     2.314     2.379
    32   1 H        0.924     0.021     2.713     2.576
    33   1 H        0.925     0.048     2.345     2.395
    34   1 H        0.925     0.050     2.317     2.380
    35   1 H        0.925     0.032     2.562     2.503
    36   1 H        0.925     0.092     1.857     2.131
    37   1 H        0.925     0.096     1.820     2.110
    38   1 H        0.925     0.100     1.789     2.091
    39   1 H        0.925     0.096     1.820     2.110
    40   1 H        0.925     0.100     1.789     2.091
    41   1 H        0.925     0.092     1.857     2.131

Wiberg/Mayer (AO) data.
largest (>0.10) Wiberg bond orders for each atom

     #   Z sym  total        # sym  WBO       # sym  WBO       # sym  WBO
 ---------------------------------------------------------------------------
     1   6 C    3.994 --     2 C    1.020    14 H    0.986    16 H    0.986
                            15 H    0.985
     2   6 C    3.996 --     1 C    1.020     3 C    1.008    18 H    0.975
                            17 H    0.973
     3   6 C    3.993 --     2 C    1.008     4 C    1.005    20 H    0.973
                            19 H    0.971
     4   6 C    3.984 --     5 C    1.005     3 C    1.005    21 H    0.968
                            22 H    0.964
     5   6 C    3.928 --     4 C    1.005    23 H    0.964    24 H    0.960
                             6 N    0.923
     6   7 N    3.808 --    12 C    0.960    13 C    0.960     7 C    0.923
                             5 C    0.923
     7   6 C    3.928 --     8 C    1.005    26 H    0.964    25 H    0.960
                             6 N    0.923
     8   6 C    3.984 --     7 C    1.005     9 C    1.005    28 H    0.968
                            27 H    0.964
     9   6 C    3.993 --    10 C    1.008     8 C    1.005    29 H    0.973
                            30 H    0.971
    10   6 C    3.996 --    11 C    1.020     9 C    1.008    31 H    0.975
                            32 H    0.973
    11   6 C    3.994 --    10 C    1.020    35 H    0.986    33 H    0.986
                            34 H    0.985
    12   6 C    3.931 --    36 H    0.976    37 H    0.974    38 H    0.968
                             6 N    0.960
    13   6 C    3.931 --    41 H    0.976    39 H    0.974    40 H    0.968
                             6 N    0.960
    14   1 H    0.999 --     1 C    0.986
    15   1 H    0.997 --     1 C    0.985
    16   1 H    0.998 --     1 C    0.986
    17   1 H    1.000 --     2 C    0.973
    18   1 H    0.997 --     2 C    0.975
    19   1 H    0.999 --     3 C    0.971
    20   1 H    0.996 --     3 C    0.973
    21   1 H    0.997 --     4 C    0.968
    22   1 H    0.994 --     4 C    0.964
    23   1 H    0.994 --     5 C    0.964
    24   1 H    0.992 --     5 C    0.960
    25   1 H    0.992 --     7 C    0.960
    26   1 H    0.994 --     7 C    0.964
    27   1 H    0.994 --     8 C    0.964
    28   1 H    0.997 --     8 C    0.968
    29   1 H    0.996 --     9 C    0.973
    30   1 H    0.999 --     9 C    0.971
    31   1 H    0.997 --    10 C    0.975
    32   1 H    1.000 --    10 C    0.973
    33   1 H    0.998 --    11 C    0.986
    34   1 H    0.997 --    11 C    0.985
    35   1 H    0.999 --    11 C    0.986
    36   1 H    0.991 --    12 C    0.976
    37   1 H    0.990 --    12 C    0.974
    38   1 H    0.990 --    12 C    0.968
    39   1 H    0.990 --    13 C    0.974
    40   1 H    0.990 --    13 C    0.968
    41   1 H    0.991 --    13 C    0.976
 ---------------------------------------------------------------------------

molecular dipole:
                 x           y           z       tot (Debye)
 q only:       -2.997       5.173      -5.075
   full:       -3.040       5.207      -5.025      19.950

           -------------------------------------------------
          | TOTAL ENERGY              -42.508666697261 Eh   |
          | GRADIENT NORM               0.000169323632 Eh/α |
          | HOMO-LUMO GAP               8.399059386523 eV   |
           -------------------------------------------------

 * finished run on 2024/12/20 at 02:14:23.117
