   * xtb version 6.7.1 (edcfbbe) compiled by 'conda@3ef47c1a292c' on 2024-11-25

   ID    Z sym.   atoms
    1    6 C      1, 3, 4, 6-14, 16-21
    2    7 N      2, 5
    3    8 O      15
    4    1 H      22-38

          program call               : xtb C0290.xyz --opt --namespace C0290 --charge +1
          :  Hamiltonian                  GFN2-xTB          :
 * total energy  :   -56.7143900 Eh     change       -0.8556853E-09 Eh
 * total energy  :   -56.7200418 Eh     change       -0.5651820E-02 Eh
 * total energy  :   -56.7212237 Eh     change       -0.1181843E-02 Eh
 * total energy  :   -56.7214936 Eh     change       -0.2699219E-03 Eh
 * total energy  :   -56.7217095 Eh     change       -0.2159163E-03 Eh
 * total energy  :   -56.7218341 Eh     change       -0.1246075E-03 Eh
 * total energy  :   -56.7220188 Eh     change       -0.1847141E-03 Eh
 * total energy  :   -56.7222496 Eh     change       -0.2308129E-03 Eh
 * total energy  :   -56.7224530 Eh     change       -0.2033553E-03 Eh
 * total energy  :   -56.7226273 Eh     change       -0.1742577E-03 Eh
 * total energy  :   -56.7238523 Eh     change       -0.2463785E-04 Eh
 * total energy  :   -56.7238736 Eh     change       -0.2127188E-04 Eh
 * total energy  :   -56.7238946 Eh     change       -0.2105060E-04 Eh
 * total energy  :   -56.7239168 Eh     change       -0.2215132E-04 Eh
 * total energy  :   -56.7239408 Eh     change       -0.2405227E-04 Eh
 * total energy  :   -56.7239629 Eh     change       -0.2205042E-04 Eh
 * total energy  :   -56.7239765 Eh     change       -0.1365377E-04 Eh
 * total energy  :   -56.7239863 Eh     change       -0.9757970E-05 Eh
 * total energy  :   -56.7239885 Eh     change       -0.2225275E-05 Eh
   *** GEOMETRY OPTIMIZATION CONVERGED AFTER 44 ITERATIONS ***

 final structure:
================
38
 xtb: 6.7.1 (edcfbbe)
C            0.61577745474257        1.31356268349759        0.22638303965011
N            0.44041606081319        1.26934144172174       -1.20027372494946
C            1.03616669903575        2.10619335790888       -2.09451975790040
C            0.62010701488541        1.73480855769106       -3.33651451106776
N           -0.22673620745859        0.68032121859598       -3.18141981103311
C           -0.31581519914851        0.41289146821274       -1.88262921218175
C           -0.83281860868585       -0.06567630263414       -4.26777457405397
C            0.24628463057605       -0.80676071057204       -5.02552200006529
C            0.69870100302951       -0.33709216801805       -6.25126789256910
C            1.72958092398986       -0.98697246899066       -6.90401149599859
C            2.30888525938521       -2.12222610483110       -6.34786929395399
C            1.85195858366495       -2.59501530543867       -5.12147686991791
C            0.83206591683125       -1.93483189220555       -4.46238391532054
C            3.47965392590600       -2.75157054054504       -7.04099257285001
O            4.36001250147145       -2.04980420531583       -7.49016066970471
C            3.50047448492168       -4.22479197055674       -7.11886134723481
C            4.72784396975687       -4.86092034492541       -7.31273790249407
C            4.79299489514956       -6.23745703088720       -7.40006371294372
C            3.63260481502901       -6.99143467848327       -7.31419593358028
C            2.40644837976531       -6.36581394955863       -7.14636257586878
C            2.33539116537572       -4.98938103399253       -7.04524221849165
H           -0.03019086545511        0.57983807497713        0.70307355740880
H            0.36776625026309        2.30622871579981        0.60292085964330
H            1.65332042622590        1.09575779178697        0.48376268263198
H            1.70005028151335        2.89131047932509       -1.79491972974126
H            0.86757152022947        2.13680425528319       -4.29759759756522
H           -0.91266388708338       -0.36635530997688       -1.44932385333901
H           -1.56115995186425       -0.75999205102791       -3.84445670402260
H           -1.34805041649015        0.63488472049284       -4.92899504227904
H            0.24545931471088        0.53491706545880       -6.69950838958895
H            2.09748506706531       -0.62074051365901       -7.84995540179369
H            2.30727885126643       -3.46692607614243       -4.67711472423509
H            0.48465028315949       -2.30432380797607       -3.50773264158043
H            5.61770976220644       -4.25371619007191       -7.38451150607457
H            5.74561695756748       -6.72462744442362       -7.54066104151248
H            3.68129574558484       -8.06729377643449       -7.38674415556431
H            1.50289585792831       -6.95481429695327       -7.09804208908600
H            1.37503713413467       -4.50567165712022       -6.93740727078337

          :  Hamiltonian                  GFN2-xTB          :
         :: total energy             -56.723988506471 Eh    ::
         :: gradient norm              0.000240961412 Eh/a0 ::
         :: HOMO-LUMO gap              1.744783085252 eV    ::
         :: SCC energy               -57.687809546467 Eh    ::
         :: -> dispersion             -0.038296146017 Eh    ::
         :: repulsion energy           0.963821039995 Eh    ::

    * Orbital Energies and Occupations

         #    Occupation            Energy/Eh            Energy/eV
      -------------------------------------------------------------
         1        2.0000           -0.8969195             -24.4064
       ...           ...                  ...                  ...
        40        2.0000           -0.5720799             -15.5671
        41        2.0000           -0.5652568             -15.3814
        42        2.0000           -0.5574924             -15.1701
        43        2.0000           -0.5561759             -15.1343
        44        2.0000           -0.5546969             -15.0941
        45        2.0000           -0.5388026             -14.6616
        46        2.0000           -0.5257200             -14.3056
        47        2.0000           -0.5215791             -14.1929
        48        2.0000           -0.5141801             -13.9916
        49        2.0000           -0.5004786             -13.6187
        50        2.0000           -0.4878065             -13.2739
        51        2.0000           -0.4861302             -13.2283
        52        2.0000           -0.4712354             -12.8230 (HOMO)
        53                         -0.4071158             -11.0782 (LUMO)
        54                         -0.3734147             -10.1611
        55                         -0.3705340             -10.0827
        56                         -0.3429342              -9.3317
        57                         -0.3357136              -9.1352
        58                         -0.3035409              -8.2598
        59                         -0.2726538              -7.4193
        60                         -0.2154420              -5.8625
        61                         -0.1759238              -4.7871
        62                         -0.1639874              -4.4623
        63                         -0.1230538              -3.3485
       ...                                ...                  ...
       101                          0.6006889              16.3456
      -------------------------------------------------------------
                  HL-Gap            0.0641196 Eh            1.7448 eV

     #   Z          covCN         q      C6AA      α(0)
     1   6 C        3.692    -0.086    22.338     6.763
     2   7 N        2.867     0.077    19.906     6.626
     3   6 C        3.074    -0.008    28.146     8.699
     4   6 C        3.074    -0.004    28.042     8.682
     5   7 N        2.872     0.069    20.031     6.647
     6   6 C        3.099     0.045    26.872     8.495
     7   6 C        3.747    -0.029    21.158     6.561
     8   6 C        2.974    -0.001    28.046     8.687
     9   6 C        2.921    -0.035    28.862     8.810
    10   6 C        2.923    -0.014    28.372     8.735
    11   6 C        2.973     0.002    27.977     8.676
    12   6 C        2.920    -0.023    28.577     8.766
    13   6 C        2.922    -0.038    28.942     8.822
    14   6 C        2.828     0.227    23.240     7.900
    15   8 O        0.858    -0.351    20.722     6.103
    16   6 C        2.972    -0.015    28.379     8.738
    17   6 C        2.925    -0.014    28.367     8.734
    18   6 C        2.917    -0.022    28.561     8.764
    19   6 C        2.920    -0.016    28.418     8.742
    20   6 C        2.918    -0.025    28.626     8.774
    21   6 C        2.920    -0.027    28.671     8.781
    22   1 H        0.925     0.099     1.791     2.093
    23   1 H        0.924     0.108     1.715     2.048
    24   1 H        0.924     0.107     1.718     2.050
    25   1 H        0.926     0.111     1.688     2.032
    26   1 H        0.926     0.112     1.681     2.028
    27   1 H        0.926     0.111     1.686     2.030
    28   1 H        0.924     0.085     1.925     2.169
    29   1 H        0.924     0.094     1.845     2.124
    30   1 H        0.926     0.049     2.337     2.390
    31   1 H        0.926     0.073     2.051     2.240
    32   1 H        0.926     0.056     2.244     2.343
    33   1 H        0.926     0.036     2.508     2.477
    34   1 H        0.926     0.065     2.147     2.291
    35   1 H        0.926     0.053     2.284     2.363
    36   1 H        0.926     0.052     2.296     2.370
    37   1 H        0.926     0.045     2.378     2.411
    38   1 H        0.926     0.032     2.552     2.498

Wiberg/Mayer (AO) data.
largest (>0.10) Wiberg bond orders for each atom

     #   Z sym  total        # sym  WBO       # sym  WBO       # sym  WBO
 ---------------------------------------------------------------------------
     1   6 C    3.933 --     2 N    0.991    22 H    0.976    23 H    0.963
                            24 H    0.961
     2   7 N    3.719 --     6 C    1.357     3 C    1.227     1 C    0.991
     3   6 C    3.948 --     4 C    1.593     2 N    1.227    25 H    0.961
     4   6 C    3.950 --     3 C    1.593     5 N    1.230    26 H    0.960
     5   7 N    3.718 --     6 C    1.364     4 C    1.230     7 C    0.957
     6   6 C    3.944 --     5 N    1.364     2 N    1.357    27 H    0.954
     7   6 C    3.934 --     8 C    0.979    28 H    0.964    29 H    0.957
                             5 N    0.957
     8   6 C    3.977 --     9 C    1.413    13 C    1.407     7 C    0.979
                            11 C    0.103
     9   6 C    3.989 --    10 C    1.445     8 C    1.413    30 H    0.966
                            12 C    0.106
    10   6 C    3.985 --     9 C    1.445    11 C    1.400    31 H    0.965
                            13 C    0.108
    11   6 C    3.984 --    10 C    1.400    12 C    1.392    14 C    0.983
                             8 C    0.103
    12   6 C    3.990 --    13 C    1.453    11 C    1.392    32 H    0.967
                             9 C    0.106
    13   6 C    3.991 --    12 C    1.453     8 C    1.407    33 H    0.968
                            10 C    0.108
    14   6 C    3.931 --    15 O    1.810    16 C    1.037    11 C    0.983
    15   8 O    2.074 --    14 C    1.810
    16   6 C    3.988 --    21 C    1.373    17 C    1.372    14 C    1.037
    17   6 C    3.987 --    18 C    1.457    16 C    1.372    34 H    0.966
                            20 C    0.105
    18   6 C    3.990 --    17 C    1.457    19 C    1.431    35 H    0.969
                            21 C    0.106
    19   6 C    3.989 --    18 C    1.431    20 C    1.428    36 H    0.970
    20   6 C    3.991 --    21 C    1.459    19 C    1.428    37 H    0.970
                            17 C    0.105
    21   6 C    3.992 --    20 C    1.459    16 C    1.373    38 H    0.967
                            18 C    0.106
    22   1 H    0.990 --     1 C    0.976
    23   1 H    0.988 --     1 C    0.963
    24   1 H    0.988 --     1 C    0.961
    25   1 H    0.987 --     3 C    0.961
    26   1 H    0.987 --     4 C    0.960
    27   1 H    0.988 --     6 C    0.954
    28   1 H    0.992 --     7 C    0.964
    29   1 H    0.990 --     7 C    0.957
    30   1 H    0.997 --     9 C    0.966
    31   1 H    0.994 --    10 C    0.965
    32   1 H    0.996 --    12 C    0.967
    33   1 H    0.998 --    13 C    0.968
    34   1 H    0.996 --    17 C    0.966
    35   1 H    0.997 --    18 C    0.969
    36   1 H    0.997 --    19 C    0.970
    37   1 H    0.997 --    20 C    0.970
    38   1 H    0.999 --    21 C    0.967
 ---------------------------------------------------------------------------

molecular dipole:
                 x           y           z       tot (Debye)
 q only:        0.225       0.161      -4.374
   full:       -0.030       0.086      -4.229      10.752

           -------------------------------------------------
          | TOTAL ENERGY              -56.723988506471 Eh   |
          | GRADIENT NORM               0.000240961412 Eh/α |
          | HOMO-LUMO GAP               1.744783085252 eV   |
           -------------------------------------------------

 * finished run on 2024/12/20 at 02:13:58.637
