   * xtb version 6.7.1 (edcfbbe) compiled by 'conda@3ef47c1a292c' on 2024-11-25

   ID    Z sym.   atoms
    1    6 C      1-4, 6-11
    2    7 N      5
    3    1 H      12-35

          program call               : xtb C0302.xyz --opt --namespace C0302 --charge +1
          :  Hamiltonian                  GFN2-xTB          :
 * total energy  :   -36.1691105 Eh     change       -0.7188561E-10 Eh
 * total energy  :   -36.1759180 Eh     change       -0.6807555E-02 Eh
 * total energy  :   -36.1776749 Eh     change       -0.1756887E-02 Eh
 * total energy  :   -36.1778246 Eh     change       -0.1496944E-03 Eh
 * total energy  :   -36.1780611 Eh     change       -0.2365036E-03 Eh
 * total energy  :   -36.1783026 Eh     change       -0.2414619E-03 Eh
 * total energy  :   -36.1786575 Eh     change       -0.3549558E-03 Eh
 * total energy  :   -36.1792325 Eh     change       -0.5749688E-03 Eh
 * total energy  :   -36.1799023 Eh     change       -0.6697493E-03 Eh
 * total energy  :   -36.1802910 Eh     change       -0.3887280E-03 Eh
 * total energy  :   -36.1816949 Eh     change       -0.4898160E-04 Eh
 * total energy  :   -36.1817241 Eh     change       -0.2928316E-04 Eh
 * total energy  :   -36.1817386 Eh     change       -0.1448959E-04 Eh
 * total energy  :   -36.1817577 Eh     change       -0.1905059E-04 Eh
 * total energy  :   -36.1817706 Eh     change       -0.1292209E-04 Eh
 * total energy  :   -36.1817797 Eh     change       -0.9136455E-05 Eh
 * total energy  :   -36.1817872 Eh     change       -0.7485069E-05 Eh
 * total energy  :   -36.1817958 Eh     change       -0.8552597E-05 Eh
 * total energy  :   -36.1818001 Eh     change       -0.4289874E-05 Eh
   *** GEOMETRY OPTIMIZATION CONVERGED AFTER 25 ITERATIONS ***

 final structure:
================
35
 xtb: 6.7.1 (edcfbbe)
C            2.16769698910193        0.15725596589783       -0.22479924191078
C            0.96818757446012        0.91213111230431       -0.78605408793083
C            0.67339872813549        0.56235347387347       -2.25001779353399
C            0.18874698548419       -0.87795200900723       -2.47272930744565
N           -1.27163162797863       -1.06117297743182       -2.72364480111017
C           -1.73039964502115       -0.26654853357209       -3.91479743229053
C           -0.83257309476426       -0.32675352547805       -5.14114301217373
C           -1.57355115140098       -2.50660182166397       -3.01673180640232
C           -0.72414478072211       -3.56879504012918       -2.33067283884327
C           -2.08543948875177       -0.57297956183571       -1.56502750542474
C           -1.98553466740353       -1.36895616711175       -0.27406728272046
H            1.99787573681687       -0.91688378126380       -0.18655841248277
H            2.37587586814554        0.49522813341767        0.78628123328405
H            3.05128088008812        0.34035303362914       -0.83089796714769
H            0.09610949961592        0.72945427922840       -0.15636660890792
H            1.18195184441163        1.98081995367091       -0.73817607150342
H           -0.03341507178824        1.28711639004720       -2.65194625147154
H            1.60265430743587        0.69254820346692       -2.80761482493061
H            0.70628599347258       -1.31430513399667       -3.32618902912483
H            0.44304768727093       -1.46634759677464       -1.59359827695729
H           -2.72567830196610       -0.63409572991917       -4.17416994779975
H           -1.83555454326266        0.77581175678559       -3.61172211918409
H           -0.63353410263357       -1.34207816689492       -5.47307106339734
H           -1.34731795498857        0.18305629610982       -5.95194443456801
H            0.11151939207315        0.18465919974311       -4.98183022015623
H           -2.62455254102468       -2.66460307661837       -2.76825421380239
H           -1.46137622593850       -2.65125808393908       -4.09173553744372
H           -0.71923831527266       -3.48887589272343       -1.24948744094052
H           -1.15551438414905       -4.53486725987439       -2.58388621062842
H            0.30034614520234       -3.56994085180394       -2.69073798430027
H           -1.78139748862119        0.45647269275123       -1.37235126270645
H           -3.12987738907790       -0.56075097522653       -1.88561836372640
H           -0.96619514772333       -1.44479266152764        0.09283727951553
H           -2.56269550263497       -0.84008172411515        0.48107736438857
H           -2.41227620658480       -2.36253992002163       -0.36774452622280

          :  Hamiltonian                  GFN2-xTB          :
         :: total energy             -36.181800074894 Eh    ::
         :: gradient norm              0.000534746756 Eh/a0 ::
         :: HOMO-LUMO gap              8.465001719763 eV    ::
         :: SCC energy               -36.705575165644 Eh    ::
         :: -> dispersion             -0.026737648147 Eh    ::
         :: repulsion energy           0.523775090750 Eh    ::

    * Orbital Energies and Occupations

         #    Occupation            Energy/Eh            Energy/eV
      -------------------------------------------------------------
         1        2.0000           -0.8516465             -23.1745
       ...           ...                  ...                  ...
        22        2.0000           -0.6278175             -17.0838
        23        2.0000           -0.6202636             -16.8782
        24        2.0000           -0.6131874             -16.6857
        25        2.0000           -0.6076291             -16.5344
        26        2.0000           -0.6064888             -16.5034
        27        2.0000           -0.6015503             -16.3690
        28        2.0000           -0.5992342             -16.3060
        29        2.0000           -0.5967658             -16.2388
        30        2.0000           -0.5913843             -16.0924
        31        2.0000           -0.5858312             -15.9413
        32        2.0000           -0.5653819             -15.3848
        33        2.0000           -0.5555936             -15.1185
        34        2.0000           -0.5486871             -14.9305 (HOMO)
        35                         -0.2376041              -6.4655 (LUMO)
        36                         -0.1740083              -4.7350
        37                         -0.1587695              -4.3203
        38                         -0.1551463              -4.2217
        39                         -0.0660075              -1.7962
        40                         -0.0633409              -1.7236
        41                         -0.0511342              -1.3914
        42                         -0.0437226              -1.1898
        43                         -0.0358515              -0.9756
        44                         -0.0293238              -0.7979
        45                         -0.0179502              -0.4885
       ...                                ...                  ...
        68                          0.1973513               5.3702
      -------------------------------------------------------------
                  HL-Gap            0.3110831 Eh            8.4650 eV

     #   Z          covCN         q      C6AA      α(0)
     1   6 C        3.751    -0.113    22.731     6.799
     2   6 C        3.799    -0.064    21.734     6.638
     3   6 C        3.799    -0.073    21.895     6.662
     4   6 C        3.748    -0.039    21.337     6.588
     5   7 N        3.616     0.100    19.516     6.561
     6   6 C        3.764    -0.030    21.153     6.556
     7   6 C        3.751    -0.128    23.014     6.842
     8   6 C        3.753    -0.031    21.191     6.564
     9   6 C        3.750    -0.129    23.050     6.847
    10   6 C        3.758    -0.029    21.137     6.555
    11   6 C        3.751    -0.125    22.958     6.833
    12   1 H        0.925     0.031     2.567     2.505
    13   1 H        0.925     0.056     2.247     2.344
    14   1 H        0.925     0.049     2.331     2.387
    15   1 H        0.924     0.038     2.470     2.458
    16   1 H        0.924     0.055     2.260     2.351
    17   1 H        0.925     0.049     2.326     2.385
    18   1 H        0.924     0.067     2.115     2.275
    19   1 H        0.925     0.083     1.950     2.184
    20   1 H        0.925     0.097     1.813     2.106
    21   1 H        0.924     0.078     1.998     2.211
    22   1 H        0.924     0.082     1.961     2.190
    23   1 H        0.925     0.063     2.167     2.302
    24   1 H        0.925     0.084     1.937     2.176
    25   1 H        0.925     0.072     2.067     2.248
    26   1 H        0.924     0.081     1.969     2.195
    27   1 H        0.924     0.085     1.927     2.171
    28   1 H        0.925     0.069     2.094     2.263
    29   1 H        0.925     0.082     1.961     2.190
    30   1 H        0.925     0.065     2.142     2.288
    31   1 H        0.924     0.086     1.914     2.163
    32   1 H        0.924     0.075     2.033     2.230
    33   1 H        0.925     0.066     2.126     2.280
    34   1 H        0.925     0.080     1.977     2.199
    35   1 H        0.925     0.067     2.116     2.275

Wiberg/Mayer (AO) data.
largest (>0.10) Wiberg bond orders for each atom

     #   Z sym  total        # sym  WBO       # sym  WBO       # sym  WBO
 ---------------------------------------------------------------------------
     1   6 C    3.993 --     2 C    1.021    14 H    0.986    13 H    0.984
                            12 H    0.983
     2   6 C    3.994 --     1 C    1.021     3 C    1.005    16 H    0.975
                            15 H    0.973
     3   6 C    3.987 --     2 C    1.005     4 C    1.002    18 H    0.970
                            17 H    0.967
     4   6 C    3.929 --     3 C    1.002    19 H    0.967    20 H    0.955
                             5 N    0.931
     5   7 N    3.796 --    10 C    0.932     4 C    0.931     6 C    0.929
                             8 C    0.926
     6   6 C    3.939 --     7 C    1.023    21 H    0.969    22 H    0.964
                             5 N    0.929
     7   6 C    3.982 --     6 C    1.023    25 H    0.981    23 H    0.976
                            24 H    0.972
     8   6 C    3.935 --     9 C    1.022    26 H    0.968    27 H    0.964
                             5 N    0.926
     9   6 C    3.982 --     8 C    1.022    30 H    0.982    28 H    0.977
                            29 H    0.972
    10   6 C    3.938 --    11 C    1.022    32 H    0.969    31 H    0.962
                             5 N    0.932
    11   6 C    3.983 --    10 C    1.022    35 H    0.980    33 H    0.977
                            34 H    0.973
    12   1 H    0.999 --     1 C    0.983
    13   1 H    0.997 --     1 C    0.984
    14   1 H    0.998 --     1 C    0.986
    15   1 H    0.999 --     2 C    0.973
    16   1 H    0.997 --     2 C    0.975
    17   1 H    0.997 --     3 C    0.967
    18   1 H    0.995 --     3 C    0.970
    19   1 H    0.993 --     4 C    0.967
    20   1 H    0.991 --     4 C    0.955
    21   1 H    0.994 --     6 C    0.969
    22   1 H    0.993 --     6 C    0.964
    23   1 H    0.996 --     7 C    0.976
    24   1 H    0.993 --     7 C    0.972
    25   1 H    0.995 --     7 C    0.981
    26   1 H    0.993 --     8 C    0.968
    27   1 H    0.993 --     8 C    0.964
    28   1 H    0.995 --     9 C    0.977
    29   1 H    0.993 --     9 C    0.972
    30   1 H    0.996 --     9 C    0.982
    31   1 H    0.993 --    10 C    0.962
    32   1 H    0.994 --    10 C    0.969
    33   1 H    0.996 --    11 C    0.977
    34   1 H    0.993 --    11 C    0.973
    35   1 H    0.995 --    11 C    0.980
 ---------------------------------------------------------------------------

molecular dipole:
                 x           y           z       tot (Debye)
 q only:       -1.984      -1.987      -4.899
   full:       -2.112      -1.962      -4.974      14.613

           -------------------------------------------------
          | TOTAL ENERGY              -36.181800074894 Eh   |
          | GRADIENT NORM               0.000534746756 Eh/α |
          | HOMO-LUMO GAP               8.465001719763 eV   |
           -------------------------------------------------

 * finished run on 2024/12/20 at 02:14:27.482
