   * xtb version 6.7.1 (edcfbbe) compiled by 'conda@3ef47c1a292c' on 2024-11-25

   ID    Z sym.   atoms
    1    6 C      1, 2, 4, 6, 8-15, 17-24, 26-31
    2    8 O      3, 5, 25
    3    7 N      7, 16
    4    1 H      32-56

          program call               : xtb C0303.xyz --opt --namespace C0303 --charge +1
          :  Hamiltonian                  GFN2-xTB          :
 * total energy  :   -86.0859114 Eh     change       -0.9941630E-09 Eh
 * total energy  :   -86.0988560 Eh     change       -0.1294467E-01 Eh
 * total energy  :   -86.1023926 Eh     change       -0.3536592E-02 Eh
 * total energy  :   -86.1031204 Eh     change       -0.7277995E-03 Eh
 * total energy  :   -86.1036075 Eh     change       -0.4871042E-03 Eh
 * total energy  :   -86.1039550 Eh     change       -0.3475207E-03 Eh
 * total energy  :   -86.1043460 Eh     change       -0.3909846E-03 Eh
 * total energy  :   -86.1048391 Eh     change       -0.4930443E-03 Eh
 * total energy  :   -86.1054636 Eh     change       -0.6245053E-03 Eh
 * total energy  :   -86.1062441 Eh     change       -0.7805291E-03 Eh
 * total energy  :   -86.1174812 Eh     change       -0.7379096E-05 Eh
 * total energy  :   -86.1174889 Eh     change       -0.7676128E-05 Eh
 * total energy  :   -86.1174959 Eh     change       -0.6983310E-05 Eh
 * total energy  :   -86.1175032 Eh     change       -0.7347438E-05 Eh
 * total energy  :   -86.1175137 Eh     change       -0.1043821E-04 Eh
 * total energy  :   -86.1175242 Eh     change       -0.1055834E-04 Eh
 * total energy  :   -86.1175309 Eh     change       -0.6673034E-05 Eh
 * total energy  :   -86.1175373 Eh     change       -0.6358041E-05 Eh
 * total energy  :   -86.1175405 Eh     change       -0.3190175E-05 Eh
   *** GEOMETRY OPTIMIZATION CONVERGED AFTER 65 ITERATIONS ***

 final structure:
================
56
 xtb: 6.7.1 (edcfbbe)
C           -0.45504271756065       -0.84022873155151       -1.13790489904412
C           -0.51604961177015       -2.34794713670759       -0.96393508400278
O            0.65007725822768       -2.83976170366966       -0.27335064683173
C            1.72187592540820       -3.10332413306075       -1.00872881094626
O            1.82019462378087       -2.99453430968608       -2.19323899137003
C            2.88700204884000       -3.59212493959757       -0.12173654063392
N            2.49269769442804       -3.80278136417793        1.24276353001053
C            2.36900352459220       -2.85857153570261        2.18594393341349
C            2.73595409823531       -1.43867393518188        2.01648833438200
C            4.18020957287262       -1.16028600312773        2.41837661958052
C            5.15331135825623       -2.14996581891135        2.39898251315086
C            6.45831247668558       -1.85239583345320        2.75360488358748
C            6.80102285689635       -0.56574827061681        3.12768714029780
C            5.83322502865658        0.42465072557185        3.14658655789620
C            4.52847489482566        0.12947922057568        2.79535273308726
N            1.91376441773972       -3.40482577275316        3.31972787523176
C            1.69612754043399       -4.75385076172888        3.09957806724104
C            2.06104311793035       -5.00642381875341        1.76642682083617
C            1.95314269787635       -6.27595722463269        1.21473476217724
C            1.47312594246946       -7.27650906234481        2.03553241443514
C            1.11030259493403       -7.02703520303732        3.36074879951981
C            1.21261555436901       -5.76778117706113        3.91675884739575
C            1.62214707900658       -2.69908240119673        4.54238347053090
C            2.77048119056269       -1.79808335166347        5.06328522447269
O            2.55569258046819       -0.61574217380512        5.17714077585227
C            4.04681022205189       -2.42879785762373        5.41280910243513
C            4.29399269781313       -3.80045614303750        5.31202699583355
C            5.53518168252080       -4.30465382569380        5.64753468440610
C            6.53968751380537       -3.45880558709211        6.09465558355793
C            6.30002882341248       -2.09857197203649        6.21367327673778
C            5.06485300263552       -1.58671111907101        5.87498126869694
H           -0.35850639886928       -0.34543462745507       -0.17456768740798
H           -1.36868613625750       -0.50020592519437       -1.61507641494918
H            0.38688590677549       -0.56585566653649       -1.76891741053268
H           -1.35599360163230       -2.64470103835707       -0.33414785504023
H           -0.58082423327218       -2.84368665891845       -1.93579976840088
H            3.25785003661984       -4.52849401077344       -0.54412576100320
H            3.69454414250177       -2.85701929606108       -0.18315138808361
H            2.59094643603102       -1.14229720637977        0.97419416725922
H            2.08315705307732       -0.81422778291564        2.63034297833745
H            4.90875303855444       -3.16475410892326        2.11655128543287
H            7.20461749527770       -2.63144951710737        2.73567461478124
H            7.81840591068512       -0.33538638448545        3.40162124582553
H            6.09201527000791        1.43077402170766        3.43680272186152
H            3.77613331203813        0.90252626058663        2.82041984861647
H            2.22138448661984       -6.47813162304893        0.19082986716712
H            1.37101375146789       -8.27591449949826        1.64429863277807
H            0.73655289398777       -7.83924947516712        3.96315921260946
H            0.92085174255614       -5.59066926408413        4.93946899653943
H            0.75484859335581       -2.04552752427698        4.39240426096747
H            1.37381753891178       -3.42755506534301        5.31591976742064
H            3.52765347196901       -4.48654823844436        4.98638211711437
H            5.72010797311813       -5.36526517371742        5.56867681190940
H            7.50449809594811       -3.86358113900202        6.35855878541059
H            7.07564670880550       -1.44097499923582        6.57302598345806
H            4.85650082127211       -0.53152983662071        5.96024574600925

          :  Hamiltonian                  GFN2-xTB          :
         :: total energy             -86.117540465524 Eh    ::
         :: gradient norm              0.000723345578 Eh/a0 ::
         :: HOMO-LUMO gap              2.805566066556 eV    ::
         :: SCC energy               -87.474787279030 Eh    ::
         :: -> dispersion             -0.072563069258 Eh    ::
         :: repulsion energy           1.357246813506 Eh    ::

    * Orbital Energies and Occupations

         #    Occupation            Energy/Eh            Energy/eV
      -------------------------------------------------------------
         1        2.0000           -0.8749783             -23.8094
       ...           ...                  ...                  ...
        66        2.0000           -0.5542840             -15.0828
        67        2.0000           -0.5506544             -14.9841
        68        2.0000           -0.5497479             -14.9594
        69        2.0000           -0.5466484             -14.8751
        70        2.0000           -0.5374509             -14.6248
        71        2.0000           -0.5354163             -14.5694
        72        2.0000           -0.5330724             -14.5056
        73        2.0000           -0.5300313             -14.4229
        74        2.0000           -0.5263959             -14.3240
        75        2.0000           -0.5219297             -14.2024
        76        2.0000           -0.5171583             -14.0726
        77        2.0000           -0.5129070             -13.9569
        78        2.0000           -0.5095678             -13.8660 (HOMO)
        79                         -0.4064652             -11.0605 (LUMO)
        80                         -0.4032464             -10.9729
        81                         -0.3602034              -9.8016
        82                         -0.3546041              -9.6493
        83                         -0.3525979              -9.5947
        84                         -0.3390435              -9.2258
        85                         -0.3343231              -9.0974
        86                         -0.3315069              -9.0208
        87                         -0.3103343              -8.4446
        88                         -0.2348811              -6.3914
        89                         -0.2036408              -5.5413
       ...                                ...                  ...
       149                          0.5611075              15.2685
      -------------------------------------------------------------
                  HL-Gap            0.1031027 Eh            2.8056 eV

     #   Z          covCN         q      C6AA      α(0)
     1   6 C        3.751    -0.120    22.865     6.819
     2   6 C        3.697     0.072    19.532     6.321
     3   8 O        1.702    -0.268    18.445     5.798
     4   6 C        2.712     0.358    20.920     7.487
     5   8 O        0.856    -0.362    20.928     6.133
     6   6 C        3.741    -0.047    21.486     6.613
     7   7 N        2.831     0.016    20.968     6.801
     8   6 C        3.075     0.126    25.164     8.225
     9   6 C        3.809    -0.078    21.982     6.674
    10   6 C        2.972     0.005    27.899     8.664
    11   6 C        2.922    -0.044    29.099     8.846
    12   6 C        2.920    -0.027    28.676     8.781
    13   6 C        2.920    -0.025    28.624     8.774
    14   6 C        2.920    -0.021    28.521     8.758
    15   6 C        2.924    -0.031    28.773     8.797
    16   7 N        2.828     0.013    21.034     6.812
    17   6 C        3.096     0.040    27.002     8.516
    18   6 C        3.094     0.040    26.997     8.516
    19   6 C        2.909    -0.034    28.838     8.806
    20   6 C        2.926    -0.019    28.481     8.752
    21   6 C        2.925    -0.020    28.501     8.755
    22   6 C        2.909    -0.035    28.863     8.809
    23   6 C        3.739    -0.041    21.379     6.597
    24   6 C        2.819     0.225    23.280     7.906
    25   8 O        0.858    -0.336    20.440     6.062
    26   6 C        2.970    -0.018    28.461     8.751
    27   6 C        2.919    -0.030    28.742     8.792
    28   6 C        2.918    -0.024    28.594     8.769
    29   6 C        2.921    -0.011    28.287     8.722
    30   6 C        2.916    -0.019    28.492     8.753
    31   6 C        2.928    -0.011    28.301     8.724
    32   1 H        0.925     0.055     2.255     2.348
    33   1 H        0.925     0.072     2.066     2.248
    34   1 H        0.925     0.065     2.138     2.286
    35   1 H        0.924     0.069     2.095     2.263
    36   1 H        0.924     0.074     2.047     2.237
    37   1 H        0.924     0.111     1.688     2.031
    38   1 H        0.924     0.108     1.711     2.046
    39   1 H        0.924     0.082     1.959     2.189
    40   1 H        0.924     0.096     1.826     2.113
    41   1 H        0.925     0.013     2.834     2.633
    42   1 H        0.926     0.045     2.383     2.414
    43   1 H        0.926     0.055     2.261     2.351
    44   1 H        0.926     0.060     2.201     2.320
    45   1 H        0.926     0.055     2.256     2.349
    46   1 H        0.926     0.068     2.108     2.270
    47   1 H        0.926     0.079     1.989     2.205
    48   1 H        0.926     0.078     1.996     2.209
    49   1 H        0.926     0.066     2.134     2.284
    50   1 H        0.924     0.095     1.833     2.117
    51   1 H        0.924     0.095     1.831     2.116
    52   1 H        0.926     0.032     2.552     2.498
    53   1 H        0.926     0.053     2.288     2.365
    54   1 H        0.926     0.063     2.166     2.301
    55   1 H        0.926     0.062     2.174     2.306
    56   1 H        0.926     0.073     2.054     2.241

Wiberg/Mayer (AO) data.
largest (>0.10) Wiberg bond orders for each atom

     #   Z sym  total        # sym  WBO       # sym  WBO       # sym  WBO
 ---------------------------------------------------------------------------
     1   6 C    3.988 --     2 C    1.015    32 H    0.985    34 H    0.984
                            33 H    0.978
     2   6 C    3.904 --     1 C    1.015    35 H    0.971    36 H    0.969
                             3 O    0.910
     3   8 O    2.318 --     4 C    1.163     2 C    0.910     5 O    0.188
     4   6 C    3.935 --     5 O    1.785     3 O    1.163     6 C    0.921
     5   8 O    2.093 --     4 C    1.785     3 O    0.188
     6   6 C    3.951 --     7 N    0.994    37 H    0.948    38 H    0.944
                             4 C    0.921
     7   7 N    3.657 --     8 C    1.315    18 C    1.114     6 C    0.994
     8   6 C    3.950 --    16 N    1.328     7 N    1.315     9 C    1.035
     9   6 C    3.978 --     8 C    1.035    10 C    0.955    40 H    0.947
                            39 H    0.947
    10   6 C    3.973 --    11 C    1.419    15 C    1.411     9 C    0.955
                            13 C    0.109
    11   6 C    3.991 --    12 C    1.437    10 C    1.419    41 H    0.968
                            14 C    0.110
    12   6 C    3.992 --    13 C    1.443    11 C    1.437    42 H    0.970
                            15 C    0.112
    13   6 C    3.990 --    12 C    1.443    14 C    1.435    43 H    0.969
                            10 C    0.109
    14   6 C    3.987 --    15 C    1.445    13 C    1.435    44 H    0.968
                            11 C    0.110
    15   6 C    3.989 --    14 C    1.445    10 C    1.411    45 H    0.967
                            12 C    0.112
    16   7 N    3.656 --     8 C    1.328    17 C    1.112    23 C    0.979
    17   6 C    3.952 --    22 C    1.345    18 C    1.278    16 N    1.112
    18   6 C    3.952 --    19 C    1.346    17 C    1.278     7 N    1.114
    19   6 C    3.984 --    20 C    1.487    18 C    1.346    46 H    0.962
                            22 C    0.117
    20   6 C    3.983 --    19 C    1.487    21 C    1.385    47 H    0.966
    21   6 C    3.983 --    22 C    1.487    20 C    1.385    48 H    0.966
    22   6 C    3.984 --    21 C    1.487    17 C    1.345    49 H    0.961
                            19 C    0.117
    23   6 C    3.943 --    16 N    0.979    50 H    0.953    51 H    0.951
                            24 C    0.932
    24   6 C    3.931 --    25 O    1.831    26 C    1.066    23 C    0.932
    25   8 O    2.096 --    24 C    1.831
    26   6 C    3.987 --    27 C    1.362    31 C    1.356    24 C    1.066
    27   6 C    3.992 --    28 C    1.467    26 C    1.362    52 H    0.965
                            30 C    0.103
    28   6 C    3.991 --    27 C    1.467    29 C    1.421    53 H    0.969
                            31 C    0.101
    29   6 C    3.987 --    30 C    1.429    28 C    1.421    54 H    0.969
    30   6 C    3.989 --    31 C    1.462    29 C    1.429    55 H    0.967
                            27 C    0.103
    31   6 C    3.985 --    30 C    1.462    26 C    1.356    56 H    0.964
                            28 C    0.101
    32   1 H    0.997 --     1 C    0.985
    33   1 H    0.994 --     1 C    0.978
    34   1 H    0.996 --     1 C    0.984
    35   1 H    0.995 --     2 C    0.971
    36   1 H    0.995 --     2 C    0.969
    37   1 H    0.987 --     6 C    0.948
    38   1 H    0.987 --     6 C    0.944
    39   1 H    0.992 --     9 C    0.947
    40   1 H    0.989 --     9 C    0.947
    41   1 H    1.000 --    11 C    0.968
    42   1 H    0.998 --    12 C    0.970
    43   1 H    0.996 --    13 C    0.969
    44   1 H    0.995 --    14 C    0.968
    45   1 H    0.997 --    15 C    0.967
    46   1 H    0.995 --    19 C    0.962
    47   1 H    0.993 --    20 C    0.966
    48   1 H    0.993 --    21 C    0.966
    49   1 H    0.995 --    22 C    0.961
    50   1 H    0.990 --    23 C    0.953
    51   1 H    0.991 --    23 C    0.951
    52   1 H    0.999 --    27 C    0.965
    53   1 H    0.997 --    28 C    0.969
    54   1 H    0.996 --    29 C    0.969
    55   1 H    0.995 --    30 C    0.967
    56   1 H    0.995 --    31 C    0.964
 ---------------------------------------------------------------------------

molecular dipole:
                 x           y           z       tot (Debye)
 q only:        5.121      -7.028       5.258
   full:        5.025      -7.250       5.283      26.135

           -------------------------------------------------
          | TOTAL ENERGY              -86.117540465524 Eh   |
          | GRADIENT NORM               0.000723345578 Eh/α |
          | HOMO-LUMO GAP               2.805566066556 eV   |
           -------------------------------------------------

 * finished run on 2024/12/20 at 02:14:31.382
