   * xtb version 6.7.1 (edcfbbe) compiled by 'conda@3ef47c1a292c' on 2024-11-25

   ID    Z sym.   atoms
    1    6 C      1, 3, 4, 6-9, 11
    2    8 O      2, 10
    3    7 N      5
    4    1 H      12-31

          program call               : xtb C0301.xyz --opt --namespace C0301 --charge +1
          :  Hamiltonian                  GFN2-xTB          :
 * total energy  :   -37.9556962 Eh     change       -0.2308553E-10 Eh
 * total energy  :   -37.9643225 Eh     change       -0.8626324E-02 Eh
 * total energy  :   -37.9671232 Eh     change       -0.2800711E-02 Eh
 * total energy  :   -37.9675571 Eh     change       -0.4338877E-03 Eh
 * total energy  :   -37.9680857 Eh     change       -0.5286275E-03 Eh
 * total energy  :   -37.9683025 Eh     change       -0.2167989E-03 Eh
 * total energy  :   -37.9684890 Eh     change       -0.1865361E-03 Eh
 * total energy  :   -37.9686337 Eh     change       -0.1446187E-03 Eh
 * total energy  :   -37.9687678 Eh     change       -0.1341835E-03 Eh
 * total energy  :   -37.9688855 Eh     change       -0.1176573E-03 Eh
 * total energy  :   -37.9695976 Eh     change       -0.2972442E-04 Eh
 * total energy  :   -37.9696140 Eh     change       -0.1640297E-04 Eh
 * total energy  :   -37.9696402 Eh     change       -0.2617958E-04 Eh
 * total energy  :   -37.9696533 Eh     change       -0.1311863E-04 Eh
 * total energy  :   -37.9696802 Eh     change       -0.2682995E-04 Eh
 * total energy  :   -37.9697034 Eh     change       -0.2321179E-04 Eh
 * total energy  :   -37.9697137 Eh     change       -0.1033568E-04 Eh
 * total energy  :   -37.9697201 Eh     change       -0.6350750E-05 Eh
 * total energy  :   -37.9697243 Eh     change       -0.4202902E-05 Eh
   *** GEOMETRY OPTIMIZATION CONVERGED AFTER 29 ITERATIONS ***

 final structure:
================
31
 xtb: 6.7.1 (edcfbbe)
C            1.90376533041597       -0.92233260180273       -1.72616187434211
O            1.44127358869419        0.12679811542357       -0.89780816592939
C            1.82347047075386        1.40566805887243       -1.34734237566034
C            1.04671989519995        2.50014449326704       -0.61096005425866
N            1.08838351599009        2.44397239034786        0.88412360821570
C            2.44272982513476        2.10253991635129        1.35713156343365
C            0.72578592095815        3.77509432233286        1.40489501899267
C            0.14086188796405        1.40067331797573        1.38800508659394
C           -1.33813306499408        1.79435330745453        1.42068600605740
O           -1.76125417329952        2.26951719329920        0.16416368593119
C           -3.16676432579525        2.37760309138090        0.04756090965469
H            1.54212279098289       -1.84503416076879       -1.27996949377480
H            2.99699622623436       -0.93688415111372       -1.76765374483264
H            1.50644280465006       -0.82377029468424       -2.74011100983937
H            2.91095736339900        1.53503752031557       -1.23770996017265
H            1.58813096404203        1.51909467892237       -2.41574938210195
H            1.45697574086246        3.45971200431068       -0.92988701362216
H           -0.00603779488622        2.44655754273032       -0.89290803182737
H            3.17463519593361        2.76922295024056        0.90439025877796
H            2.49721805618712        2.21019824329952        2.43905058265626
H            2.67728884298080        1.07323651343328        1.09464701635092
H           -0.21253843497063        4.10209453353107        0.96217658063290
H            0.62291682886223        3.73613919103656        2.48795885836320
H            1.50201415676758        4.49643100049307        1.15539408112878
H            0.26777982294966        0.53031609988356        0.74222108702192
H            0.42944413986106        1.13852108902517        2.40721641628434
H           -1.89796470412954        0.88741227776773        1.69232210919906
H           -1.54131925760698        2.54749060976569        2.19713398633275
H           -3.64613151022662        1.40423069903529        0.18316598279134
H           -3.56854344575284        3.08223470525660        0.78180126863715
H           -3.36201665715425        2.74442734262123       -0.95669300069133

          :  Hamiltonian                  GFN2-xTB          :
         :: total energy             -37.969724274801 Eh    ::
         :: gradient norm              0.000327147444 Eh/a0 ::
         :: HOMO-LUMO gap              8.283675935381 eV    ::
         :: SCC energy               -38.391874406064 Eh    ::
         :: -> dispersion             -0.021633673682 Eh    ::
         :: repulsion energy           0.422150131263 Eh    ::

    * Orbital Energies and Occupations

         #    Occupation            Energy/Eh            Energy/eV
      -------------------------------------------------------------
         1        2.0000           -0.8579517             -23.3461
       ...           ...                  ...                  ...
        22        2.0000           -0.6456881             -17.5701
        23        2.0000           -0.6385791             -17.3766
        24        2.0000           -0.6361591             -17.3108
        25        2.0000           -0.6333554             -17.2345
        26        2.0000           -0.6300930             -17.1457
        27        2.0000           -0.6146376             -16.7251
        28        2.0000           -0.6053984             -16.4737
        29        2.0000           -0.5982499             -16.2792
        30        2.0000           -0.5959404             -16.2164
        31        2.0000           -0.5791599             -15.7597
        32        2.0000           -0.5749755             -15.6459
        33        2.0000           -0.5334092             -14.5148
        34        2.0000           -0.5331488             -14.5077 (HOMO)
        35                         -0.2287293              -6.2240 (LUMO)
        36                         -0.1680355              -4.5725
        37                         -0.1460285              -3.9736
        38                         -0.1451969              -3.9510
        39                         -0.1198859              -3.2623
        40                         -0.1017185              -2.7679
        41                         -0.0550274              -1.4974
        42                         -0.0395248              -1.0755
        43                         -0.0315484              -0.8585
        44                         -0.0186379              -0.5072
        45                         -0.0103505              -0.2817
       ...                                ...                  ...
        64                          0.1366817               3.7193
      -------------------------------------------------------------
                  HL-Gap            0.3044195 Eh            8.2837 eV

     #   Z          covCN         q      C6AA      α(0)
     1   6 C        3.650     0.026    20.447     6.495
     2   8 O        1.700    -0.321    19.356     5.940
     3   6 C        3.699     0.071    19.552     6.324
     4   6 C        3.760    -0.056    21.623     6.629
     5   7 N        3.620     0.141    18.838     6.446
     6   6 C        3.721    -0.099    22.509     6.776
     7   6 C        3.721    -0.099    22.509     6.776
     8   6 C        3.760    -0.056    21.623     6.629
     9   6 C        3.699     0.071    19.552     6.324
    10   8 O        1.700    -0.321    19.356     5.940
    11   6 C        3.650     0.026    20.447     6.495
    12   1 H        0.925     0.077     2.012     2.218
    13   1 H        0.924     0.044     2.390     2.418
    14   1 H        0.924     0.050     2.324     2.384
    15   1 H        0.923     0.045     2.382     2.414
    16   1 H        0.923     0.065     2.145     2.290
    17   1 H        0.924     0.089     1.890     2.150
    18   1 H        0.924     0.133     1.514     1.924
    19   1 H        0.925     0.097     1.813     2.105
    20   1 H        0.925     0.096     1.823     2.111
    21   1 H        0.925     0.112     1.679     2.026
    22   1 H        0.925     0.112     1.679     2.026
    23   1 H        0.925     0.097     1.813     2.105
    24   1 H        0.925     0.096     1.823     2.111
    25   1 H        0.924     0.133     1.514     1.924
    26   1 H        0.924     0.089     1.890     2.150
    27   1 H        0.923     0.065     2.145     2.290
    28   1 H        0.923     0.045     2.382     2.414
    29   1 H        0.924     0.050     2.324     2.384
    30   1 H        0.924     0.044     2.390     2.418
    31   1 H        0.925     0.077     2.012     2.218

Wiberg/Mayer (AO) data.
largest (>0.10) Wiberg bond orders for each atom

     #   Z sym  total        # sym  WBO       # sym  WBO       # sym  WBO
 ---------------------------------------------------------------------------
     1   6 C    3.934 --    13 H    0.979    12 H    0.978    14 H    0.978
                             2 O    0.974
     2   8 O    2.072 --     3 C    0.992     1 C    0.974
     3   6 C    3.958 --     4 C    1.004     2 O    0.992    15 H    0.963
                            16 H    0.958
     4   6 C    3.928 --     3 C    1.004    17 H    0.967    18 H    0.948
                             5 N    0.931
     5   7 N    3.815 --     7 C    0.959     6 C    0.959     8 C    0.931
                             4 C    0.931
     6   6 C    3.927 --    20 H    0.975    19 H    0.975    21 H    0.971
                             5 N    0.959
     7   6 C    3.927 --    24 H    0.975    23 H    0.975    22 H    0.971
                             5 N    0.959
     8   6 C    3.928 --     9 C    1.004    26 H    0.967    25 H    0.948
                             5 N    0.931
     9   6 C    3.958 --     8 C    1.004    10 O    0.992    28 H    0.963
                            27 H    0.958
    10   8 O    2.072 --     9 C    0.992    11 C    0.974
    11   6 C    3.934 --    30 H    0.979    31 H    0.978    29 H    0.978
                            10 O    0.974
    12   1 H    0.994 --     1 C    0.978
    13   1 H    0.998 --     1 C    0.979
    14   1 H    0.998 --     1 C    0.978
    15   1 H    0.998 --     3 C    0.963
    16   1 H    0.996 --     3 C    0.958
    17   1 H    0.992 --     4 C    0.967
    18   1 H    0.982 --     4 C    0.948
    19   1 H    0.990 --     6 C    0.975
    20   1 H    0.991 --     6 C    0.975
    21   1 H    0.987 --     6 C    0.971
    22   1 H    0.987 --     7 C    0.971
    23   1 H    0.990 --     7 C    0.975
    24   1 H    0.991 --     7 C    0.975
    25   1 H    0.982 --     8 C    0.948
    26   1 H    0.992 --     8 C    0.967
    27   1 H    0.996 --     9 C    0.958
    28   1 H    0.998 --     9 C    0.963
    29   1 H    0.998 --    11 C    0.978
    30   1 H    0.998 --    11 C    0.979
    31   1 H    0.994 --    11 C    0.978
 ---------------------------------------------------------------------------

molecular dipole:
                 x           y           z       tot (Debye)
 q only:        1.660       4.223       1.273
   full:        1.684       4.247       1.297      12.071

           -------------------------------------------------
          | TOTAL ENERGY              -37.969724274801 Eh   |
          | GRADIENT NORM               0.000327147444 Eh/α |
          | HOMO-LUMO GAP               8.283675935381 eV   |
           -------------------------------------------------

 * finished run on 2024/12/20 at 02:14:26.458
