   * xtb version 6.7.1 (edcfbbe) compiled by 'conda@3ef47c1a292c' on 2024-11-25

   ID    Z sym.   atoms
    1    6 C      1-10, 13, 15, 16, 18
    2    7 N      11, 12, 14
    3    9 F      17
    4    1 H      19-45

          program call               : xtb C0307.xyz --opt --namespace C0307 --charge +1
          :  Hamiltonian                  GFN2-xTB          :
 * total energy  :   -56.8698583 Eh     change       -0.7908341E-10 Eh
 * total energy  :   -56.8748739 Eh     change       -0.5015671E-02 Eh
 * total energy  :   -56.8758684 Eh     change       -0.9944874E-03 Eh
 * total energy  :   -56.8759987 Eh     change       -0.1302526E-03 Eh
 * total energy  :   -56.8761044 Eh     change       -0.1056998E-03 Eh
 * total energy  :   -56.8761370 Eh     change       -0.3263895E-04 Eh
 * total energy  :   -56.8761723 Eh     change       -0.3527289E-04 Eh
 * total energy  :   -56.8761971 Eh     change       -0.2481977E-04 Eh
 * total energy  :   -56.8762195 Eh     change       -0.2243491E-04 Eh
 * total energy  :   -56.8762447 Eh     change       -0.2513328E-04 Eh
 * total energy  :   -56.8762705 Eh     change       -0.2587325E-04 Eh
 * total energy  :   -56.8762937 Eh     change       -0.2314235E-04 Eh
 * total energy  :   -56.8763142 Eh     change       -0.2052847E-04 Eh
 * total energy  :   -56.8763288 Eh     change       -0.1458067E-04 Eh
 * total energy  :   -56.8763373 Eh     change       -0.8482120E-05 Eh
 * total energy  :   -56.8763417 Eh     change       -0.4403342E-05 Eh
   *** GEOMETRY OPTIMIZATION CONVERGED AFTER 16 ITERATIONS ***

 final structure:
================
45
 xtb: 6.7.1 (edcfbbe)
C            0.89760247399667       -0.51040490506253        0.18840845798773
C            0.80589397842028        0.63489952192250        1.18921692294146
C            1.14268030255662        1.99648256214227        0.57947944210661
C            0.18986142968484        2.46289071122038       -0.52359376271424
C           -1.27350026115247        2.60459522193875       -0.09870516597952
C           -1.51641047565318        3.55545776970428        1.07522047971823
C           -1.01218624365488        4.98498715820196        0.86173035740557
C           -1.61197988746998        5.70008902055215       -0.35171059602513
C           -3.12982022451230        5.86717988125356       -0.31613373618254
C           -3.63623068400280        6.73485808669751        0.84486138704929
N           -3.15269290802068        8.08248327509111        0.70871590948209
N           -3.85630121884857        9.00012377364937        0.05462090230503
C           -3.12768089112234       10.06989504627657        0.02421592550251
N           -1.93922806853157        9.85201104813478        0.65289041442173
C           -1.98242320743910        8.57752134621563        1.07238766759758
C           -0.81966301989931       10.77515697581695        0.80710959484504
F           -0.11840299321748       10.33572799589526        1.88447758069117
C            0.05616246800584       10.79045707704841       -0.43201848201422
H            0.14524770844332       -0.41628124332035       -0.59056945749588
H            0.74290969593428       -1.46136582373222        0.69207390898914
H            1.87912091547920       -0.52825970866583       -0.27998276795129
H           -0.19367651034667        0.65730671931744        1.62718820101087
H            1.51077820577383        0.44725588527011        2.00247559342270
H            1.16992292278773        2.74112756252968        1.37851692561952
H            2.14774127844336        1.94518659598938        0.15396198461002
H            0.55376226914752        3.41857718557041       -0.90962265616215
H            0.23183826691661        1.75339185856222       -1.35105865462380
H           -1.85377668515327        2.93249774271320       -0.96468204045454
H           -1.65768823858205        1.62351083318222        0.18291388368699
H           -2.58702633544245        3.57036875055756        1.29365335934323
H           -1.01987794048883        3.15709696197587        1.96083552967095
H           -1.20836785660679        5.55514834737125        1.77484010581932
H            0.07037967840312        4.95889053390624        0.73261291924889
H           -1.13284103685702        6.67964347645096       -0.46211660019319
H           -1.36266874208281        5.13244587855890       -1.24780240775952
H           -3.47013563814712        6.30652120109817       -1.25574673045658
H           -3.60091497145295        4.89054432110105       -0.21934095642084
H           -4.72571712790502        6.78341082074275        0.82205901714319
H           -3.30237223542957        6.33068317849872        1.80095238346259
H           -3.42477619962329       10.99398089967221       -0.42857481603497
H           -1.21476380572699        8.08395241721368        1.63712314137828
H           -1.21655804049976       11.76995457636296        1.05310062879972
H           -0.50602381852677       11.14364069894624       -1.29148323603049
H            0.89476531305071       11.46057178498342       -0.26079825754331
H            0.44767835934997        9.79564697844580       -0.63389230021840

          :  Hamiltonian                  GFN2-xTB          :
         :: total energy             -56.876341682975 Eh    ::
         :: gradient norm              0.000658752344 Eh/a0 ::
         :: HOMO-LUMO gap              1.289921695675 eV    ::
         :: SCC energy               -57.625820103446 Eh    ::
         :: -> dispersion             -0.036555803037 Eh    ::
         :: repulsion energy           0.749478420470 Eh    ::

    * Orbital Energies and Occupations

         #    Occupation            Energy/Eh            Energy/eV
      -------------------------------------------------------------
         1        2.0000           -0.9852852             -26.8110
       ...           ...                  ...                  ...
        40        2.0000           -0.5747481             -15.6397
        41        2.0000           -0.5653643             -15.3843
        42        2.0000           -0.5607103             -15.2577
        43        2.0000           -0.5546323             -15.0923
        44        2.0000           -0.5452350             -14.8366
        45        2.0000           -0.5377993             -14.6343
        46        2.0000           -0.5309778             -14.4486
        47        2.0000           -0.5183637             -14.1054
        48        2.0000           -0.5120270             -13.9330
        49        2.0000           -0.5080961             -13.8260
        50        2.0000           -0.4908237             -13.3560
        51        2.0000           -0.4868303             -13.2473
        52        2.0000           -0.4831119             -13.1461 (HOMO)
        53                         -0.4357082             -11.8562 (LUMO)
        54                         -0.4135324             -11.2528
        55                         -0.2180273              -5.9328
        56                         -0.1648519              -4.4858
        57                         -0.1356074              -3.6901
        58                         -0.0816610              -2.2221
        59                         -0.0723190              -1.9679
        60                         -0.0625318              -1.7016
        61                         -0.0542319              -1.4757
        62                         -0.0381002              -1.0368
        63                         -0.0195782              -0.5328
       ...                                ...                  ...
        99                          0.3473222               9.4511
      -------------------------------------------------------------
                  HL-Gap            0.0474038 Eh            1.2899 eV

     #   Z          covCN         q      C6AA      α(0)
     1   6 C        3.751    -0.104    22.551     6.772
     2   6 C        3.799    -0.054    21.537     6.608
     3   6 C        3.800    -0.059    21.629     6.622
     4   6 C        3.800    -0.059    21.640     6.623
     5   6 C        3.800    -0.061    21.676     6.629
     6   6 C        3.800    -0.062    21.697     6.632
     7   6 C        3.800    -0.063    21.709     6.634
     8   6 C        3.800    -0.066    21.770     6.643
     9   6 C        3.802    -0.072    21.883     6.660
    10   6 C        3.742    -0.038    21.320     6.587
    11   7 N        3.059     0.162    18.513     6.391
    12   7 N        2.046    -0.135    24.613     7.359
    13   6 C        3.133     0.088    25.831     8.320
    14   7 N        2.862     0.020    20.891     6.788
    15   6 C        3.057     0.065    26.486     8.440
    16   6 C        3.595     0.198    18.003     6.143
    17   9 F        0.788    -0.211    11.350     3.980
    18   6 C        3.754    -0.139    23.236     6.873
    19   1 H        0.925     0.034     2.525     2.485
    20   1 H        0.925     0.037     2.487     2.466
    21   1 H        0.925     0.037     2.489     2.467
    22   1 H        0.924     0.030     2.590     2.517
    23   1 H        0.924     0.032     2.562     2.503
    24   1 H        0.924     0.024     2.669     2.555
    25   1 H        0.924     0.034     2.524     2.484
    26   1 H        0.924     0.022     2.697     2.568
    27   1 H        0.924     0.041     2.434     2.440
    28   1 H        0.924     0.026     2.648     2.545
    29   1 H        0.924     0.045     2.384     2.415
    30   1 H        0.924     0.027     2.637     2.539
    31   1 H        0.924     0.048     2.347     2.396
    32   1 H        0.924     0.015     2.811     2.622
    33   1 H        0.924     0.051     2.307     2.375
    34   1 H        0.924     0.014     2.831     2.631
    35   1 H        0.925     0.071     2.079     2.255
    36   1 H        0.924     0.062     2.181     2.309
    37   1 H        0.925     0.089     1.884     2.147
    38   1 H        0.924     0.113     1.674     2.024
    39   1 H        0.924     0.099     1.791     2.093
    40   1 H        0.926     0.121     1.603     1.980
    41   1 H        0.926     0.141     1.452     1.884
    42   1 H        0.923     0.098     1.802     2.100
    43   1 H        0.925     0.082     1.959     2.189
    44   1 H        0.925     0.110     1.700     2.039
    45   1 H        0.925     0.086     1.916     2.165

Wiberg/Mayer (AO) data.
largest (>0.10) Wiberg bond orders for each atom

     #   Z sym  total        # sym  WBO       # sym  WBO       # sym  WBO
 ---------------------------------------------------------------------------
     1   6 C    3.996 --     2 C    1.020    21 H    0.987    20 H    0.987
                            19 H    0.986
     2   6 C    3.998 --     1 C    1.020     3 C    1.008    23 H    0.978
                            22 H    0.976
     3   6 C    3.997 --     2 C    1.008     4 C    1.008    25 H    0.977
                            24 H    0.976
     4   6 C    3.997 --     5 C    1.008     3 C    1.008    26 H    0.975
                            27 H    0.974
     5   6 C    3.996 --     4 C    1.008     6 C    1.008    28 H    0.975
                            29 H    0.973
     6   6 C    3.995 --     5 C    1.008     7 C    1.006    30 H    0.975
                            31 H    0.973
     7   6 C    3.995 --     8 C    1.007     6 C    1.006    32 H    0.973
                            33 H    0.972
     8   6 C    3.992 --     9 C    1.011     7 C    1.007    34 H    0.970
                            35 H    0.965
     9   6 C    3.978 --     8 C    1.011    36 H    0.974    10 C    0.969
                            37 H    0.958
    10   6 C    3.920 --     9 C    0.969    11 N    0.964    38 H    0.959
                            39 H    0.955
    11   7 N    3.753 --    15 C    1.416    12 N    1.207    10 C    0.964
    12   7 N    3.032 --    13 C    1.602    11 N    1.207
    13   6 C    3.946 --    12 N    1.602    14 N    1.232    40 H    0.954
    14   7 N    3.689 --    15 C    1.315    13 C    1.232    16 C    0.940
    15   6 C    3.943 --    11 N    1.416    14 N    1.315    41 H    0.945
    16   6 C    3.878 --    18 C    0.990    17 F    0.960    42 H    0.945
                            14 N    0.940
    17   9 F    1.050 --    16 C    0.960
    18   6 C    3.969 --    16 C    0.990    45 H    0.978    43 H    0.978
                            44 H    0.968
    19   1 H    0.999 --     1 C    0.986
    20   1 H    0.999 --     1 C    0.987
    21   1 H    0.999 --     1 C    0.987
    22   1 H    0.999 --     2 C    0.976
    23   1 H    0.999 --     2 C    0.978
    24   1 H    0.999 --     3 C    0.976
    25   1 H    0.999 --     3 C    0.977
    26   1 H    0.999 --     4 C    0.975
    27   1 H    0.998 --     4 C    0.974
    28   1 H    0.999 --     5 C    0.975
    29   1 H    0.998 --     5 C    0.973
    30   1 H    0.999 --     6 C    0.975
    31   1 H    0.998 --     6 C    0.973
    32   1 H    1.000 --     7 C    0.973
    33   1 H    0.997 --     7 C    0.972
    34   1 H    1.000 --     8 C    0.970
    35   1 H    0.995 --     8 C    0.965
    36   1 H    0.996 --     9 C    0.974
    37   1 H    0.991 --     9 C    0.958
    38   1 H    0.987 --    10 C    0.959
    39   1 H    0.990 --    10 C    0.955
    40   1 H    0.985 --    13 C    0.954
    41   1 H    0.980 --    15 C    0.945
    42   1 H    0.990 --    16 C    0.945
    43   1 H    0.993 --    18 C    0.978
    44   1 H    0.987 --    18 C    0.968
    45   1 H    0.993 --    18 C    0.978
 ---------------------------------------------------------------------------

molecular dipole:
                 x           y           z       tot (Debye)
 q only:       -4.145      16.018       0.467
   full:       -3.919      16.356       0.615      42.778

           -------------------------------------------------
          | TOTAL ENERGY              -56.876341682975 Eh   |
          | GRADIENT NORM               0.000658752344 Eh/α |
          | HOMO-LUMO GAP               1.289921695675 eV   |
           -------------------------------------------------

 * finished run on 2024/12/20 at 02:14:38.088
