   * xtb version 6.7.1 (edcfbbe) compiled by 'conda@3ef47c1a292c' on 2024-11-25

   ID    Z sym.   atoms
    1    6 C      1, 2, 4, 5, 7-20
    2    7 N      3, 6
    3    1 H      21-39

          program call               : xtb C0309.xyz --opt --namespace C0309 --charge +1
          :  Hamiltonian                  GFN2-xTB          :
 * total energy  :   -53.6904074 Eh     change       -0.1440675E-08 Eh
 * total energy  :   -53.6963255 Eh     change       -0.5918049E-02 Eh
 * total energy  :   -53.6975829 Eh     change       -0.1257370E-02 Eh
 * total energy  :   -53.6978175 Eh     change       -0.2346877E-03 Eh
 * total energy  :   -53.6979548 Eh     change       -0.1372794E-03 Eh
 * total energy  :   -53.6980263 Eh     change       -0.7148805E-04 Eh
 * total energy  :   -53.6981075 Eh     change       -0.8117679E-04 Eh
 * total energy  :   -53.6982010 Eh     change       -0.9348069E-04 Eh
 * total energy  :   -53.6982824 Eh     change       -0.8143290E-04 Eh
 * total energy  :   -53.6983534 Eh     change       -0.7099165E-04 Eh
 * total energy  :   -53.7001037 Eh     change       -0.1551424E-04 Eh
 * total energy  :   -53.7001215 Eh     change       -0.1784495E-04 Eh
 * total energy  :   -53.7001421 Eh     change       -0.2056320E-04 Eh
 * total energy  :   -53.7001551 Eh     change       -0.1304528E-04 Eh
 * total energy  :   -53.7001668 Eh     change       -0.1165769E-04 Eh
 * total energy  :   -53.7001787 Eh     change       -0.1187772E-04 Eh
 * total energy  :   -53.7001885 Eh     change       -0.9833037E-05 Eh
 * total energy  :   -53.7001978 Eh     change       -0.9263524E-05 Eh
 * total energy  :   -53.7002026 Eh     change       -0.4813442E-05 Eh
   *** GEOMETRY OPTIMIZATION CONVERGED AFTER 59 ITERATIONS ***

 final structure:
================
39
 xtb: 6.7.1 (edcfbbe)
C           -0.37137589528951        0.59147342733969       -0.42096224288907
C            0.75926011874620        0.55029591426652        0.60222733326808
N            1.27813974754098        1.87944551326471        0.84255502672375
C            0.77144566021881        2.78307953226787        1.72615910862864
C            1.49030358965032        3.93099556442971        1.58840983563370
N            2.41640789372675        3.71406332419827        0.61521491106598
C            2.27301464741819        2.46659907551223        0.18167088730406
C            3.44307510935251        4.66315346807137        0.19778232813475
C            4.59037368497046        4.65315215949352        1.18774654408661
C            5.21061785320312        5.85160105966915        1.51537192860705
C            6.27993900889400        5.86495517970900        2.39358292551736
C            6.73278978132622        4.68354253312297        2.95612319657807
C            6.11720799704775        3.48618765845342        2.63316566359883
C            5.05151902680505        3.46925183989174        1.75027281369686
C            3.85777259218005        4.35786181338167       -1.23145921012303
C            5.11269307620296        3.85971976052809       -1.55051383072500
C            5.43674484202053        3.59095744691996       -2.87054828825510
C            4.51146108682287        3.81124087166731       -3.87586343189309
C            3.25659955896470        4.30853111084537       -3.56184514105213
C            2.93168323935054        4.58258235830864       -2.24625223403983
H           -1.18427950944147        1.22601668638241       -0.07623324818099
H           -0.76010416700374       -0.41087670715932       -0.57053038836574
H           -0.01396971774638        0.96795628053429       -1.37652816175179
H            0.39674153604377        0.14866044975813        1.55043528585745
H            1.57398499523461       -0.07948465291809        0.24020475201738
H           -0.04359581503945        2.55348205289085        2.38163706482787
H            1.40862572038561        4.86463133881747        2.10630453217165
H            2.86347836757696        2.01184860828310       -0.59003158264816
H            2.97533574594307        5.65520748869190        0.21941150007670
H            4.86217096239742        6.77413950992381        1.07533634404211
H            6.75762890714647        6.80020982119051        2.63957635621453
H            7.56414483038239        4.69468916145222        3.64303920354300
H            6.46784050292580        2.56151876540540        3.06476441182547
H            4.58606532112885        2.52544820093464        1.49840510739763
H            5.84334531775975        3.69325526206509       -0.77395463429000
H            6.41765175507746        3.21173983024886       -3.11073708849416
H            4.76830666819435        3.60400429119747       -4.90273351738731
H            2.53411821164494        4.49072004455396       -4.34215816696642
H            1.95593774823312        4.98165395641255       -2.00510589376246

          :  Hamiltonian                  GFN2-xTB          :
         :: total energy             -53.700202583069 Eh    ::
         :: gradient norm              0.000594620369 Eh/a0 ::
         :: HOMO-LUMO gap              3.134410158215 eV    ::
         :: SCC energy               -54.659178710088 Eh    ::
         :: -> dispersion             -0.040977003244 Eh    ::
         :: repulsion energy           0.958976127019 Eh    ::

    * Orbital Energies and Occupations

         #    Occupation            Energy/Eh            Energy/eV
      -------------------------------------------------------------
         1        2.0000           -0.8848951             -24.0792
       ...           ...                  ...                  ...
        38        2.0000           -0.5876035             -15.9895
        39        2.0000           -0.5872363             -15.9795
        40        2.0000           -0.5807378             -15.8027
        41        2.0000           -0.5791385             -15.7592
        42        2.0000           -0.5757204             -15.6661
        43        2.0000           -0.5402587             -14.7012
        44        2.0000           -0.5354189             -14.5695
        45        2.0000           -0.5313826             -14.4597
        46        2.0000           -0.5293506             -14.4044
        47        2.0000           -0.5185158             -14.1095
        48        2.0000           -0.5171042             -14.0711
        49        2.0000           -0.5149335             -14.0121
        50        2.0000           -0.5114894             -13.9183 (HOMO)
        51                         -0.3963020             -10.7839 (LUMO)
        52                         -0.3613112              -9.8318
        53                         -0.3444984              -9.3743
        54                         -0.3360543              -9.1445
        55                         -0.3352721              -9.1232
        56                         -0.3331860              -9.0665
        57                         -0.2150798              -5.8526
        58                         -0.2057169              -5.5978
        59                         -0.1687759              -4.5926
        60                         -0.1182633              -3.2181
        61                         -0.0536050              -1.4587
       ...                                ...                  ...
        99                          0.5542394              15.0816
      -------------------------------------------------------------
                  HL-Gap            0.1151875 Eh            3.1344 eV

     #   Z          covCN         q      C6AA      α(0)
     1   6 C        3.753    -0.124    22.929     6.828
     2   6 C        3.741    -0.021    21.018     6.541
     3   7 N        2.871     0.060    20.185     6.673
     4   6 C        3.073    -0.006    28.095     8.691
     5   6 C        3.074    -0.005    28.063     8.686
     6   7 N        2.875     0.061    20.180     6.672
     7   6 C        3.099     0.054    26.674     8.464
     8   6 C        3.802     0.015    20.316     6.417
     9   6 C        2.973    -0.001    28.056     8.688
    10   6 C        2.923    -0.032    28.809     8.802
    11   6 C        2.920    -0.020    28.515     8.757
    12   6 C        2.920    -0.021    28.532     8.759
    13   6 C        2.919    -0.024    28.604     8.770
    14   6 C        2.922    -0.038    28.937     8.821
    15   6 C        2.973    -0.008    28.210     8.712
    16   6 C        2.921    -0.035    28.869     8.811
    17   6 C        2.920    -0.023    28.587     8.768
    18   6 C        2.920    -0.022    28.548     8.762
    19   6 C        2.919    -0.024    28.611     8.771
    20   6 C        2.924    -0.041    29.019     8.834
    21   1 H        0.925     0.066     2.126     2.280
    22   1 H        0.925     0.084     1.941     2.179
    23   1 H        0.925     0.062     2.177     2.307
    24   1 H        0.924     0.090     1.875     2.141
    25   1 H        0.924     0.083     1.948     2.183
    26   1 H        0.926     0.104     1.746     2.066
    27   1 H        0.926     0.103     1.755     2.072
    28   1 H        0.926     0.108     1.710     2.045
    29   1 H        0.924     0.080     1.981     2.201
    30   1 H        0.926     0.044     2.391     2.418
    31   1 H        0.926     0.058     2.218     2.329
    32   1 H        0.926     0.058     2.222     2.331
    33   1 H        0.926     0.050     2.314     2.379
    34   1 H        0.925     0.018     2.758     2.597
    35   1 H        0.926     0.046     2.367     2.406
    36   1 H        0.926     0.056     2.252     2.347
    37   1 H        0.926     0.058     2.227     2.334
    38   1 H        0.926     0.053     2.279     2.361
    39   1 H        0.925     0.031     2.571     2.507

Wiberg/Mayer (AO) data.
largest (>0.10) Wiberg bond orders for each atom

     #   Z sym  total        # sym  WBO       # sym  WBO       # sym  WBO
 ---------------------------------------------------------------------------
     1   6 C    3.981 --     2 C    1.001    23 H    0.985    21 H    0.984
                            22 H    0.977
     2   6 C    3.940 --     1 C    1.001    25 H    0.967     3 N    0.967
                            24 H    0.965
     3   7 N    3.709 --     7 C    1.355     4 C    1.227     2 C    0.967
     4   6 C    3.949 --     5 C    1.592     3 N    1.227    26 H    0.962
     5   6 C    3.950 --     4 C    1.592     6 N    1.230    27 H    0.962
     6   7 N    3.714 --     7 C    1.367     5 C    1.230     8 C    0.935
     7   6 C    3.948 --     6 N    1.367     3 N    1.355    28 H    0.953
     8   6 C    3.931 --     9 C    0.970    15 C    0.969    29 H    0.946
                             6 N    0.935
     9   6 C    3.979 --    10 C    1.411    14 C    1.411     8 C    0.970
                            12 C    0.109
    10   6 C    3.989 --    11 C    1.442     9 C    1.411    30 H    0.968
                            13 C    0.111
    11   6 C    3.989 --    10 C    1.442    12 C    1.439    31 H    0.968
                            14 C    0.111
    12   6 C    3.988 --    11 C    1.439    13 C    1.439    32 H    0.969
                             9 C    0.109
    13   6 C    3.991 --    14 C    1.442    12 C    1.439    33 H    0.970
                            10 C    0.111
    14   6 C    3.992 --    13 C    1.442     9 C    1.411    34 H    0.967
                            11 C    0.111
    15   6 C    3.979 --    16 C    1.424    20 C    1.404     8 C    0.969
                            18 C    0.110
    16   6 C    3.991 --    17 C    1.435    15 C    1.424    35 H    0.965
                            19 C    0.109
    17   6 C    3.990 --    18 C    1.446    16 C    1.435    36 H    0.969
                            20 C    0.112
    18   6 C    3.989 --    17 C    1.446    19 C    1.432    37 H    0.969
                            15 C    0.110
    19   6 C    3.990 --    20 C    1.451    18 C    1.432    38 H    0.969
                            16 C    0.109
    20   6 C    3.991 --    19 C    1.451    15 C    1.404    39 H    0.970
                            17 C    0.112
    21   1 H    0.996 --     1 C    0.984
    22   1 H    0.992 --     1 C    0.977
    23   1 H    0.996 --     1 C    0.985
    24   1 H    0.991 --     2 C    0.965
    25   1 H    0.993 --     2 C    0.967
    26   1 H    0.988 --     4 C    0.962
    27   1 H    0.989 --     5 C    0.962
    28   1 H    0.988 --     7 C    0.953
    29   1 H    0.993 --     8 C    0.946
    30   1 H    0.998 --    10 C    0.968
    31   1 H    0.996 --    11 C    0.968
    32   1 H    0.996 --    12 C    0.969
    33   1 H    0.997 --    13 C    0.970
    34   1 H    1.000 --    14 C    0.967
    35   1 H    0.998 --    16 C    0.965
    36   1 H    0.997 --    17 C    0.969
    37   1 H    0.996 --    18 C    0.969
    38   1 H    0.997 --    19 C    0.969
    39   1 H    0.999 --    20 C    0.970
 ---------------------------------------------------------------------------

molecular dipole:
                 x           y           z       tot (Debye)
 q only:        4.294       5.321       0.903
   full:        4.277       5.339       0.915      17.542

           -------------------------------------------------
          | TOTAL ENERGY              -53.700202583069 Eh   |
          | GRADIENT NORM               0.000594620369 Eh/α |
          | HOMO-LUMO GAP               3.134410158215 eV   |
           -------------------------------------------------

 * finished run on 2024/12/20 at 02:14:43.365
