   * xtb version 6.7.1 (edcfbbe) compiled by 'conda@3ef47c1a292c' on 2024-11-25

   ID    Z sym.   atoms
    1    6 C      1-4, 7-11, 13, 15-23
    2    8 O      5, 6
    3    7 N      12, 14
    4    1 H      24-48

          program call               : xtb C0308.xyz --opt --namespace C0308 --charge +1
          :  Hamiltonian                  GFN2-xTB          :
 * total energy  :   -67.0715297 Eh     change       -0.6048566E-09 Eh
 * total energy  :   -67.0787581 Eh     change       -0.7228372E-02 Eh
 * total energy  :   -67.0799990 Eh     change       -0.1240900E-02 Eh
 * total energy  :   -67.0802558 Eh     change       -0.2568273E-03 Eh
 * total energy  :   -67.0804371 Eh     change       -0.1812686E-03 Eh
 * total energy  :   -67.0805220 Eh     change       -0.8492337E-04 Eh
 * total energy  :   -67.0806125 Eh     change       -0.9052869E-04 Eh
 * total energy  :   -67.0807112 Eh     change       -0.9869673E-04 Eh
 * total energy  :   -67.0808108 Eh     change       -0.9963050E-04 Eh
 * total energy  :   -67.0808988 Eh     change       -0.8801061E-04 Eh
 * total energy  :   -67.0850299 Eh     change       -0.1055143E-04 Eh
 * total energy  :   -67.0850451 Eh     change       -0.1520137E-04 Eh
 * total energy  :   -67.0850588 Eh     change       -0.1370334E-04 Eh
 * total energy  :   -67.0850691 Eh     change       -0.1032681E-04 Eh
 * total energy  :   -67.0850788 Eh     change       -0.9644365E-05 Eh
 * total energy  :   -67.0850859 Eh     change       -0.7164587E-05 Eh
 * total energy  :   -67.0850891 Eh     change       -0.3157515E-05 Eh
 * total energy  :   -67.0850962 Eh     change       -0.7084571E-05 Eh
 * total energy  :   -67.0850994 Eh     change       -0.3178051E-05 Eh
   *** GEOMETRY OPTIMIZATION CONVERGED AFTER 94 ITERATIONS ***

 final structure:
================
48
 xtb: 6.7.1 (edcfbbe)
C            2.00701025915911       -0.85768225671682        1.36234691544884
C            0.64874955549779       -0.25249925218392        1.69420377825719
C            0.77302187591356        1.15390176670049        2.27193447803607
C           -0.55416972248985        1.71328552398749        2.78124521382257
O           -1.50974419026873        1.11623586122755        3.16188222760478
O           -0.52011334411987        3.06863149954705        2.69362572987501
C            0.74537781612986        3.48386582511595        2.20063411945699
C            1.24016781927787        2.30110666409631        1.36105636411459
C            0.52756562455560        2.23049260924594       -0.00867101779973
C            0.51946107362570        3.52399245076681       -0.73823589107381
C            1.50593015730611        4.13507789211846       -1.46207762351181
N            1.01272266189461        5.31353136934818       -1.93270509798071
C           -0.24225235909511        5.42587777029365       -1.51718468770212
N           -0.56851536609065        4.36060935186432       -0.78531173034647
C           -1.85333598155964        4.12988921487971       -0.17456846470603
C            1.73700146432991        6.23569871900436       -2.78618079777262
C            2.19825005095097        5.52701347491619       -4.03920807903688
C            3.53819999815520        5.22426478522684       -4.22583085903231
C            3.93755679011454        4.56235209958767       -5.37573781111408
C            3.00494292575071        4.19805980317921       -6.32742067683592
C            1.65445289515947        4.49061270996378       -6.15352352064157
C            1.26494782051995        5.15512980372541       -4.99964525904928
C            0.65985674415503        4.10420647477630       -7.20017657382160
H            2.52966380418735       -0.26989457909552        0.61057664947800
H            1.88077472573743       -1.86556495153631        0.97801748941686
H            2.63066720198644       -0.91039833023405        2.25099635387642
H            0.01421686409068       -0.25180568420203        0.80746341161240
H            0.14765324205735       -0.86657216817121        2.44409820142725
H            1.44223412028548        1.10701512190321        3.14043406549945
H            1.42018784869551        3.66802854204181        3.04437027993568
H            0.61118131990588        4.41897365561629        1.65581417299719
H            2.32012768544290        2.33425219009630        1.22467321126928
H            1.03282588798067        1.48303747444359       -0.62123743457392
H           -0.50161370600227        1.90499823289342        0.14700586192171
H            2.50171388707505        3.80780114450159       -1.67968330736998
H           -0.89465198040783        6.25005008873706       -1.73117342633000
H           -1.74340602755254        3.90531169115584        0.88777376210675
H           -2.46933841160606        5.01937587282990       -0.28404293283693
H           -2.35792194731560        3.29227774858853       -0.65889675177381
H            2.59861812718043        6.62103756093198       -2.23434450153260
H            1.07209384504430        7.06679789197984       -3.03005109261930
H            4.27063950121511        5.51699311240293       -3.48806240046531
H            4.98116898794803        4.33492239154213       -5.52683979875151
H            3.32195855031291        3.68445465060996       -7.22214027931245
H            0.22103617560702        5.39786707145333       -4.85249677590388
H            0.85133146443474        4.66002376157311       -8.11683882141289
H            0.74619835904180        3.04522996481380       -7.43575165808064
H           -0.35702409422707        4.31163338451358       -6.87818501478418

          :  Hamiltonian                  GFN2-xTB          :
         :: total energy             -67.085099363530 Eh    ::
         :: gradient norm              0.000391169213 Eh/a0 ::
         :: HOMO-LUMO gap              2.819263402047 eV    ::
         :: SCC energy               -68.070762969960 Eh    ::
         :: -> dispersion             -0.046788179467 Eh    ::
         :: repulsion energy           0.985663606431 Eh    ::

    * Orbital Energies and Occupations

         #    Occupation            Energy/Eh            Energy/eV
      -------------------------------------------------------------
         1        2.0000           -0.8887712             -24.1847
       ...           ...                  ...                  ...
        49        2.0000           -0.5768178             -15.6960
        50        2.0000           -0.5660215             -15.4022
        51        2.0000           -0.5620047             -15.2929
        52        2.0000           -0.5607453             -15.2587
        53        2.0000           -0.5559625             -15.1285
        54        2.0000           -0.5532367             -15.0543
        55        2.0000           -0.5379463             -14.6383
        56        2.0000           -0.5345353             -14.5454
        57        2.0000           -0.5296775             -14.4133
        58        2.0000           -0.5295382             -14.4095
        59        2.0000           -0.5141453             -13.9906
        60        2.0000           -0.5127267             -13.9520
        61        2.0000           -0.5021671             -13.6647 (HOMO)
        62                         -0.3985611             -10.8454 (LUMO)
        63                         -0.3634731              -9.8906
        64                         -0.3390438              -9.2259
        65                         -0.3325165              -9.0482
        66                         -0.3296175              -8.9693
        67                         -0.2118020              -5.7634
        68                         -0.1708137              -4.6481
        69                         -0.1310370              -3.5657
        70                         -0.1067524              -2.9049
        71                         -0.0829057              -2.2560
        72                         -0.0674347              -1.8350
       ...                                ...                  ...
       117                          0.5873350              15.9822
      -------------------------------------------------------------
                  HL-Gap            0.1036060 Eh            2.8193 eV

     #   Z          covCN         q      C6AA      α(0)
     1   6 C        3.752    -0.112    22.696     6.794
     2   6 C        3.801    -0.061    21.677     6.629
     3   6 C        3.892    -0.057    21.535     6.597
     4   6 C        2.786     0.351    21.043     7.514
     5   8 O        0.856    -0.344    20.602     6.086
     6   8 O        1.706    -0.271    18.501     5.807
     7   6 C        3.785     0.065    19.512     6.292
     8   6 C        3.877    -0.029    21.044     6.522
     9   6 C        3.805    -0.077    21.963     6.672
    10   6 C        3.096     0.043    26.930     8.505
    11   6 C        3.078    -0.023    28.499     8.752
    12   7 N        2.859     0.061    20.182     6.672
    13   6 C        3.085     0.043    26.932     8.507
    14   7 N        2.867     0.052    20.331     6.697
    15   6 C        3.691    -0.084    22.294     6.757
    16   6 C        3.748    -0.026    21.100     6.552
    17   6 C        2.972    -0.005    28.136     8.701
    18   6 C        2.922    -0.042    29.046     8.838
    19   6 C        2.918    -0.025    28.621     8.773
    20   6 C        2.926    -0.033    28.820     8.804
    21   6 C        2.965     0.029    27.350     8.578
    22   6 C        2.928    -0.049    29.223     8.865
    23   6 C        3.758    -0.118    22.813     6.809
    24   1 H        0.925     0.033     2.538     2.491
    25   1 H        0.925     0.055     2.253     2.347
    26   1 H        0.925     0.049     2.335     2.390
    27   1 H        0.924     0.042     2.417     2.431
    28   1 H        0.924     0.071     2.073     2.252
    29   1 H        0.924     0.078     1.999     2.211
    30   1 H        0.924     0.063     2.168     2.303
    31   1 H        0.924     0.049     2.337     2.391
    32   1 H        0.925     0.059     2.211     2.325
    33   1 H        0.924     0.088     1.902     2.157
    34   1 H        0.924     0.079     1.989     2.205
    35   1 H        0.926     0.100     1.781     2.087
    36   1 H        0.926     0.106     1.729     2.056
    37   1 H        0.924     0.119     1.619     1.990
    38   1 H        0.925     0.094     1.841     2.122
    39   1 H        0.924     0.099     1.795     2.095
    40   1 H        0.924     0.088     1.903     2.157
    41   1 H        0.924     0.082     1.962     2.190
    42   1 H        0.926     0.039     2.458     2.452
    43   1 H        0.926     0.055     2.258     2.350
    44   1 H        0.926     0.057     2.237     2.339
    45   1 H        0.925     0.030     2.591     2.517
    46   1 H        0.925     0.067     2.116     2.275
    47   1 H        0.925     0.061     2.183     2.311
    48   1 H        0.925     0.049     2.337     2.391

Wiberg/Mayer (AO) data.
largest (>0.10) Wiberg bond orders for each atom

     #   Z sym  total        # sym  WBO       # sym  WBO       # sym  WBO
 ---------------------------------------------------------------------------
     1   6 C    3.994 --     2 C    1.019    24 H    0.987    26 H    0.986
                            25 H    0.985
     2   6 C    3.989 --     1 C    1.019     3 C    0.994    27 H    0.974
                            28 H    0.969
     3   6 C    3.988 --     2 C    0.994     8 C    0.978     4 C    0.946
                            29 H    0.935
     4   6 C    3.914 --     5 O    1.824     6 O    1.078     3 C    0.946
     5   8 O    2.110 --     4 C    1.824     6 O    0.159
     6   8 O    2.280 --     4 C    1.078     7 C    0.961     5 O    0.159
     7   6 C    3.938 --     8 C    0.989    31 H    0.969    30 H    0.966
                             6 O    0.961
     8   6 C    3.991 --     7 C    0.989     3 C    0.978    32 H    0.969
                             9 C    0.968
     9   6 C    3.985 --    10 C    1.027     8 C    0.968    34 H    0.961
                            33 H    0.956
    10   6 C    3.952 --    11 C    1.548    14 N    1.194     9 C    1.027
    11   6 C    3.944 --    10 C    1.548    12 N    1.221    35 H    0.962
    12   7 N    3.714 --    13 C    1.368    11 C    1.221    16 C    0.957
    13   6 C    3.944 --    12 N    1.368    14 N    1.347    36 H    0.954
    14   7 N    3.701 --    13 C    1.347    10 C    1.194    15 C    0.989
    15   6 C    3.931 --    14 N    0.989    38 H    0.975    39 H    0.961
                            37 H    0.955
    16   6 C    3.933 --    17 C    0.981    41 H    0.964    12 N    0.957
                            40 H    0.955
    17   6 C    3.976 --    18 C    1.421    22 C    1.408    16 C    0.981
                            20 C    0.107
    18   6 C    3.990 --    19 C    1.426    17 C    1.421    42 H    0.968
                            21 C    0.105
    19   6 C    3.990 --    20 C    1.459    18 C    1.426    43 H    0.969
                            22 C    0.106
    20   6 C    3.989 --    19 C    1.459    21 C    1.394    44 H    0.968
                            17 C    0.107
    21   6 C    3.988 --    22 C    1.419    20 C    1.394    23 C    1.032
                            18 C    0.105
    22   6 C    3.990 --    21 C    1.419    17 C    1.408    45 H    0.967
                            19 C    0.106
    23   6 C    3.993 --    21 C    1.032    48 H    0.985    47 H    0.970
                            46 H    0.964
    24   1 H    0.999 --     1 C    0.987
    25   1 H    0.996 --     1 C    0.985
    26   1 H    0.998 --     1 C    0.986
    27   1 H    0.998 --     2 C    0.974
    28   1 H    0.995 --     2 C    0.969
    29   1 H    0.992 --     3 C    0.935
    30   1 H    0.996 --     7 C    0.966
    31   1 H    0.997 --     7 C    0.969
    32   1 H    0.997 --     8 C    0.969
    33   1 H    0.992 --     9 C    0.956
    34   1 H    0.993 --     9 C    0.961
    35   1 H    0.990 --    11 C    0.962
    36   1 H    0.989 --    13 C    0.954
    37   1 H    0.985 --    15 C    0.955
    38   1 H    0.991 --    15 C    0.975
    39   1 H    0.989 --    15 C    0.961
    40   1 H    0.991 --    16 C    0.955
    41   1 H    0.993 --    16 C    0.964
    42   1 H    0.998 --    18 C    0.968
    43   1 H    0.996 --    19 C    0.969
    44   1 H    0.996 --    20 C    0.968
    45   1 H    0.999 --    22 C    0.967
    46   1 H    0.995 --    23 C    0.964
    47   1 H    0.996 --    23 C    0.970
    48   1 H    0.997 --    23 C    0.985
 ---------------------------------------------------------------------------

molecular dipole:
                 x           y           z       tot (Debye)
 q only:        2.021       8.249      -3.740
   full:        2.164       8.605      -3.745      24.478

           -------------------------------------------------
          | TOTAL ENERGY              -67.085099363530 Eh   |
          | GRADIENT NORM               0.000391169213 Eh/α |
          | HOMO-LUMO GAP               2.819263402047 eV   |
           -------------------------------------------------

 * finished run on 2024/12/20 at 02:14:41.424
