   * xtb version 6.7.1 (edcfbbe) compiled by 'conda@3ef47c1a292c' on 2024-11-25

   ID    Z sym.   atoms
    1    6 C      1-3, 5-8, 10-16
    2    7 N      4, 9
    3    1 H      17-35

          program call               : xtb C0300.xyz --opt --namespace C0300 --charge +1
          :  Hamiltonian                  GFN2-xTB          :
 * total energy  :   -45.1172727 Eh     change       -0.1091173E-08 Eh
 * total energy  :   -45.1367221 Eh     change       -0.1944940E-01 Eh
 * total energy  :   -45.1404909 Eh     change       -0.3768821E-02 Eh
 * total energy  :   -45.1411510 Eh     change       -0.6601207E-03 Eh
 * total energy  :   -45.1416943 Eh     change       -0.5433117E-03 Eh
 * total energy  :   -45.1419352 Eh     change       -0.2408617E-03 Eh
 * total energy  :   -45.1421592 Eh     change       -0.2240082E-03 Eh
 * total energy  :   -45.1423518 Eh     change       -0.1926262E-03 Eh
 * total energy  :   -45.1425090 Eh     change       -0.1571479E-03 Eh
 * total energy  :   -45.1426397 Eh     change       -0.1307782E-03 Eh
 * total energy  :   -45.1427166 Eh     change       -0.7688199E-04 Eh
 * total energy  :   -45.1427457 Eh     change       -0.2904154E-04 Eh
 * total energy  :   -45.1427650 Eh     change       -0.1934728E-04 Eh
 * total energy  :   -45.1427779 Eh     change       -0.1286374E-04 Eh
 * total energy  :   -45.1427840 Eh     change       -0.6158342E-05 Eh
 * total energy  :   -45.1427934 Eh     change       -0.9348041E-05 Eh
 * total energy  :   -45.1427952 Eh     change       -0.1793222E-05 Eh
 * total energy  :   -45.1427993 Eh     change       -0.4127283E-05 Eh
   *** GEOMETRY OPTIMIZATION CONVERGED AFTER 18 ITERATIONS ***

 final structure:
================
35
 xtb: 6.7.1 (edcfbbe)
C           -0.39770054415028       -0.74440337182862       -0.12051064669299
C            0.17371466117949       -2.07028782658035        0.36517295955728
C            1.32625808214716       -1.89387811678908        1.36133830002627
N            0.91497391033261       -1.20007589163016        2.55788962430475
C            1.13003437897148        0.08098030307408        2.89993228916618
C            1.96728715314448        1.01412762485738        2.11539098748366
C            0.45922526967373        0.31369335849325        4.09348582196734
C           -0.16783046623541       -0.87276089192410        4.44621004880138
N            0.12371395403313       -1.77520051350657        3.49410122643343
C           -0.26541869252862       -3.14333048346466        3.46342497533612
C            0.68060551153492       -4.13121643242018        3.70698739758300
C            0.29185749585502       -5.45950777982995        3.68204428331847
C           -1.02747115657970       -5.79378991192626        3.42264289195560
C           -1.96789374038947       -4.80178568282480        3.19398952200203
C           -1.59193100378683       -3.46996207492042        3.21261623785331
C           -1.00543557482489       -1.18784158201729        5.62209017911059
H           -0.78590535596016       -0.15046348529050        0.70462851628173
H           -1.21447200638095       -0.92811499041455       -0.81205674902561
H            0.35908785226874       -0.16700543199295       -0.64536969821287
H           -0.61608642068211       -2.67054542194620        0.82002819857579
H            0.56224658851860       -2.63118378222390       -0.48494722734826
H            1.72272807397283       -2.87367863024480        1.63903383924430
H            2.12648895542095       -1.31052185268893        0.90500699158909
H            2.98512494639251        0.63669730822351        2.02201552475553
H            1.56487356889507        1.15997952077440        1.11473967098231
H            2.00268840263706        1.97677264502330        2.61648036773582
H            0.43362813096779        1.23299965555731        4.64041000258074
H            1.70243414029190       -3.86253557851443        3.93002422568833
H            1.02053516142470       -6.23149122513830        3.87065074353915
H           -1.32469261271319       -6.83010384677827        3.40432295331910
H           -2.99573758301334       -5.06299650574490        3.00038373077349
H           -2.31607352163551       -2.68969953633068        3.03346626347286
H           -2.05545530248645       -0.99180862138558        5.40377949451968
H           -0.90818924374587       -2.23413949798915        5.90230697968166
H           -0.71827301254925       -0.55876144965728        6.46004007364059

          :  Hamiltonian                  GFN2-xTB          :
         :: total energy             -45.142799296620 Eh    ::
         :: gradient norm              0.000544564828 Eh/a0 ::
         :: HOMO-LUMO gap              3.955342789205 eV    ::
         :: SCC energy               -45.901576967275 Eh    ::
         :: -> dispersion             -0.034110535940 Eh    ::
         :: repulsion energy           0.758777670656 Eh    ::

    * Orbital Energies and Occupations

         #    Occupation            Energy/Eh            Energy/eV
      -------------------------------------------------------------
         1        2.0000           -0.8786289             -23.9087
       ...           ...                  ...                  ...
        30        2.0000           -0.6153426             -16.7443
        31        2.0000           -0.6131386             -16.6844
        32        2.0000           -0.6077701             -16.5383
        33        2.0000           -0.5952713             -16.1982
        34        2.0000           -0.5874413             -15.9851
        35        2.0000           -0.5774293             -15.7127
        36        2.0000           -0.5692700             -15.4906
        37        2.0000           -0.5656154             -15.3912
        38        2.0000           -0.5641931             -15.3525
        39        2.0000           -0.5549661             -15.1014
        40        2.0000           -0.5534127             -15.0591
        41        2.0000           -0.5448631             -14.8265
        42        2.0000           -0.5432087             -14.7815 (HOMO)
        43                         -0.3978525             -10.8261 (LUMO)
        44                         -0.3682566             -10.0208
        45                         -0.3633811              -9.8881
        46                         -0.3225044              -8.7758
        47                         -0.2391840              -6.5085
        48                         -0.2013901              -5.4801
        49                         -0.1226638              -3.3379
        50                         -0.0588952              -1.6026
        51                         -0.0482677              -1.3134
        52                         -0.0370108              -1.0071
        53                         -0.0164633              -0.4480
       ...                                ...                  ...
        83                          0.5319471              14.4750
      -------------------------------------------------------------
                  HL-Gap            0.1453562 Eh            3.9553 eV

     #   Z          covCN         q      C6AA      α(0)
     1   6 C        3.752    -0.113    22.726     6.798
     2   6 C        3.800    -0.065    21.749     6.640
     3   6 C        3.739    -0.027    21.131     6.559
     4   7 N        2.952     0.065    20.102     6.659
     5   6 C        3.060     0.064    26.502     8.442
     6   6 C        3.755    -0.130    23.046     6.845
     7   6 C        3.039    -0.080    29.965     8.978
     8   6 C        3.056     0.065    26.489     8.441
     9   7 N        2.969     0.061    20.180     6.672
    10   6 C        2.915     0.041    27.083     8.534
    11   6 C        2.920    -0.037    28.908     8.817
    12   6 C        2.921    -0.018    28.465     8.749
    13   6 C        2.919    -0.016    28.403     8.740
    14   6 C        2.921    -0.018    28.463     8.749
    15   6 C        2.920    -0.034    28.846     8.807
    16   6 C        3.755    -0.127    22.985     6.836
    17   1 H        0.925     0.037     2.493     2.469
    18   1 H        0.925     0.063     2.165     2.301
    19   1 H        0.925     0.050     2.325     2.385
    20   1 H        0.924     0.049     2.334     2.389
    21   1 H        0.925     0.069     2.102     2.267
    22   1 H        0.924     0.076     2.021     2.223
    23   1 H        0.924     0.092     1.859     2.132
    24   1 H        0.925     0.084     1.939     2.177
    25   1 H        0.925     0.090     1.878     2.143
    26   1 H        0.925     0.090     1.880     2.144
    27   1 H        0.927     0.087     1.907     2.159
    28   1 H        0.926     0.052     2.290     2.366
    29   1 H        0.926     0.069     2.092     2.262
    30   1 H        0.926     0.072     2.064     2.247
    31   1 H        0.926     0.070     2.085     2.258
    32   1 H        0.926     0.057     2.231     2.336
    33   1 H        0.924     0.092     1.857     2.131
    34   1 H        0.925     0.077     2.010     2.217
    35   1 H        0.925     0.091     1.865     2.135

Wiberg/Mayer (AO) data.
largest (>0.10) Wiberg bond orders for each atom

     #   Z sym  total        # sym  WBO       # sym  WBO       # sym  WBO
 ---------------------------------------------------------------------------
     1   6 C    3.992 --     2 C    1.021    17 H    0.987    19 H    0.985
                            18 H    0.983
     2   6 C    3.987 --     1 C    1.021     3 C    0.986    20 H    0.973
                            21 H    0.970
     3   6 C    3.943 --     2 C    0.986     4 N    0.972    23 H    0.960
                            22 H    0.959
     4   7 N    3.636 --     5 C    1.300     9 N    1.090     3 C    0.972
                             8 C    0.110
     5   6 C    3.953 --     7 C    1.412     4 N    1.300     6 C    1.044
                             9 N    0.108
     6   6 C    3.982 --     5 C    1.044    26 H    0.976    24 H    0.955
                            25 H    0.954
     7   6 C    3.972 --     8 C    1.414     5 C    1.412    27 H    0.967
     8   6 C    3.955 --     7 C    1.414     9 N    1.291    16 C    1.046
                             4 N    0.110
     9   7 N    3.633 --     8 C    1.291     4 N    1.090    10 C    0.967
                             5 C    0.108
    10   6 C    3.937 --    11 C    1.395    15 C    1.395     9 N    0.967
                            13 C    0.106
    11   6 C    3.989 --    12 C    1.441    10 C    1.395    28 H    0.967
                            14 C    0.109
    12   6 C    3.987 --    11 C    1.441    13 C    1.438    29 H    0.967
                            15 C    0.109
    13   6 C    3.985 --    12 C    1.438    14 C    1.438    30 H    0.967
                            10 C    0.106
    14   6 C    3.987 --    15 C    1.442    13 C    1.438    31 H    0.967
                            11 C    0.109
    15   6 C    3.988 --    14 C    1.442    10 C    1.395    32 H    0.967
                            12 C    0.109
    16   6 C    3.983 --     8 C    1.046    34 H    0.970    35 H    0.969
                            33 H    0.947
    17   1 H    0.999 --     1 C    0.987
    18   1 H    0.996 --     1 C    0.983
    19   1 H    0.997 --     1 C    0.985
    20   1 H    0.998 --     2 C    0.973
    21   1 H    0.995 --     2 C    0.970
    22   1 H    0.994 --     3 C    0.959
    23   1 H    0.991 --     3 C    0.960
    24   1 H    0.992 --     6 C    0.955
    25   1 H    0.991 --     6 C    0.954
    26   1 H    0.991 --     6 C    0.976
    27   1 H    0.991 --     7 C    0.967
    28   1 H    0.997 --    11 C    0.967
    29   1 H    0.994 --    12 C    0.967
    30   1 H    0.995 --    13 C    0.967
    31   1 H    0.994 --    14 C    0.967
    32   1 H    0.997 --    15 C    0.967
    33   1 H    0.990 --    16 C    0.947
    34   1 H    0.994 --    16 C    0.970
    35   1 H    0.991 --    16 C    0.969
 ---------------------------------------------------------------------------

molecular dipole:
                 x           y           z       tot (Debye)
 q only:        0.531      -3.374       5.533
   full:        0.594      -3.388       5.570      16.640

           -------------------------------------------------
          | TOTAL ENERGY              -45.142799296620 Eh   |
          | GRADIENT NORM               0.000544564828 Eh/α |
          | HOMO-LUMO GAP               3.955342789205 eV   |
           -------------------------------------------------

 * finished run on 2024/12/20 at 02:14:25.684
