   * xtb version 6.7.1 (edcfbbe) compiled by 'conda@3ef47c1a292c' on 2024-11-25

   ID    Z sym.   atoms
    1    6 C      1, 2, 4-10, 13
    2    7 N      3
    3    8 O      11, 12
    4    1 H      14-33

          program call               : xtb C0306.xyz --opt --namespace C0306 --charge +1
          :  Hamiltonian                  GFN2-xTB          :
 * total energy  :   -42.2823299 Eh     change       -0.3845457E-09 Eh
 * total energy  :   -42.2923990 Eh     change       -0.1006915E-01 Eh
 * total energy  :   -42.2949298 Eh     change       -0.2530819E-02 Eh
 * total energy  :   -42.2952802 Eh     change       -0.3503797E-03 Eh
 * total energy  :   -42.2953787 Eh     change       -0.9846475E-04 Eh
 * total energy  :   -42.2955036 Eh     change       -0.1248915E-03 Eh
 * total energy  :   -42.2956337 Eh     change       -0.1300988E-03 Eh
 * total energy  :   -42.2958235 Eh     change       -0.1897989E-03 Eh
 * total energy  :   -42.2960919 Eh     change       -0.2684491E-03 Eh
 * total energy  :   -42.2963610 Eh     change       -0.2691138E-03 Eh
 * total energy  :   -42.2989911 Eh     change       -0.1531367E-04 Eh
 * total energy  :   -42.2990114 Eh     change       -0.2033287E-04 Eh
 * total energy  :   -42.2990353 Eh     change       -0.2393624E-04 Eh
 * total energy  :   -42.2990562 Eh     change       -0.2083583E-04 Eh
 * total energy  :   -42.2990729 Eh     change       -0.1672439E-04 Eh
 * total energy  :   -42.2990851 Eh     change       -0.1219222E-04 Eh
 * total energy  :   -42.2990944 Eh     change       -0.9324628E-05 Eh
 * total energy  :   -42.2991013 Eh     change       -0.6902139E-05 Eh
 * total energy  :   -42.2991037 Eh     change       -0.2356110E-05 Eh
   *** GEOMETRY OPTIMIZATION CONVERGED AFTER 68 ITERATIONS ***

 final structure:
================
33
 xtb: 6.7.1 (edcfbbe)
C            1.41800726226694       -0.44386317391487        0.39231417214772
C            0.30934032994120        0.02661875410267        1.31999204080483
N            0.72168110341839        0.99103753359348        2.39376247750033
C            1.12884118144577        2.28494045216460        1.77030803492565
C            1.37265258227384        3.40438224424515        2.77688904816000
C            0.13508563920750        3.63294364697761        3.63750096418726
C           -0.27119138489072        2.32245797397232        4.30229594955156
C           -0.47657309365967        1.23251456677229        3.25801043458148
C            1.84838310990294        0.44504623500789        3.18126118766772
C            1.60656678963901       -0.93952385394337        3.80685356141216
O            0.54216816795200       -1.49435811606826        3.85071337017817
O            2.74577020493053       -1.38513742417950        4.28631769694814
C            2.75907013150191       -2.64490054670133        4.96810797825420
H            1.91210033703367        0.37489799849295       -0.12323765271258
H            0.96227744243032       -1.07507075534479       -0.36674009234475
H            2.16037392241592       -1.04742972218956        0.90651246556639
H           -0.46789774943723        0.51662386346171        0.73066832676006
H           -0.13341058731705       -0.83885137456156        1.81547011763890
H            0.32195005297885        2.58669667567127        1.09894514031252
H            2.02830775106069        2.11863685130452        1.17697794119518
H            1.60761277182620        4.30775003964570        2.21323905435050
H            2.23710982868337        3.18847793243809        3.40573351665563
H            0.33929968389230        4.39012551199536        4.39253929359792
H           -0.68350368283000        3.99799319297714        3.01507147509659
H            0.47026433033888        2.02699593067883        5.04560495662159
H           -1.21545695924033        2.44853849607289        4.83235075443116
H           -0.74364198989192        0.28916783558980        3.73552381350345
H           -1.29305458246534        1.52935063489554        2.59649078434193
H            2.73933191184139        0.38258295966973        2.55426643202691
H            2.07592688826101        1.12294763358078        4.00561481899681
H            1.79200285930154       -3.13834631600189        4.87119560293811
H            3.54574339279903       -3.24979603275313        4.52139451162762
H            2.98512235440352       -2.46047964766059        6.01767182306518

          :  Hamiltonian                  GFN2-xTB          :
         :: total energy             -42.299103683415 Eh    ::
         :: gradient norm              0.000207901535 Eh/a0 ::
         :: HOMO-LUMO gap              5.142817537223 eV    ::
         :: SCC energy               -42.813162943893 Eh    ::
         :: -> dispersion             -0.026745996090 Eh    ::
         :: repulsion energy           0.514059260478 Eh    ::

    * Orbital Energies and Occupations

         #    Occupation            Energy/Eh            Energy/eV
      -------------------------------------------------------------
         1        2.0000           -0.8939897             -24.3267
       ...           ...                  ...                  ...
        26        2.0000           -0.6422168             -17.4756
        27        2.0000           -0.6358466             -17.3023
        28        2.0000           -0.6322158             -17.2035
        29        2.0000           -0.6264954             -17.0478
        30        2.0000           -0.6088588             -16.5679
        31        2.0000           -0.6045890             -16.4517
        32        2.0000           -0.5984869             -16.2857
        33        2.0000           -0.5970537             -16.2467
        34        2.0000           -0.5864405             -15.9579
        35        2.0000           -0.5819469             -15.8356
        36        2.0000           -0.5767623             -15.6945
        37        2.0000           -0.5736146             -15.6088
        38        2.0000           -0.5668010             -15.4234 (HOMO)
        39                         -0.3778059             -10.2806 (LUMO)
        40                         -0.2364447              -6.4340
        41                         -0.1824635              -4.9651
        42                         -0.1609805              -4.3805
        43                         -0.1479851              -4.0269
        44                         -0.1099505              -2.9919
        45                         -0.0738484              -2.0095
        46                         -0.0644671              -1.7542
        47                         -0.0568824              -1.5479
        48                         -0.0361608              -0.9840
        49                         -0.0323916              -0.8814
       ...                                ...                  ...
        72                          0.5207991              14.1717
      -------------------------------------------------------------
                  HL-Gap            0.1889951 Eh            5.1428 eV

     #   Z          covCN         q      C6AA      α(0)
     1   6 C        3.751    -0.127    23.009     6.841
     2   6 C        3.759    -0.039    21.319     6.583
     3   7 N        3.620     0.116    19.243     6.515
     4   6 C        3.763    -0.035    21.234     6.568
     5   6 C        3.804    -0.073    21.892     6.661
     6   6 C        3.806    -0.073    21.884     6.659
     7   6 C        3.805    -0.072    21.868     6.657
     8   6 C        3.764    -0.041    21.349     6.586
     9   6 C        3.758    -0.064    21.787     6.655
    10   6 C        2.711     0.361    20.882     7.480
    11   8 O        0.856    -0.396    21.605     6.232
    12   8 O        1.705    -0.232    17.847     5.704
    13   6 C        3.648     0.011    20.710     6.538
    14   1 H        0.925     0.063     2.161     2.299
    15   1 H        0.925     0.089     1.893     2.152
    16   1 H        0.925     0.061     2.182     2.310
    17   1 H        0.924     0.082     1.960     2.189
    18   1 H        0.924     0.106     1.729     2.056
    19   1 H        0.924     0.088     1.903     2.157
    20   1 H        0.924     0.081     1.965     2.192
    21   1 H        0.924     0.079     1.992     2.207
    22   1 H        0.924     0.057     2.231     2.336
    23   1 H        0.925     0.071     2.080     2.255
    24   1 H        0.924     0.059     2.216     2.328
    25   1 H        0.924     0.055     2.254     2.348
    26   1 H        0.925     0.080     1.974     2.197
    27   1 H        0.924     0.106     1.734     2.059
    28   1 H        0.924     0.085     1.932     2.174
    29   1 H        0.924     0.111     1.690     2.033
    30   1 H        0.924     0.116     1.643     2.005
    31   1 H        0.925     0.092     1.863     2.135
    32   1 H        0.925     0.093     1.852     2.128
    33   1 H        0.925     0.090     1.876     2.142

Wiberg/Mayer (AO) data.
largest (>0.10) Wiberg bond orders for each atom

     #   Z sym  total        # sym  WBO       # sym  WBO       # sym  WBO
 ---------------------------------------------------------------------------
     1   6 C    3.983 --     2 C    1.024    16 H    0.982    14 H    0.980
                            15 H    0.972
     2   6 C    3.927 --     1 C    1.024    17 H    0.967    18 H    0.960
                             3 N    0.921
     3   7 N    3.802 --     9 C    0.961     4 C    0.929     8 C    0.923
                             2 C    0.921
     4   6 C    3.933 --     5 C    1.008    19 H    0.966    20 H    0.965
                             3 N    0.929
     5   6 C    3.987 --     6 C    1.009     4 C    1.008    22 H    0.970
                            21 H    0.965
     6   6 C    3.992 --     5 C    1.009     7 C    1.009    24 H    0.975
                            23 H    0.972
     7   6 C    3.988 --     8 C    1.010     6 C    1.009    25 H    0.970
                            26 H    0.965
     8   6 C    3.924 --     7 C    1.010    28 H    0.967    27 H    0.959
                             3 N    0.923
     9   6 C    3.947 --     3 N    0.961    29 H    0.951    10 C    0.942
                            30 H    0.937
    10   6 C    3.936 --    11 O    1.733    12 O    1.200     9 C    0.942
    11   8 O    2.064 --    10 C    1.733    12 O    0.193
    12   8 O    2.361 --    10 C    1.200    13 C    0.929    11 O    0.193
    13   6 C    3.889 --    31 H    0.975    32 H    0.973    33 H    0.971
                            12 O    0.929
    14   1 H    0.996 --     1 C    0.980
    15   1 H    0.992 --     1 C    0.972
    16   1 H    0.996 --     1 C    0.982
    17   1 H    0.993 --     2 C    0.967
    18   1 H    0.988 --     2 C    0.960
    19   1 H    0.992 --     4 C    0.966
    20   1 H    0.993 --     4 C    0.965
    21   1 H    0.993 --     5 C    0.965
    22   1 H    0.997 --     5 C    0.970
    23   1 H    0.994 --     6 C    0.972
    24   1 H    0.997 --     6 C    0.975
    25   1 H    0.997 --     7 C    0.970
    26   1 H    0.993 --     7 C    0.965
    27   1 H    0.989 --     8 C    0.959
    28   1 H    0.993 --     8 C    0.967
    29   1 H    0.988 --     9 C    0.951
    30   1 H    0.986 --     9 C    0.937
    31   1 H    0.992 --    13 C    0.975
    32   1 H    0.991 --    13 C    0.973
    33   1 H    0.992 --    13 C    0.971
 ---------------------------------------------------------------------------

molecular dipole:
                 x           y           z       tot (Debye)
 q only:        2.244       1.872       5.043
   full:        2.352       1.868       4.991      14.806

           -------------------------------------------------
          | TOTAL ENERGY              -42.299103683415 Eh   |
          | GRADIENT NORM               0.000207901535 Eh/α |
          | HOMO-LUMO GAP               5.142817537223 eV   |
           -------------------------------------------------

 * finished run on 2024/12/20 at 02:14:36.843
