   * xtb version 6.7.1 (edcfbbe) compiled by 'conda@3ef47c1a292c' on 2024-11-25

   ID    Z sym.   atoms
    1    6 C      1-12, 14-19
    2    7 N      13
    3    1 H      20-51

          program call               : xtb C0304.xyz --opt --namespace C0304 --charge +1
          :  Hamiltonian                  GFN2-xTB          :
 * total energy  :   -57.4104642 Eh     change       -0.1271097E-08 Eh
 * total energy  :   -57.4135848 Eh     change       -0.3120602E-02 Eh
 * total energy  :   -57.4141216 Eh     change       -0.5367272E-03 Eh
 * total energy  :   -57.4142295 Eh     change       -0.1079592E-03 Eh
 * total energy  :   -57.4143386 Eh     change       -0.1091248E-03 Eh
 * total energy  :   -57.4144165 Eh     change       -0.7787435E-04 Eh
 * total energy  :   -57.4145038 Eh     change       -0.8724809E-04 Eh
 * total energy  :   -57.4145922 Eh     change       -0.8845434E-04 Eh
 * total energy  :   -57.4146497 Eh     change       -0.5752971E-04 Eh
 * total energy  :   -57.4146961 Eh     change       -0.4632057E-04 Eh
 * total energy  :   -57.4153494 Eh     change       -0.1277277E-04 Eh
 * total energy  :   -57.4153601 Eh     change       -0.1072049E-04 Eh
 * total energy  :   -57.4153685 Eh     change       -0.8340655E-05 Eh
 * total energy  :   -57.4153754 Eh     change       -0.6864041E-05 Eh
 * total energy  :   -57.4153818 Eh     change       -0.6450753E-05 Eh
 * total energy  :   -57.4153884 Eh     change       -0.6633853E-05 Eh
 * total energy  :   -57.4153953 Eh     change       -0.6905189E-05 Eh
 * total energy  :   -57.4154009 Eh     change       -0.5562305E-05 Eh
 * total energy  :   -57.4154058 Eh     change       -0.4869407E-05 Eh
   *** GEOMETRY OPTIMIZATION CONVERGED AFTER 40 ITERATIONS ***

 final structure:
================
51
 xtb: 6.7.1 (edcfbbe)
C            1.05545360486631        0.63742324427196       -0.56948501146952
C            1.14851331166552       -0.48386078789141       -1.59730150510703
C            1.40801263440492       -1.85647215479241       -0.97403362343462
C            0.32781093046099       -2.34110351252163       -0.00463474291612
C           -1.07608702359434       -2.45090482222960       -0.60238521772991
C           -1.19992062836667       -3.40704180380734       -1.79037121554657
C           -0.81989529566171       -4.85950643423846       -1.49420273225200
C           -1.61892827402329       -5.51949850284710       -0.36853571478625
C           -3.13681044941816       -5.52248743288831       -0.56780130302758
C           -3.61749868460499       -6.20786597788038       -1.84967745236608
C           -3.26013759609529       -7.68940743492481       -1.96024528984161
C           -3.95766741535835       -8.58232693019543       -0.92260619843210
N           -5.38990989153502       -8.61286829316161       -1.15544392701909
C           -5.89301391465912       -9.47137669929032       -2.04727444635003
C           -7.24106545432321       -9.47155866507895       -2.34413484325434
C           -8.07652359687071       -8.56194782970398       -1.71713808109333
C           -7.54591016394461       -7.66068509684734       -0.79082534723343
C           -6.18286808809275       -7.72912532982535       -0.54099410191303
C           -8.40613935044571       -6.66688593640866       -0.09540669516646
H            0.18139397933798        0.51868279358503        0.06608142490912
H            0.97952146888738        1.60021866921896       -1.06950281415274
H            1.94142773108725        0.64941570817146        0.06138829421027
H            0.23318776712814       -0.51061068529686       -2.19142830783166
H            1.97117020302204       -0.26495733611074       -2.28201372892276
H            1.53138354209714       -2.58720710405742       -1.77648824039675
H            2.35360364372707       -1.81552751098748       -0.42784418257452
H            0.63295393667778       -3.31351188899211        0.38877519148227
H            0.28069344885129       -1.65687160917656        0.84433394504621
H           -1.76198589545644       -2.76175389891289        0.18958279220459
H           -1.40103718740475       -1.46235355236134       -0.93103034229158
H           -2.22820420852948       -3.36583471080779       -2.15896606127457
H           -0.56056981898164       -3.05180642040748       -2.59978237245143
H           -0.93194220206027       -5.43954305757216       -2.41370480282526
H            0.23556627884729       -4.90198868545671       -1.22221886420987
H           -1.26022790719635       -6.54442269472936       -0.24381538104766
H           -1.40871274925474       -4.99813327156026        0.56616331638446
H           -3.59125349128445       -5.99157518436614        0.30994177271066
H           -3.49001161563797       -4.49112744845170       -0.59096432393434
H           -4.70133946972955       -6.08022109048301       -1.93946828968776
H           -3.17207429274164       -5.69620423468226       -2.70243835921207
H           -3.51288760134379       -8.04651188481158       -2.96112318657718
H           -2.18613766394280       -7.81266003341727       -1.82802992173252
H           -3.56814807215253       -9.59919786728560       -0.99592548217948
H           -3.76463598195963       -8.20519930194057        0.08190780927728
H           -5.20716253010591      -10.15981778934347       -2.51698533250071
H           -7.62858859714759      -10.17794984774873       -3.06029121350063
H           -9.13280984253458       -8.54716153420533       -1.93729708428956
H           -5.71989511888349       -7.06681276452840        0.17562066362429
H           -8.94735112882621       -6.06378921383011       -0.82247319856820
H           -9.15009111773209       -7.17820985427210        0.51414536414586
H           -7.82395016116428       -6.00983629494420        0.54362836507366

          :  Hamiltonian                  GFN2-xTB          :
         :: total energy             -57.415405774639 Eh    ::
         :: gradient norm              0.000337827244 Eh/a0 ::
         :: HOMO-LUMO gap              0.597784251143 eV    ::
         :: SCC energy               -58.322762143134 Eh    ::
         :: -> dispersion             -0.042791424316 Eh    ::
         :: repulsion energy           0.907356368495 Eh    ::

    * Orbital Energies and Occupations

         #    Occupation            Energy/Eh            Energy/eV
      -------------------------------------------------------------
         1        2.0000           -0.8701453             -23.6779
       ...           ...                  ...                  ...
        42        2.0000           -0.5477169             -14.9041
        43        2.0000           -0.5417772             -14.7425
        44        2.0000           -0.5341163             -14.5340
        45        2.0000           -0.5319292             -14.4745
        46        2.0000           -0.5203308             -14.1589
        47        2.0000           -0.5164523             -14.0534
        48        2.0000           -0.5090701             -13.8525
        49        2.0000           -0.4991405             -13.5823
        50        2.0000           -0.4951644             -13.4741
        51        2.0000           -0.4914290             -13.3725
        52        2.0000           -0.4760246             -12.9533
        53        2.0000           -0.4722946             -12.8518
        54        2.0000           -0.4700318             -12.7902 (HOMO)
        55        0.0000           -0.4480637             -12.1924 (LUMO)
        56                         -0.4148698             -11.2892
        57                         -0.2982837              -8.1167
        58                         -0.1625525              -4.4233
        59                         -0.0783585              -2.1322
        60                         -0.0599995              -1.6327
        61                         -0.0470006              -1.2790
        62                         -0.0356941              -0.9713
        63                         -0.0315796              -0.8593
        64                         -0.0114453              -0.3114
        65                         -0.0078195              -0.2128
       ...                                ...                  ...
       108                          0.4466881              12.1550
      -------------------------------------------------------------
                  HL-Gap            0.0219682 Eh            0.5978 eV

     #   Z          covCN         q      C6AA      α(0)
     1   6 C        3.751    -0.103    22.521     6.768
     2   6 C        3.799    -0.053    21.519     6.605
     3   6 C        3.800    -0.058    21.619     6.620
     4   6 C        3.800    -0.058    21.618     6.620
     5   6 C        3.800    -0.057    21.607     6.618
     6   6 C        3.800    -0.059    21.628     6.622
     7   6 C        3.800    -0.060    21.661     6.627
     8   6 C        3.800    -0.061    21.679     6.629
     9   6 C        3.800    -0.061    21.669     6.628
    10   6 C        3.800    -0.066    21.760     6.642
    11   6 C        3.801    -0.068    21.811     6.649
    12   6 C        3.760    -0.034    21.235     6.569
    13   7 N        2.749     0.109    19.371     6.537
    14   6 C        2.894     0.025    27.437     8.588
    15   6 C        2.913    -0.015    28.378     8.735
    16   6 C        2.930    -0.004    28.116     8.696
    17   6 C        2.961     0.048    26.929     8.512
    18   6 C        2.899     0.018    27.598     8.614
    19   6 C        3.759    -0.133    23.105     6.853
    20   1 H        0.925     0.033     2.544     2.494
    21   1 H        0.925     0.034     2.528     2.487
    22   1 H        0.925     0.036     2.502     2.474
    23   1 H        0.924     0.029     2.605     2.524
    24   1 H        0.924     0.030     2.585     2.514
    25   1 H        0.924     0.027     2.628     2.535
    26   1 H        0.924     0.032     2.553     2.499
    27   1 H        0.924     0.026     2.639     2.540
    28   1 H        0.924     0.036     2.507     2.476
    29   1 H        0.924     0.023     2.689     2.565
    30   1 H        0.924     0.037     2.492     2.469
    31   1 H        0.924     0.022     2.701     2.570
    32   1 H        0.924     0.040     2.451     2.448
    33   1 H        0.924     0.024     2.668     2.554
    34   1 H        0.924     0.043     2.407     2.426
    35   1 H        0.924     0.025     2.664     2.553
    36   1 H        0.924     0.046     2.366     2.405
    37   1 H        0.924     0.016     2.801     2.617
    38   1 H        0.924     0.050     2.318     2.381
    39   1 H        0.924     0.022     2.700     2.570
    40   1 H        0.925     0.066     2.126     2.280
    41   1 H        0.924     0.050     2.321     2.383
    42   1 H        0.925     0.083     1.946     2.182
    43   1 H        0.924     0.086     1.920     2.167
    44   1 H        0.925     0.094     1.840     2.121
    45   1 H        0.926     0.103     1.757     2.073
    46   1 H        0.926     0.102     1.765     2.077
    47   1 H        0.926     0.100     1.789     2.091
    48   1 H        0.926     0.105     1.740     2.063
    49   1 H        0.925     0.095     1.835     2.118
    50   1 H        0.925     0.096     1.820     2.109
    51   1 H        0.925     0.077     2.010     2.217

Wiberg/Mayer (AO) data.
largest (>0.10) Wiberg bond orders for each atom

     #   Z sym  total        # sym  WBO       # sym  WBO       # sym  WBO
 ---------------------------------------------------------------------------
     1   6 C    3.997 --     2 C    1.020    22 H    0.987    21 H    0.987
                            20 H    0.986
     2   6 C    3.998 --     1 C    1.020     3 C    1.008    24 H    0.978
                            23 H    0.976
     3   6 C    3.997 --     2 C    1.008     4 C    1.008    26 H    0.977
                            25 H    0.976
     4   6 C    3.997 --     5 C    1.008     3 C    1.008    27 H    0.975
                            28 H    0.975
     5   6 C    3.997 --     4 C    1.008     6 C    1.008    29 H    0.975
                            30 H    0.974
     6   6 C    3.997 --     5 C    1.008     7 C    1.007    31 H    0.975
                            32 H    0.974
     7   6 C    3.996 --     8 C    1.007     6 C    1.007    33 H    0.975
                            34 H    0.974
     8   6 C    3.995 --     7 C    1.007     9 C    1.007    35 H    0.975
                            36 H    0.973
     9   6 C    3.995 --    10 C    1.007     8 C    1.007    38 H    0.973
                            37 H    0.972
    10   6 C    3.992 --    11 C    1.010     9 C    1.007    39 H    0.972
                            40 H    0.966
    11   6 C    3.981 --    10 C    1.010    41 H    0.974    12 C    0.973
                            42 H    0.960
    12   6 C    3.934 --    11 C    0.973    13 N    0.965    43 H    0.963
                            44 H    0.960
    13   7 N    3.766 --    14 C    1.328    18 C    1.324    12 C    0.965
    14   6 C    3.960 --    15 C    1.448    13 N    1.328    45 H    0.956
    15   6 C    3.983 --    14 C    1.448    16 C    1.441    46 H    0.960
    16   6 C    3.975 --    15 C    1.441    17 C    1.375    47 H    0.962
    17   6 C    3.981 --    18 C    1.412    16 C    1.375    19 C    1.046
    18   6 C    3.958 --    17 C    1.412    13 N    1.324    48 H    0.951
    19   6 C    3.983 --    17 C    1.046    51 H    0.980    49 H    0.955
                            50 H    0.950
    20   1 H    0.999 --     1 C    0.986
    21   1 H    0.999 --     1 C    0.987
    22   1 H    0.999 --     1 C    0.987
    23   1 H    0.999 --     2 C    0.976
    24   1 H    0.999 --     2 C    0.978
    25   1 H    0.999 --     3 C    0.976
    26   1 H    0.999 --     3 C    0.977
    27   1 H    0.999 --     4 C    0.975
    28   1 H    0.999 --     4 C    0.975
    29   1 H    0.999 --     5 C    0.975
    30   1 H    0.999 --     5 C    0.974
    31   1 H    0.999 --     6 C    0.975
    32   1 H    0.998 --     6 C    0.974
    33   1 H    0.999 --     7 C    0.975
    34   1 H    0.998 --     7 C    0.974
    35   1 H    0.999 --     8 C    0.975
    36   1 H    0.998 --     8 C    0.973
    37   1 H    1.000 --     9 C    0.972
    38   1 H    0.997 --     9 C    0.973
    39   1 H    0.999 --    10 C    0.972
    40   1 H    0.995 --    10 C    0.966
    41   1 H    0.997 --    11 C    0.974
    42   1 H    0.991 --    11 C    0.960
    43   1 H    0.992 --    12 C    0.963
    44   1 H    0.991 --    12 C    0.960
    45   1 H    0.989 --    14 C    0.956
    46   1 H    0.989 --    15 C    0.960
    47   1 H    0.990 --    16 C    0.962
    48   1 H    0.989 --    18 C    0.951
    49   1 H    0.991 --    19 C    0.955
    50   1 H    0.991 --    19 C    0.950
    51   1 H    0.994 --    19 C    0.980
 ---------------------------------------------------------------------------

molecular dipole:
                 x           y           z       tot (Debye)
 q only:      -11.019     -15.176      -2.296
   full:      -11.052     -15.332      -2.312      48.396

           -------------------------------------------------
          | TOTAL ENERGY              -57.415405774639 Eh   |
          | GRADIENT NORM               0.000337827244 Eh/α |
          | HOMO-LUMO GAP               0.597784251143 eV   |
           -------------------------------------------------

 * finished run on 2024/12/20 at 02:14:33.372
