   * xtb version 6.7.1 (edcfbbe) compiled by 'conda@3ef47c1a292c' on 2024-11-25

   ID    Z sym.   atoms
    1   17 Cl     1
    2    6 C      2-8, 10, 12, 13, 15, 16
    3    8 O      9, 17
    4    7 N      11, 14
    5    1 H      18-29

          program call               : xtb C0305.xyz --opt --namespace C0305 --charge +1
          :  Hamiltonian                  GFN2-xTB          :
 * total energy  :   -49.8909450 Eh     change       -0.1201890E-08 Eh
 * total energy  :   -49.8982923 Eh     change       -0.7347269E-02 Eh
 * total energy  :   -49.9002443 Eh     change       -0.1952015E-02 Eh
 * total energy  :   -49.9005216 Eh     change       -0.2773048E-03 Eh
 * total energy  :   -49.9006359 Eh     change       -0.1143026E-03 Eh
 * total energy  :   -49.9006818 Eh     change       -0.4590640E-04 Eh
 * total energy  :   -49.9007106 Eh     change       -0.2879876E-04 Eh
 * total energy  :   -49.9007417 Eh     change       -0.3100709E-04 Eh
 * total energy  :   -49.9007575 Eh     change       -0.1579846E-04 Eh
 * total energy  :   -49.9007926 Eh     change       -0.3512817E-04 Eh
 * total energy  :   -49.9121304 Eh     change       -0.3823062E-04 Eh
 * total energy  :   -49.9121550 Eh     change       -0.2453867E-04 Eh
 * total energy  :   -49.9121801 Eh     change       -0.2510969E-04 Eh
 * total energy  :   -49.9122046 Eh     change       -0.2453716E-04 Eh
 * total energy  :   -49.9122234 Eh     change       -0.1879484E-04 Eh
 * total energy  :   -49.9122350 Eh     change       -0.1157218E-04 Eh
 * total energy  :   -49.9122416 Eh     change       -0.6624163E-05 Eh
 * total energy  :   -49.9122468 Eh     change       -0.5198325E-05 Eh
 * total energy  :   -49.9122509 Eh     change       -0.4095092E-05 Eh
   *** GEOMETRY OPTIMIZATION CONVERGED AFTER 113 ITERATIONS ***

 final structure:
================
29
 xtb: 6.7.1 (edcfbbe)
Cl          -1.33922859786078       -1.95727713705332        2.11472268678157
C           -0.18330424589243       -1.02183275239587        1.26801703167043
C           -0.39160831355063       -0.70247696690589       -0.07173405997721
C            0.54317930820978        0.05353700127537       -0.74092791125694
C            1.70624171044577        0.50079699843571       -0.09602028064604
C            1.90175558433285        0.16949733820458        1.25079550783335
C            0.96466585658950       -0.58162995385506        1.92529476511424
C            2.63970246081285        1.29924021096473       -0.87790862743323
O            2.44228612729648        1.68241666633336       -2.00911729114489
C            3.98273460517855        1.69238269917253       -0.19735434581421
N            4.82457366587921        2.30905213955068       -1.18376626863581
C            5.82716478844442        1.68762023903443       -1.87000130624998
C            6.24447208506598        2.53287685188769       -2.84828482029820
N            5.46192765297580        3.64364002510147       -2.74957461973453
C            4.59242737394219        3.50498883604387       -1.74411457349037
C            3.60756748217395        4.52046817766897       -1.33595907024119
O            5.55709217753285        4.77702826737828       -3.49087086247046
H           -1.28122992170904       -1.04640129034022       -0.57423108382469
H            0.39952157860631        0.31260199325441       -1.77889954662555
H            2.77720988783233        0.50282182670107        1.78519310297185
H            1.11194568674362       -0.83281314947142        2.96344634159684
H            3.77635672430877        2.39291285552941        0.61541767350871
H            4.48230292640978        0.80781960997821        0.19748885366417
H            6.17392934016810        0.70594472630075       -1.61983881917478
H            7.01220434761208        2.42100313450554       -3.58655708854567
H            2.59781739222893        4.17904189699502       -1.56555940359079
H            3.66643341850373        4.71427326841881       -0.26603798740556
H            3.79539194786730        5.44471240396305       -1.87642773602070
H            5.85729694986428        4.56720408330520       -4.39070026054465

          :  Hamiltonian                  GFN2-xTB          :
         :: total energy             -49.912250891309 Eh    ::
         :: gradient norm              0.000607746022 Eh/a0 ::
         :: HOMO-LUMO gap              2.523956243366 eV    ::
         :: SCC energy               -50.573645829210 Eh    ::
         :: -> dispersion             -0.028492986910 Eh    ::
         :: repulsion energy           0.661394937900 Eh    ::

    * Orbital Energies and Occupations

         #    Occupation            Energy/Eh            Energy/eV
      -------------------------------------------------------------
         1        2.0000           -1.1490959             -31.2685
       ...           ...                  ...                  ...
        32        2.0000           -0.6217561             -16.9188
        33        2.0000           -0.6126762             -16.6718
        34        2.0000           -0.6092376             -16.5782
        35        2.0000           -0.6018227             -16.3764
        36        2.0000           -0.5987350             -16.2924
        37        2.0000           -0.5703788             -15.5208
        38        2.0000           -0.5690590             -15.4849
        39        2.0000           -0.5616212             -15.2825
        40        2.0000           -0.5509400             -14.9918
        41        2.0000           -0.5349744             -14.5574
        42        2.0000           -0.5343824             -14.5413
        43        2.0000           -0.5145862             -14.0026
        44        2.0000           -0.5058135             -13.7639 (HOMO)
        45                         -0.4130598             -11.2399 (LUMO)
        46                         -0.3934822             -10.7072
        47                         -0.3675612             -10.0019
        48                         -0.3502930              -9.5320
        49                         -0.3215984              -8.7511
        50                         -0.2463036              -6.7023
        51                         -0.2266194              -6.1666
        52                         -0.2153912              -5.8611
        53                         -0.1466722              -3.9912
        54                         -0.0838099              -2.2806
        55                         -0.0827689              -2.2523
       ...                                ...                  ...
        85                          0.5387425              14.6599
      -------------------------------------------------------------
                  HL-Gap            0.0927537 Eh            2.5240 eV

     #   Z          covCN         q      C6AA      α(0)
     1  17 Cl       0.971    -0.096   102.139    15.462
     2   6 C        2.887     0.118    25.402     8.263
     3   6 C        2.952    -0.031    28.770     8.798
     4   6 C        2.928    -0.009    28.234     8.714
     5   6 C        2.969    -0.023    28.563     8.766
     6   6 C        2.919    -0.026    28.655     8.778
     7   6 C        2.955    -0.032    28.803     8.803
     8   6 C        2.822     0.227    23.245     7.900
     9   8 O        0.857    -0.364    20.974     6.140
    10   6 C        3.742    -0.050    21.554     6.623
    11   7 N        2.880     0.054    20.294     6.691
    12   6 C        3.059    -0.008    28.153     8.701
    13   6 C        3.022    -0.032    28.769     8.798
    14   7 N        2.907     0.187    18.135     6.325
    15   6 C        3.075     0.110    25.508     8.281
    16   6 C        3.754    -0.136    23.166     6.863
    17   8 O        1.724    -0.308    19.127     5.905
    18   1 H        0.926     0.086     1.915     2.164
    19   1 H        0.926     0.087     1.910     2.161
    20   1 H        0.926     0.055     2.259     2.350
    21   1 H        0.926     0.082     1.955     2.186
    22   1 H        0.924     0.101     1.776     2.084
    23   1 H        0.925     0.102     1.765     2.078
    24   1 H        0.926     0.110     1.697     2.037
    25   1 H        0.926     0.111     1.684     2.029
    26   1 H        0.924     0.119     1.619     1.990
    27   1 H        0.925     0.098     1.808     2.103
    28   1 H        0.925     0.112     1.676     2.025
    29   1 H        0.804     0.355     0.578     1.194

Wiberg/Mayer (AO) data.
largest (>0.10) Wiberg bond orders for each atom

     #   Z sym  total        # sym  WBO       # sym  WBO       # sym  WBO
 ---------------------------------------------------------------------------
     1  17 Cl   1.201 --     2 C    1.041
     2   6 C    3.929 --     3 C    1.371     7 C    1.363     1 Cl   1.041
     3   6 C    3.985 --     4 C    1.483     2 C    1.371    18 H    0.962
     4   6 C    3.982 --     3 C    1.483     5 C    1.337    19 H    0.961
     5   6 C    3.984 --     6 C    1.342     4 C    1.337     8 C    1.090
     6   6 C    3.990 --     7 C    1.489     5 C    1.342    20 H    0.965
     7   6 C    3.986 --     6 C    1.489     2 C    1.363    21 H    0.964
     8   6 C    3.925 --     9 O    1.796     5 C    1.090    10 C    0.922
     9   8 O    2.070 --     8 C    1.796
    10   6 C    3.944 --    11 N    0.991    23 H    0.955    22 H    0.944
                             8 C    0.922
    11   7 N    3.690 --    15 C    1.303    12 C    1.210    10 C    0.991
    12   6 C    3.947 --    13 C    1.598    11 N    1.210    24 H    0.960
    13   6 C    3.938 --    12 C    1.598    14 N    1.194    25 H    0.959
    14   7 N    3.696 --    15 C    1.307    13 C    1.194    17 O    1.022
    15   6 C    3.942 --    14 N    1.307    11 N    1.303    16 C    1.051
    16   6 C    3.970 --    15 C    1.051    28 H    0.967    27 H    0.952
                            26 H    0.939
    17   8 O    2.018 --    14 N    1.022    29 H    0.857
    18   1 H    0.992 --     3 C    0.962
    19   1 H    0.992 --     4 C    0.961
    20   1 H    0.997 --     6 C    0.965
    21   1 H    0.993 --     7 C    0.964
    22   1 H    0.989 --    10 C    0.944
    23   1 H    0.989 --    10 C    0.955
    24   1 H    0.988 --    12 C    0.960
    25   1 H    0.987 --    13 C    0.959
    26   1 H    0.986 --    16 C    0.939
    27   1 H    0.990 --    16 C    0.952
    28   1 H    0.987 --    16 C    0.967
    29   1 H    0.874 --    17 O    0.857
 ---------------------------------------------------------------------------

molecular dipole:
                 x           y           z       tot (Debye)
 q only:        8.468       4.642      -2.532
   full:        8.436       4.253      -2.359      24.750

           -------------------------------------------------
          | TOTAL ENERGY              -49.912250891309 Eh   |
          | GRADIENT NORM               0.000607746022 Eh/α |
          | HOMO-LUMO GAP               2.523956243366 eV   |
           -------------------------------------------------

 * finished run on 2024/12/20 at 02:14:35.359
