   * xtb version 6.7.1 (edcfbbe) compiled by 'conda@3ef47c1a292c' on 2024-11-25

   ID    Z sym.   atoms
    1    7 N      1, 4, 7
    2    6 C      2, 3, 5, 6, 8-15
    3    1 H      16-29

          program call               : xtb C0318.xyz --opt --namespace C0318 --charge +1
          :  Hamiltonian                  GFN2-xTB          :
 * total energy  :   -41.1754023 Eh     change       -0.1839695E-08 Eh
 * total energy  :   -41.2093472 Eh     change       -0.3394488E-01 Eh
 * total energy  :   -41.2114427 Eh     change       -0.2095450E-02 Eh
 * total energy  :   -41.2117028 Eh     change       -0.2601243E-03 Eh
 * total energy  :   -41.2117946 Eh     change       -0.9183787E-04 Eh
 * total energy  :   -41.2118896 Eh     change       -0.9501282E-04 Eh
 * total energy  :   -41.2119404 Eh     change       -0.5077641E-04 Eh
 * total energy  :   -41.2119794 Eh     change       -0.3895257E-04 Eh
 * total energy  :   -41.2120251 Eh     change       -0.4573377E-04 Eh
 * total energy  :   -41.2120447 Eh     change       -0.1956044E-04 Eh
 * total energy  :   -41.2120732 Eh     change       -0.2858650E-04 Eh
 * total energy  :   -41.2120828 Eh     change       -0.9594140E-05 Eh
 * total energy  :   -41.2120994 Eh     change       -0.1659039E-04 Eh
 * total energy  :   -41.2121080 Eh     change       -0.8596895E-05 Eh
 * total energy  :   -41.2121176 Eh     change       -0.9587826E-05 Eh
 * total energy  :   -41.2121255 Eh     change       -0.7920107E-05 Eh
 * total energy  :   -41.2121323 Eh     change       -0.6759116E-05 Eh
 * total energy  :   -41.2121356 Eh     change       -0.3272725E-05 Eh
   *** GEOMETRY OPTIMIZATION CONVERGED AFTER 18 ITERATIONS ***

 final structure:
================
29
 xtb: 6.7.1 (edcfbbe)
N            1.29615186841760       -0.32307353365963        0.24787918901640
C            2.42499234442353       -0.19084436423535        0.16367609009824
C            3.86713149892029       -0.08271248068517        0.01713899464357
N            4.32395419255887       -0.90531696626397       -1.08225548948754
C            4.16590854059370       -2.23642553050871       -1.17789896464634
C            3.54053481190691       -3.07124846685287       -0.13449336722505
N            4.64421834879923       -2.66481079163194       -2.34719216090382
C            5.15007553149077       -1.57964027434631       -3.03999773290696
C            4.93555288179644       -0.44753196441511       -2.23582280853266
C            5.32362521548845        0.81868288281516       -2.65172346337721
C            5.93319204341311        0.91042167477806       -3.88689800062044
C            6.15170572133139       -0.21494295623242       -4.68461488350003
C            5.76606169923831       -1.47690126852919       -4.28044273100918
C            4.68412995347710       -4.02940706779106       -2.83302183605375
C            6.01036748388981       -4.69811317648075       -2.48602577368085
H            4.12920891890219        0.95917181971574       -0.18522215878713
H            4.34613474579851       -0.38619674526074        0.95662023213619
H            3.82944073477026       -2.73070621314877        0.85813928548876
H            2.45214940229181       -3.00374961458960       -0.19582959839413
H            3.82716938693750       -4.11350537981253       -0.23779066839882
H            5.16186323699708        1.69872081952225       -2.05070458056112
H            6.24932406048639        1.87639435858571       -4.24636300153264
H            6.63424768939640       -0.09215545255789       -5.64081001826788
H            5.94040062578348       -2.33907248984334       -4.90245939847641
H            3.84644404855935       -4.58320098914427       -2.40674159651644
H            4.55145873131151       -3.99513071038524       -3.91607452685076
H            6.15380598586682       -4.74990407320094       -1.40945210340032
H            6.01927351734868       -5.70908068293293       -2.88192991855146
H            6.84351677980498       -4.15131036290816       -2.92040900970161

          :  Hamiltonian                  GFN2-xTB          :
         :: total energy             -41.212135571552 Eh    ::
         :: gradient norm              0.000388533309 Eh/a0 ::
         :: HOMO-LUMO gap              3.595185933895 eV    ::
         :: SCC energy               -41.929720574869 Eh    ::
         :: -> dispersion             -0.027588606198 Eh    ::
         :: repulsion energy           0.717585003317 Eh    ::

    * Orbital Energies and Occupations

         #    Occupation            Energy/Eh            Energy/eV
      -------------------------------------------------------------
         1        2.0000           -0.8874662             -24.1492
       ...           ...                  ...                  ...
        26        2.0000           -0.6394298             -17.3998
        27        2.0000           -0.6362584             -17.3135
        28        2.0000           -0.6241722             -16.9846
        29        2.0000           -0.6210072             -16.8985
        30        2.0000           -0.6126346             -16.6706
        31        2.0000           -0.6039030             -16.4330
        32        2.0000           -0.6013555             -16.3637
        33        2.0000           -0.5905234             -16.0690
        34        2.0000           -0.5851108             -15.9217
        35        2.0000           -0.5786151             -15.7449
        36        2.0000           -0.5688747             -15.4799
        37        2.0000           -0.5556362             -15.1196
        38        2.0000           -0.5500658             -14.9681 (HOMO)
        39                         -0.4179451             -11.3729 (LUMO)
        40                         -0.3711252             -10.0988
        41                         -0.3643671              -9.9149
        42                         -0.3575359              -9.7290
        43                         -0.3488887              -9.4937
        44                         -0.2434753              -6.6253
        45                         -0.1859670              -5.0604
        46                         -0.1396423              -3.7999
        47                         -0.0805634              -2.1922
        48                         -0.0604386              -1.6446
        49                         -0.0535701              -1.4577
       ...                                ...                  ...
        74                          1.0029349              27.2912
      -------------------------------------------------------------
                  HL-Gap            0.1321207 Eh            3.5952 eV

     #   Z          covCN         q      C6AA      α(0)
     1   7 N        0.911    -0.157    24.406     7.145
     2   6 C        1.898     0.109    28.411     8.608
     3   6 C        3.743    -0.005    20.737     6.497
     4   7 N        2.841     0.005    21.176     6.835
     5   6 C        3.066     0.125    25.197     8.231
     6   6 C        3.755    -0.136    23.183     6.866
     7   7 N        2.829     0.013    21.028     6.811
     8   6 C        3.102     0.040    26.976     8.511
     9   6 C        3.085     0.038    27.045     8.525
    10   6 C        2.909    -0.034    28.843     8.806
    11   6 C        2.926    -0.017    28.431     8.744
    12   6 C        2.926    -0.018    28.451     8.747
    13   6 C        2.909    -0.032    28.806     8.801
    14   6 C        3.739    -0.014    20.908     6.524
    15   6 C        3.752    -0.122    22.902     6.824
    16   1 H        0.924     0.118     1.627     1.995
    17   1 H        0.924     0.107     1.719     2.050
    18   1 H        0.925     0.095     1.829     2.115
    19   1 H        0.924     0.111     1.685     2.030
    20   1 H        0.925     0.099     1.794     2.095
    21   1 H        0.926     0.067     2.124     2.279
    22   1 H        0.926     0.082     1.959     2.188
    23   1 H        0.926     0.082     1.958     2.188
    24   1 H        0.926     0.073     2.048     2.238
    25   1 H        0.924     0.079     1.984     2.203
    26   1 H        0.924     0.087     1.907     2.160
    27   1 H        0.925     0.058     2.217     2.328
    28   1 H        0.925     0.081     1.974     2.197
    29   1 H        0.925     0.064     2.147     2.291

Wiberg/Mayer (AO) data.
largest (>0.10) Wiberg bond orders for each atom

     #   Z sym  total        # sym  WBO       # sym  WBO       # sym  WBO
 ---------------------------------------------------------------------------
     1   7 N    3.036 --     2 C    2.890
     2   6 C    3.952 --     1 N    2.890     3 C    1.023
     3   6 C    3.956 --     2 C    1.023     4 N    0.971    16 H    0.935
                            17 H    0.931
     4   7 N    3.643 --     5 C    1.307     9 C    1.111     3 C    0.971
     5   6 C    3.956 --     7 N    1.349     4 N    1.307     6 C    1.052
     6   6 C    3.976 --     5 C    1.052    20 H    0.967    18 H    0.957
                            19 H    0.936
     7   7 N    3.667 --     5 C    1.349     8 C    1.116    14 C    0.966
     8   6 C    3.954 --    13 C    1.345     9 C    1.278     7 N    1.116
     9   6 C    3.951 --    10 C    1.347     8 C    1.278     4 N    1.111
    10   6 C    3.985 --    11 C    1.486     9 C    1.347    21 H    0.962
                            13 C    0.118
    11   6 C    3.982 --    10 C    1.486    12 C    1.384    22 H    0.966
    12   6 C    3.983 --    13 C    1.489    11 C    1.384    23 H    0.966
    13   6 C    3.984 --    12 C    1.489     8 C    1.345    24 H    0.962
                            10 C    0.118
    14   6 C    3.942 --    15 C    1.003     7 N    0.966    25 H    0.965
                            26 H    0.962
    15   6 C    3.983 --    14 C    1.003    27 H    0.985    29 H    0.984
                            28 H    0.977
    16   1 H    0.986 --     3 C    0.935
    17   1 H    0.988 --     3 C    0.931
    18   1 H    0.989 --     6 C    0.957
    19   1 H    0.983 --     6 C    0.936
    20   1 H    0.989 --     6 C    0.967
    21   1 H    0.995 --    10 C    0.962
    22   1 H    0.993 --    11 C    0.966
    23   1 H    0.993 --    12 C    0.966
    24   1 H    0.994 --    13 C    0.962
    25   1 H    0.993 --    14 C    0.965
    26   1 H    0.992 --    14 C    0.962
    27   1 H    0.997 --    15 C    0.985
    28   1 H    0.993 --    15 C    0.977
    29   1 H    0.996 --    15 C    0.984
 ---------------------------------------------------------------------------

molecular dipole:
                 x           y           z       tot (Debye)
 q only:        9.404      -3.533      -3.587
   full:        9.786      -3.465      -3.515      27.858

           -------------------------------------------------
          | TOTAL ENERGY              -41.212135571552 Eh   |
          | GRADIENT NORM               0.000388533309 Eh/α |
          | HOMO-LUMO GAP               3.595185933895 eV   |
           -------------------------------------------------

 * finished run on 2024/12/20 at 02:15:04.538
