   * xtb version 6.7.1 (edcfbbe) compiled by 'conda@3ef47c1a292c' on 2024-11-25

   ID    Z sym.   atoms
    1    6 C      1-6, 8-19
    2    7 N      7
    3    1 H      20-59

          program call               : xtb C0310.xyz --opt --namespace C0310 --charge +1
          :  Hamiltonian                  GFN2-xTB          :
 * total energy  :   -61.4681545 Eh     change       -0.1421085E-09 Eh
 * total energy  :   -61.4766745 Eh     change       -0.8520040E-02 Eh
 * total energy  :   -61.4790284 Eh     change       -0.2353886E-02 Eh
 * total energy  :   -61.4793125 Eh     change       -0.2840806E-03 Eh
 * total energy  :   -61.4795707 Eh     change       -0.2582709E-03 Eh
 * total energy  :   -61.4797576 Eh     change       -0.1868900E-03 Eh
 * total energy  :   -61.4800213 Eh     change       -0.2637067E-03 Eh
 * total energy  :   -61.4803236 Eh     change       -0.3022356E-03 Eh
 * total energy  :   -61.4806307 Eh     change       -0.3070949E-03 Eh
 * total energy  :   -61.4809249 Eh     change       -0.2942640E-03 Eh
 * total energy  :   -61.4866875 Eh     change       -0.3243738E-04 Eh
 * total energy  :   -61.4867032 Eh     change       -0.1565062E-04 Eh
 * total energy  :   -61.4867160 Eh     change       -0.1285876E-04 Eh
 * total energy  :   -61.4867273 Eh     change       -0.1125885E-04 Eh
 * total energy  :   -61.4867405 Eh     change       -0.1318649E-04 Eh
 * total energy  :   -61.4867534 Eh     change       -0.1295134E-04 Eh
 * total energy  :   -61.4867623 Eh     change       -0.8901863E-05 Eh
 * total energy  :   -61.4867683 Eh     change       -0.5997570E-05 Eh
 * total energy  :   -61.4867724 Eh     change       -0.4094823E-05 Eh
   *** GEOMETRY OPTIMIZATION CONVERGED AFTER 69 ITERATIONS ***

 final structure:
================
59
 xtb: 6.7.1 (edcfbbe)
C           -0.22946582429886        1.30618458388855        1.39163591898261
C           -0.40774635257524        0.31415922652048        0.24894321851871
C            0.40367272454899       -0.97008693031973        0.44116910661167
C           -0.18499461008797       -1.90394254484485        1.50616505831936
C           -1.34097725705383       -2.75867552615954        0.97627861066254
C           -0.98565303589766       -4.00452536206459        0.15530539532985
N           -0.39582669708148       -5.19385433220698        0.86159808791552
C           -0.88826481083060       -5.29349765578572        2.27876335847198
C           -2.40180411712703       -5.46842334616768        2.48249175420562
C           -2.81234303734847       -6.88146933042364        2.91641369480656
C           -2.37742590897651       -7.20555620891356        4.34081162629338
C           -0.85322109072350       -6.44439806791237        0.17191810960419
C           -0.48424829519353       -6.62136711689979       -1.29527904918542
C           -1.10884686587687       -7.90781468818734       -1.85234788658445
C           -2.62834653363893       -7.85674210191431       -1.96172621422292
C            1.12030223818447       -5.18012462260117        0.94993408028303
C            1.97190499433915       -4.25395798601893        0.07415319746655
C            2.17885655063052       -4.61658233282018       -1.39610381289208
C            3.21072758671345       -3.68353245222564       -2.02216648737733
H           -0.58437645757738        0.89956222331365        2.33556036206959
H           -0.78966490364189        2.21425475186296        1.18750253047392
H            0.81891548868071        1.57111829338023        1.50516235675607
H           -1.46706428267559        0.07278037791648        0.13793240324214
H           -0.08301982656603        0.79030632117031       -0.67778191721048
H            0.45885527390172       -1.48897715894029       -0.51944132767013
H            1.41991425687205       -0.69231589092922        0.72718257452786
H            0.59908638406865       -2.53208048170023        1.93140498233688
H           -0.56765060091138       -1.29008577657505        2.32153669192147
H           -2.00623704400046       -3.02396049848896        1.79554142244846
H           -1.92780014898355       -2.13286305613535        0.29978084593801
H           -1.91372327014358       -4.34540096258837       -0.30725896974525
H           -0.30523402686506       -3.72769298823714       -0.64648718116445
H           -0.38013617699959       -6.14936867821717        2.72728338578403
H           -0.54942248201186       -4.39676947140712        2.79648700632748
H           -2.72018475600027       -4.78446618276663        3.27161118503486
H           -2.95677125522009       -5.18954773947339        1.58729292287946
H           -3.90004844022082       -6.94617468491139        2.86478830250765
H           -2.40882927834163       -7.63147339428567        2.23413607629577
H           -2.80241270756682       -6.49105273931833        5.04078160694268
H           -2.72387710996597       -8.19688293138763        4.61762272214004
H           -1.29541634901190       -7.18768909624868        4.45003697554978
H           -0.44985987534918       -7.28951188261092        0.73493500258166
H           -1.93846793609146       -6.47641828040951        0.25136473866086
H           -0.84049366892296       -5.78170520874784       -1.89224142434515
H            0.59495510202564       -6.69541854089371       -1.40908354391672
H           -0.69486840093708       -8.06987001317859       -2.84778748219217
H           -0.81324148430987       -8.75656385861980       -1.23376624356906
H           -2.94567321805150       -6.97233775403977       -2.50966074238761
H           -2.98450989653624       -8.73001682879046       -2.50074322445102
H           -3.10946226653667       -7.85738546159951       -0.98656403232688
H            1.36792063079508       -4.91496456304457        1.97921248815109
H            1.45498795612285       -6.20624408851016        0.78971809414735
H            1.63247810561205       -3.22420858008956        0.14494439183100
H            2.95923998850967       -4.28115002939657        0.54437973420031
H            2.54078582817363       -5.64345460000568       -1.47650221257543
H            1.25108910013864       -4.53518523484400       -1.96413549637453
H            4.16710668415773       -3.77132187235387       -1.51370957149197
H            3.35735851182349       -3.93320196222366       -3.06868616604098
H            2.88345289479037       -2.64848468160524       -1.96039703452979

          :  Hamiltonian                  GFN2-xTB          :
         :: total energy             -61.486772408532 Eh    ::
         :: gradient norm              0.000625119599 Eh/a0 ::
         :: HOMO-LUMO gap              7.524797442419 eV    ::
         :: SCC energy               -62.382014481288 Eh    ::
         :: -> dispersion             -0.050006261206 Eh    ::
         :: repulsion energy           0.895242072756 Eh    ::

    * Orbital Energies and Occupations

         #    Occupation            Energy/Eh            Energy/eV
      -------------------------------------------------------------
         1        2.0000           -0.8386634             -22.8212
       ...           ...                  ...                  ...
        46        2.0000           -0.5613365             -15.2747
        47        2.0000           -0.5571320             -15.1603
        48        2.0000           -0.5565782             -15.1453
        49        2.0000           -0.5516580             -15.0114
        50        2.0000           -0.5508792             -14.9902
        51        2.0000           -0.5482714             -14.9192
        52        2.0000           -0.5475258             -14.8989
        53        2.0000           -0.5446522             -14.8207
        54        2.0000           -0.5426374             -14.7659
        55        2.0000           -0.5421778             -14.7534
        56        2.0000           -0.5277290             -14.3602
        57        2.0000           -0.5207867             -14.1713
        58        2.0000           -0.5146294             -14.0038 (HOMO)
        59                         -0.2380982              -6.4790 (LUMO)
        60                         -0.1758503              -4.7851
        61                         -0.1616021              -4.3974
        62                         -0.1551165              -4.2209
        63                         -0.0749201              -2.0387
        64                         -0.0655289              -1.7831
        65                         -0.0625869              -1.7031
        66                         -0.0491477              -1.3374
        67                         -0.0410307              -1.1165
        68                         -0.0319857              -0.8704
        69                         -0.0278896              -0.7589
       ...                                ...                  ...
       116                          0.2310991               6.2885
      -------------------------------------------------------------
                  HL-Gap            0.2765312 Eh            7.5248 eV

     #   Z          covCN         q      C6AA      α(0)
     1   6 C        3.752    -0.108    22.620     6.782
     2   6 C        3.800    -0.057    21.608     6.618
     3   6 C        3.801    -0.063    21.708     6.634
     4   6 C        3.800    -0.067    21.788     6.646
     5   6 C        3.799    -0.076    21.956     6.672
     6   6 C        3.743    -0.034    21.249     6.576
     7   7 N        3.612     0.095    19.588     6.573
     8   6 C        3.763    -0.035    21.250     6.571
     9   6 C        3.799    -0.072    21.879     6.660
    10   6 C        3.799    -0.064    21.722     6.636
    11   6 C        3.752    -0.114    22.739     6.800
    12   6 C        3.763    -0.035    21.235     6.569
    13   6 C        3.800    -0.073    21.894     6.662
    14   6 C        3.802    -0.062    21.685     6.630
    15   6 C        3.751    -0.113    22.722     6.798
    16   6 C        3.748    -0.035    21.269     6.578
    17   6 C        3.802    -0.080    22.018     6.681
    18   6 C        3.799    -0.058    21.628     6.622
    19   6 C        3.754    -0.114    22.731     6.798
    20   1 H        0.925     0.034     2.527     2.486
    21   1 H        0.925     0.046     2.376     2.411
    22   1 H        0.925     0.041     2.431     2.438
    23   1 H        0.924     0.032     2.562     2.503
    24   1 H        0.924     0.040     2.443     2.444
    25   1 H        0.924     0.025     2.654     2.548
    26   1 H        0.924     0.043     2.407     2.426
    27   1 H        0.924     0.028     2.615     2.529
    28   1 H        0.925     0.057     2.237     2.339
    29   1 H        0.925     0.055     2.262     2.352
    30   1 H        0.924     0.072     2.062     2.246
    31   1 H        0.924     0.074     2.044     2.236
    32   1 H        0.925     0.091     1.865     2.136
    33   1 H        0.924     0.081     1.972     2.196
    34   1 H        0.925     0.083     1.952     2.185
    35   1 H        0.924     0.067     2.124     2.279
    36   1 H        0.925     0.051     2.305     2.374
    37   1 H        0.924     0.054     2.268     2.355
    38   1 H        0.924     0.036     2.504     2.474
    39   1 H        0.925     0.049     2.335     2.390
    40   1 H        0.925     0.056     2.250     2.346
    41   1 H        0.925     0.034     2.533     2.489
    42   1 H        0.924     0.072     2.060     2.245
    43   1 H        0.925     0.089     1.891     2.150
    44   1 H        0.925     0.051     2.306     2.375
    45   1 H        0.925     0.056     2.241     2.341
    46   1 H        0.925     0.058     2.227     2.334
    47   1 H        0.924     0.043     2.410     2.428
    48   1 H        0.925     0.043     2.407     2.426
    49   1 H        0.925     0.057     2.230     2.335
    50   1 H        0.925     0.033     2.542     2.493
    51   1 H        0.924     0.074     2.042     2.235
    52   1 H        0.924     0.079     1.987     2.204
    53   1 H        0.925     0.071     2.070     2.250
    54   1 H        0.924     0.070     2.091     2.261
    55   1 H        0.924     0.039     2.462     2.454
    56   1 H        0.924     0.033     2.537     2.491
    57   1 H        0.925     0.048     2.350     2.397
    58   1 H        0.925     0.054     2.269     2.356
    59   1 H        0.925     0.044     2.401     2.423

Wiberg/Mayer (AO) data.
largest (>0.10) Wiberg bond orders for each atom

     #   Z sym  total        # sym  WBO       # sym  WBO       # sym  WBO
 ---------------------------------------------------------------------------
     1   6 C    3.995 --     2 C    1.021    22 H    0.987    21 H    0.986
                            20 H    0.984
     2   6 C    3.996 --     1 C    1.021     3 C    1.006    24 H    0.978
                            23 H    0.975
     3   6 C    3.996 --     2 C    1.006     4 C    1.006    26 H    0.976
                            25 H    0.972
     4   6 C    3.994 --     5 C    1.006     3 C    1.006    27 H    0.972
                            28 H    0.970
     5   6 C    3.985 --     4 C    1.006     6 C    1.006    29 H    0.969
                            30 H    0.960
     6   6 C    3.932 --     5 C    1.006    31 H    0.966    32 H    0.957
                             7 N    0.927
     7   7 N    3.793 --    12 C    0.932     8 C    0.932     6 C    0.927
                            16 C    0.920
     8   6 C    3.934 --     9 C    1.001    34 H    0.966    33 H    0.964
                             7 N    0.932
     9   6 C    3.987 --    10 C    1.004     8 C    1.001    35 H    0.969
                            36 H    0.967
    10   6 C    3.994 --    11 C    1.021     9 C    1.004    37 H    0.975
                            38 H    0.975
    11   6 C    3.993 --    10 C    1.021    39 H    0.986    40 H    0.984
                            41 H    0.984
    12   6 C    3.932 --    13 C    1.008    42 H    0.966    43 H    0.955
                             7 N    0.932
    13   6 C    3.988 --    12 C    1.008    14 C    0.997    44 H    0.972
                            45 H    0.969
    14   6 C    3.992 --    15 C    1.021    13 C    0.997    47 H    0.977
                            46 H    0.975
    15   6 C    3.994 --    14 C    1.021    48 H    0.986    50 H    0.985
                            49 H    0.984
    16   6 C    3.933 --    17 C    1.006    51 H    0.968    52 H    0.967
                             7 N    0.920
    17   6 C    3.982 --    18 C    1.007    16 C    1.006    54 H    0.961
                            53 H    0.959
    18   6 C    3.996 --    19 C    1.016    17 C    1.007    55 H    0.974
                            56 H    0.972
    19   6 C    3.992 --    18 C    1.016    59 H    0.987    57 H    0.986
                            58 H    0.985
    20   1 H    0.999 --     1 C    0.984
    21   1 H    0.998 --     1 C    0.986
    22   1 H    0.998 --     1 C    0.987
    23   1 H    0.999 --     2 C    0.975
    24   1 H    0.998 --     2 C    0.978
    25   1 H    0.999 --     3 C    0.972
    26   1 H    0.998 --     3 C    0.976
    27   1 H    0.999 --     4 C    0.972
    28   1 H    0.997 --     4 C    0.970
    29   1 H    0.997 --     5 C    0.969
    30   1 H    0.994 --     5 C    0.960
    31   1 H    0.995 --     6 C    0.966
    32   1 H    0.992 --     6 C    0.957
    33   1 H    0.993 --     8 C    0.964
    34   1 H    0.993 --     8 C    0.966
    35   1 H    0.995 --     9 C    0.969
    36   1 H    0.997 --     9 C    0.967
    37   1 H    0.997 --    10 C    0.975
    38   1 H    0.999 --    10 C    0.975
    39   1 H    0.998 --    11 C    0.986
    40   1 H    0.997 --    11 C    0.984
    41   1 H    0.999 --    11 C    0.984
    42   1 H    0.994 --    12 C    0.966
    43   1 H    0.992 --    12 C    0.955
    44   1 H    0.997 --    13 C    0.972
    45   1 H    0.997 --    13 C    0.969
    46   1 H    0.996 --    14 C    0.975
    47   1 H    0.998 --    14 C    0.977
    48   1 H    0.998 --    15 C    0.986
    49   1 H    0.997 --    15 C    0.984
    50   1 H    0.999 --    15 C    0.985
    51   1 H    0.994 --    16 C    0.968
    52   1 H    0.993 --    16 C    0.967
    53   1 H    0.995 --    17 C    0.959
    54   1 H    0.995 --    17 C    0.961
    55   1 H    0.998 --    18 C    0.974
    56   1 H    0.999 --    18 C    0.972
    57   1 H    0.998 --    19 C    0.986
    58   1 H    0.997 --    19 C    0.985
    59   1 H    0.998 --    19 C    0.987
 ---------------------------------------------------------------------------

molecular dipole:
                 x           y           z       tot (Debye)
 q only:       -0.846      -9.463       1.378
   full:       -0.825      -9.529       1.448      24.589

           -------------------------------------------------
          | TOTAL ENERGY              -61.486772408532 Eh   |
          | GRADIENT NORM               0.000625119599 Eh/α |
          | HOMO-LUMO GAP               7.524797442419 eV   |
           -------------------------------------------------

 * finished run on 2024/12/20 at 02:14:46.780
