   * xtb version 6.7.1 (edcfbbe) compiled by 'conda@3ef47c1a292c' on 2024-11-25

   ID    Z sym.   atoms
    1    6 C      1-3, 5, 6, 8-11
    2    7 N      4, 7
    3    1 H      12-28

          program call               : xtb C0314.xyz --opt --namespace C0314 --charge +1
          :  Hamiltonian                  GFN2-xTB          :
 * total energy  :   -33.4255708 Eh     change       -0.2592060E-10 Eh
 * total energy  :   -33.4287631 Eh     change       -0.3192282E-02 Eh
 * total energy  :   -33.4295019 Eh     change       -0.7388648E-03 Eh
 * total energy  :   -33.4296944 Eh     change       -0.1924828E-03 Eh
 * total energy  :   -33.4298690 Eh     change       -0.1745615E-03 Eh
 * total energy  :   -33.4299584 Eh     change       -0.8936360E-04 Eh
 * total energy  :   -33.4300578 Eh     change       -0.9941265E-04 Eh
 * total energy  :   -33.4301896 Eh     change       -0.1318280E-03 Eh
 * total energy  :   -33.4303026 Eh     change       -0.1130459E-03 Eh
 * total energy  :   -33.4303805 Eh     change       -0.7785738E-04 Eh
 * total energy  :   -33.4311910 Eh     change       -0.9380484E-04 Eh
 * total energy  :   -33.4312071 Eh     change       -0.1605438E-04 Eh
 * total energy  :   -33.4313068 Eh     change       -0.9975637E-04 Eh
 * total energy  :   -33.4313463 Eh     change       -0.3948196E-04 Eh
 * total energy  :   -33.4313586 Eh     change       -0.1234081E-04 Eh
 * total energy  :   -33.4313716 Eh     change       -0.1294771E-04 Eh
 * total energy  :   -33.4313854 Eh     change       -0.1381506E-04 Eh
 * total energy  :   -33.4313919 Eh     change       -0.6509816E-05 Eh
 * total energy  :   -33.4313944 Eh     change       -0.2456283E-05 Eh
   *** GEOMETRY OPTIMIZATION CONVERGED AFTER 26 ITERATIONS ***

 final structure:
================
28
 xtb: 6.7.1 (edcfbbe)
C           -0.14557955239103       -0.51968022803663       -0.16629890878547
C            0.60168219861195       -1.83416007880167        0.01502051866293
C            1.66755417538817       -1.76192552288346        1.11598017412561
N            1.06969538750892       -1.54675798061915        2.41403049142419
C            0.85561633372155       -0.34040734047694        3.00640994718395
C            0.21338268320039       -0.57486989038571        4.18475559687026
N            0.04663585279216       -1.92125082902888        4.29425854016558
C            0.56496653256062       -2.48745209652983        3.20855213274093
C           -0.64798675134679       -2.59781192908019        5.36507901121209
C           -2.16629017311806       -2.55203475474371        5.15294921128016
C           -2.60519721205049       -3.32471263840311        3.91635448594786
H           -0.70451165968567       -0.24851680229354        0.72722164753098
H           -0.85197183524997       -0.60950276274884       -0.98604956795557
H            0.54438557940176        0.28543824797495       -0.40591490267925
H           -0.10313553350253       -2.63618611629048        0.24307915554209
H            1.10890601389152       -2.09256250367403       -0.91426686320569
H            2.23568848548079       -2.69391947269061        1.14579657587399
H            2.35220450037826       -0.93587811389215        0.91527062243683
H            1.17337415728835        0.58270488169270        2.56662799080141
H           -0.12067333293445        0.11082126305532        4.93632416693599
H            0.58816159516686       -3.54163054995146        3.01131538717684
H           -0.30795950323416       -3.63462694000552        5.39787342636342
H           -0.38745087078857       -2.10893389200150        6.30592353492102
H           -2.63448824303740       -2.98513809044372        6.03640296107591
H           -2.49244378316745       -1.51329667273971        5.07804758258734
H           -2.28897992321333       -4.36329359196689        3.97748914913252
H           -3.68806706600413       -3.30864679178855        3.83861870713818
H           -2.20060805566713       -2.88603880324790        3.00581922549119

          :  Hamiltonian                  GFN2-xTB          :
         :: total energy             -33.431394369249 Eh    ::
         :: gradient norm              0.000220955398 Eh/a0 ::
         :: HOMO-LUMO gap              4.419454336402 eV    ::
         :: SCC energy               -33.943270684387 Eh    ::
         :: -> dispersion             -0.020391899759 Eh    ::
         :: repulsion energy           0.511876315138 Eh    ::

    * Orbital Energies and Occupations

         #    Occupation            Energy/Eh            Energy/eV
      -------------------------------------------------------------
         1        2.0000           -0.8938268             -24.3223
       ...           ...                  ...                  ...
        19        2.0000           -0.6489759             -17.6595
        20        2.0000           -0.6465707             -17.5941
        21        2.0000           -0.6351624             -17.2836
        22        2.0000           -0.6215879             -16.9143
        23        2.0000           -0.6199330             -16.8692
        24        2.0000           -0.6101560             -16.6032
        25        2.0000           -0.5898213             -16.0499
        26        2.0000           -0.5874777             -15.9861
        27        2.0000           -0.5864922             -15.9593
        28        2.0000           -0.5763594             -15.6835
        29        2.0000           -0.5715073             -15.5515
        30        2.0000           -0.5695085             -15.4971
        31        2.0000           -0.5674850             -15.4421 (HOMO)
        32                         -0.4050730             -11.0226 (LUMO)
        33                         -0.3687195             -10.0334
        34                         -0.1825755              -4.9681
        35                         -0.1290071              -3.5105
        36                         -0.0626307              -1.7043
        37                         -0.0577675              -1.5719
        38                         -0.0483315              -1.3152
        39                         -0.0411433              -1.1196
        40                         -0.0276198              -0.7516
        41                         -0.0215175              -0.5855
        42                         -0.0023342              -0.0635
       ...                                ...                  ...
        61                          0.4650194              12.6538
      -------------------------------------------------------------
                  HL-Gap            0.1624120 Eh            4.4195 eV

     #   Z          covCN         q      C6AA      α(0)
     1   6 C        3.752    -0.117    22.796     6.809
     2   6 C        3.801    -0.065    21.744     6.639
     3   6 C        3.742    -0.029    21.158     6.562
     4   7 N        2.868     0.069    20.041     6.649
     5   6 C        3.074    -0.005    28.078     8.688
     6   6 C        3.074    -0.008    28.131     8.696
     7   7 N        2.869     0.071    20.012     6.644
     8   6 C        3.102     0.047    26.822     8.487
     9   6 C        3.742    -0.028    21.151     6.561
    10   6 C        3.801    -0.066    21.765     6.642
    11   6 C        3.752    -0.116    22.783     6.807
    12   1 H        0.925     0.037     2.494     2.470
    13   1 H        0.925     0.067     2.122     2.278
    14   1 H        0.925     0.054     2.273     2.357
    15   1 H        0.924     0.052     2.296     2.369
    16   1 H        0.925     0.076     2.023     2.224
    17   1 H        0.924     0.082     1.956     2.187
    18   1 H        0.924     0.092     1.855     2.130
    19   1 H        0.926     0.108     1.709     2.044
    20   1 H        0.926     0.106     1.729     2.056
    21   1 H        0.926     0.111     1.685     2.030
    22   1 H        0.924     0.086     1.923     2.168
    23   1 H        0.924     0.089     1.889     2.150
    24   1 H        0.925     0.077     2.015     2.220
    25   1 H        0.924     0.058     2.222     2.331
    26   1 H        0.925     0.051     2.304     2.374
    27   1 H        0.925     0.068     2.104     2.268
    28   1 H        0.925     0.033     2.549     2.497

Wiberg/Mayer (AO) data.
largest (>0.10) Wiberg bond orders for each atom

     #   Z sym  total        # sym  WBO       # sym  WBO       # sym  WBO
 ---------------------------------------------------------------------------
     1   6 C    3.991 --     2 C    1.022    12 H    0.986    14 H    0.985
                            13 H    0.982
     2   6 C    3.985 --     1 C    1.022     3 C    0.982    15 H    0.975
                            16 H    0.968
     3   6 C    3.937 --     2 C    0.982     4 N    0.969    17 H    0.965
                            18 H    0.964
     4   7 N    3.717 --     8 C    1.359     5 C    1.230     3 C    0.969
     5   6 C    3.950 --     6 C    1.587     4 N    1.230    19 H    0.961
     6   6 C    3.950 --     5 C    1.587     7 N    1.230    20 H    0.962
     7   7 N    3.719 --     8 C    1.362     6 C    1.230     9 C    0.969
     8   6 C    3.948 --     7 N    1.362     4 N    1.359    21 H    0.954
     9   6 C    3.937 --    10 C    0.982     7 N    0.969    22 H    0.966
                            23 H    0.963
    10   6 C    3.984 --    11 C    1.022     9 C    0.982    25 H    0.975
                            24 H    0.968
    11   6 C    3.992 --    10 C    1.022    28 H    0.986    26 H    0.986
                            27 H    0.981
    12   1 H    0.999 --     1 C    0.986
    13   1 H    0.995 --     1 C    0.982
    14   1 H    0.997 --     1 C    0.985
    15   1 H    0.997 --     2 C    0.975
    16   1 H    0.993 --     2 C    0.968
    17   1 H    0.993 --     3 C    0.965
    18   1 H    0.991 --     3 C    0.964
    19   1 H    0.988 --     5 C    0.961
    20   1 H    0.989 --     6 C    0.962
    21   1 H    0.988 --     8 C    0.954
    22   1 H    0.993 --     9 C    0.966
    23   1 H    0.992 --     9 C    0.963
    24   1 H    0.993 --    10 C    0.968
    25   1 H    0.997 --    10 C    0.975
    26   1 H    0.997 --    11 C    0.986
    27   1 H    0.995 --    11 C    0.981
    28   1 H    0.999 --    11 C    0.986
 ---------------------------------------------------------------------------

molecular dipole:
                 x           y           z       tot (Debye)
 q only:        0.472      -3.423       5.963
   full:        0.587      -3.482       6.028      17.756

           -------------------------------------------------
          | TOTAL ENERGY              -33.431394369249 Eh   |
          | GRADIENT NORM               0.000220955398 Eh/α |
          | HOMO-LUMO GAP               4.419454336402 eV   |
           -------------------------------------------------

 * finished run on 2024/12/20 at 02:14:50.538
