   * xtb version 6.7.1 (edcfbbe) compiled by 'conda@3ef47c1a292c' on 2024-11-25

   ID    Z sym.   atoms
    1    7 N      1-5, 7
    2    6 C      6
    3    1 H      8-12

          program call               : xtb C0315.xyz --opt --namespace C0315 --charge +1
          :  Hamiltonian                  GFN2-xTB          :
 * total energy  :   -21.7307719 Eh     change       -0.1403144E-09 Eh
 * total energy  :   -21.7373812 Eh     change       -0.6609361E-02 Eh
 * total energy  :   -21.7391250 Eh     change       -0.1743801E-02 Eh
 * total energy  :   -21.7395126 Eh     change       -0.3876126E-03 Eh
 * total energy  :   -21.7399756 Eh     change       -0.4629563E-03 Eh
 * total energy  :   -21.7402690 Eh     change       -0.2934176E-03 Eh
 * total energy  :   -21.7404585 Eh     change       -0.1894640E-03 Eh
 * total energy  :   -21.7406828 Eh     change       -0.2242786E-03 Eh
 * total energy  :   -21.7408554 Eh     change       -0.1726889E-03 Eh
 * total energy  :   -21.7409761 Eh     change       -0.1206108E-03 Eh
 * total energy  :   -21.7415662 Eh     change       -0.8424640E-05 Eh
 * total energy  :   -21.7415732 Eh     change       -0.6942661E-05 Eh
 * total energy  :   -21.7415821 Eh     change       -0.8932473E-05 Eh
 * total energy  :   -21.7415915 Eh     change       -0.9406389E-05 Eh
 * total energy  :   -21.7415994 Eh     change       -0.7937760E-05 Eh
 * total energy  :   -21.7416054 Eh     change       -0.6018881E-05 Eh
 * total energy  :   -21.7415927 Eh     change        0.1270280E-04 Eh
 * total energy  :   -21.7416096 Eh     change       -0.1682440E-04 Eh
 * total energy  :   -21.7416119 Eh     change       -0.2359637E-05 Eh
   *** GEOMETRY OPTIMIZATION CONVERGED AFTER 32 ITERATIONS ***

 final structure:
================
12
 xtb: 6.7.1 (edcfbbe)
N            1.14545576597849        0.08604771360077        0.05943419773903
N            0.36962831136093        0.69974197091559        1.00279885870361
N           -0.73611686405813        0.20540532871541        1.60085840142805
N           -1.18237297102827        1.03801190413750        2.38991365008537
N           -0.40293376471666        2.13968749024866        2.37265432624730
C            0.59799138048911        1.95065614204170        1.48973364680814
N            1.58905596672883        2.73543714914080        1.13459300416434
H            0.59030505405306       -0.21054017485959       -0.74172463143685
H            1.62478815518685       -0.73057126937350        0.43664921930573
H           -0.61600439308620        2.93441176250663        2.96068662000003
H            2.23812993576115        2.40499888772543        0.43282000345129
H            1.71841342333081        3.65524309520059        1.52553270350396

          :  Hamiltonian                  GFN2-xTB          :
         :: total energy             -21.741611927704 Eh    ::
         :: gradient norm              0.000375335667 Eh/a0 ::
         :: HOMO-LUMO gap              3.882756541421 eV    ::
         :: SCC energy               -21.972630568552 Eh    ::
         :: -> dispersion             -0.007083140028 Eh    ::
         :: repulsion energy           0.231018640848 Eh    ::

    * Orbital Energies and Occupations

         #    Occupation            Energy/Eh            Energy/eV
      -------------------------------------------------------------
         1        2.0000           -0.9692925             -26.3758
       ...           ...                  ...                  ...
         7        2.0000           -0.8192321             -22.2924
         8        2.0000           -0.8164643             -22.2171
         9        2.0000           -0.7822059             -21.2849
        10        2.0000           -0.7696069             -20.9421
        11        2.0000           -0.7549867             -20.5442
        12        2.0000           -0.7426070             -20.2074
        13        2.0000           -0.7333446             -19.9553
        14        2.0000           -0.7176416             -19.5280
        15        2.0000           -0.6683652             -18.1871
        16        2.0000           -0.6403037             -17.4236
        17        2.0000           -0.6274555             -17.0739
        18        2.0000           -0.6173328             -16.7985
        19        2.0000           -0.5943012             -16.1718 (HOMO)
        20                         -0.4516125             -12.2890 (LUMO)
        21                         -0.4280000             -11.6465
        22                         -0.2724004              -7.4124
        23                         -0.2068353              -5.6283
        24                         -0.1627406              -4.4284
        25                         -0.1489637              -4.0535
        26                         -0.0919251              -2.5014
        27                         -0.0748588              -2.0370
        28                          0.0133496               0.3633
        29                          0.0369893               1.0065
        30                          0.0530641               1.4439
       ...                                ...                  ...
        33                          0.3609979               9.8233
      -------------------------------------------------------------
                  HL-Gap            0.1426887 Eh            3.8828 eV

     #   Z          covCN         q      C6AA      α(0)
     1   7 N        2.705    -0.265    26.871     7.699
     2   7 N        3.072     0.148    18.743     6.430
     3   7 N        2.149    -0.041    22.525     7.042
     4   7 N        2.153     0.001    21.710     6.914
     5   7 N        2.951    -0.017    21.571     6.898
     6   6 C        2.893     0.194    23.869     8.010
     7   7 N        2.636    -0.205    25.456     7.493
     8   1 H        0.860     0.218     1.017     1.580
     9   1 H        0.860     0.215     1.031     1.591
    10   1 H        0.860     0.244     0.908     1.492
    11   1 H        0.860     0.259     0.848     1.442
    12   1 H        0.860     0.248     0.892     1.480

Wiberg/Mayer (AO) data.
largest (>0.10) Wiberg bond orders for each atom

     #   Z sym  total        # sym  WBO       # sym  WBO       # sym  WBO
 ---------------------------------------------------------------------------
     1   7 N    3.003 --     2 N    1.046     8 H    0.926     9 H    0.925
     2   7 N    3.681 --     6 C    1.221     3 N    1.143     1 N    1.046
                             4 N    0.115
     3   7 N    3.070 --     4 N    1.685     2 N    1.143     5 N    0.112
     4   7 N    3.068 --     3 N    1.685     5 N    1.165     2 N    0.115
     5   7 N    3.612 --     6 C    1.261     4 N    1.165    10 H    0.912
                             3 N    0.112     7 N    0.106
     6   6 C    3.976 --     7 N    1.355     5 N    1.261     2 N    1.221
     7   7 N    3.439 --     6 C    1.355    12 H    0.919    11 H    0.909
                             5 N    0.106
     8   1 H    0.952 --     1 N    0.926
     9   1 H    0.954 --     1 N    0.925
    10   1 H    0.941 --     5 N    0.912
    11   1 H    0.933 --     7 N    0.909
    12   1 H    0.939 --     7 N    0.919
 ---------------------------------------------------------------------------

molecular dipole:
                 x           y           z       tot (Debye)
 q only:        1.723       3.587       2.326
   full:        1.958       3.830       2.310      12.409

           -------------------------------------------------
          | TOTAL ENERGY              -21.741611927704 Eh   |
          | GRADIENT NORM               0.000375335667 Eh/α |
          | HOMO-LUMO GAP               3.882756541421 eV   |
           -------------------------------------------------

 * finished run on 2024/12/20 at 02:14:50.695
