   * xtb version 6.7.1 (edcfbbe) compiled by 'conda@3ef47c1a292c' on 2024-11-25

   ID    Z sym.   atoms
    1    6 C      1, 2, 4, 5, 7-11
    2    8 O      3
    3    7 N      6
    4    1 H      12-33

          program call               : xtb C0312.xyz --opt --namespace C0312 --charge +1
          :  Hamiltonian                  GFN2-xTB          :
 * total energy  :   -37.0486183 Eh     change       -0.4141043E-10 Eh
 * total energy  :   -37.0557612 Eh     change       -0.7142905E-02 Eh
 * total energy  :   -37.0575162 Eh     change       -0.1754973E-02 Eh
 * total energy  :   -37.0576779 Eh     change       -0.1617481E-03 Eh
 * total energy  :   -37.0578489 Eh     change       -0.1709681E-03 Eh
 * total energy  :   -37.0579266 Eh     change       -0.7768639E-04 Eh
 * total energy  :   -37.0580097 Eh     change       -0.8311996E-04 Eh
 * total energy  :   -37.0580732 Eh     change       -0.6347546E-04 Eh
 * total energy  :   -37.0581167 Eh     change       -0.4354377E-04 Eh
 * total energy  :   -37.0581636 Eh     change       -0.4689462E-04 Eh
 * total energy  :   -37.0582569 Eh     change       -0.1613033E-04 Eh
 * total energy  :   -37.0582706 Eh     change       -0.1370721E-04 Eh
 * total energy  :   -37.0582831 Eh     change       -0.1253680E-04 Eh
 * total energy  :   -37.0582958 Eh     change       -0.1268270E-04 Eh
 * total energy  :   -37.0583101 Eh     change       -0.1428414E-04 Eh
 * total energy  :   -37.0583257 Eh     change       -0.1562313E-04 Eh
 * total energy  :   -37.0583389 Eh     change       -0.1320834E-04 Eh
 * total energy  :   -37.0583460 Eh     change       -0.7073037E-05 Eh
 * total energy  :   -37.0583478 Eh     change       -0.1875389E-05 Eh
   *** GEOMETRY OPTIMIZATION CONVERGED AFTER 22 ITERATIONS ***

 final structure:
================
33
 xtb: 6.7.1 (edcfbbe)
C           -0.40038067786136        0.30514375819033       -0.88608304169067
C           -0.00758935028091        1.76227192558954       -0.66041068832533
O            1.20224104463473        2.19658184984050       -1.25985012252980
C            2.48250820269263        1.92308665354413       -0.74637244917119
C            2.73264517118078        2.65443967937182        0.62201532064826
N            2.83684141029366        1.97104996396010        1.95669662126821
C            4.02593984662840        1.10033586955799        2.04357774653940
C            2.99236483257578        3.04139756685731        2.96735531620083
C            1.63985325064543        1.18611278969424        2.30156226439822
C            2.95886264037339        0.46925004155396       -0.89503558280431
C            2.85820975768799        0.03351902323284       -2.35556112279681
H           -0.37317594830159        0.07182551764253       -1.94601767424608
H           -1.41814709060552        0.16319760225880       -0.53287493435467
H            0.24011928049862       -0.39798120642236       -0.36029773625698
H           -0.75252497383279        2.39475297149724       -1.15143426808968
H           -0.02614722893407        2.00308495117315        0.40934972973373
H            3.09609297123296        2.49761954948614       -1.45578820701275
H            3.66435824592614        3.21199039663954        0.51599971485877
H            1.92312671123261        3.38525709282533        0.69659238278177
H            4.89928774158956        1.61015828847183        1.64186802420177
H            4.22107999476860        0.84866295218000        3.08521579588737
H            3.87029646614488        0.17715149239610        1.49413794097408
H            2.15918864099782        3.74031804079252        2.91950167145313
H            3.02215483814141        2.60887098507518        3.96619315521505
H            3.91656032490080        3.59129419415784        2.79901550128985
H            0.77851150985267        1.84157025092573        2.41790638128551
H            1.42660020795060        0.45344831017332        1.52783041060729
H            1.80033405349096        0.66187728487505        3.24277024211013
H            4.00802361337516        0.41791835856589       -0.60209850835339
H            2.38097509465493       -0.22054125430661       -0.27974376051695
H            3.53318925693468        0.62018866700549       -2.97250623675508
H            3.12484373755782       -1.01502965392694       -2.45137729454489
H            1.84995642385053        0.17421608712431       -2.73032659200476

          :  Hamiltonian                  GFN2-xTB          :
         :: total energy             -37.058347849604 Eh    ::
         :: gradient norm              0.000207570863 Eh/a0 ::
         :: HOMO-LUMO gap              7.608135208203 eV    ::
         :: SCC energy               -37.532425317368 Eh    ::
         :: -> dispersion             -0.024637390403 Eh    ::
         :: repulsion energy           0.474077467764 Eh    ::

    * Orbital Energies and Occupations

         #    Occupation            Energy/Eh            Energy/eV
      -------------------------------------------------------------
         1        2.0000           -0.8735147             -23.7695
       ...           ...                  ...                  ...
        22        2.0000           -0.6492003             -17.6656
        23        2.0000           -0.6470781             -17.6079
        24        2.0000           -0.6362256             -17.3126
        25        2.0000           -0.6272837             -17.0693
        26        2.0000           -0.6128011             -16.6752
        27        2.0000           -0.5996064             -16.3161
        28        2.0000           -0.5885916             -16.0164
        29        2.0000           -0.5767455             -15.6940
        30        2.0000           -0.5670626             -15.4306
        31        2.0000           -0.5594302             -15.2229
        32        2.0000           -0.5545904             -15.0912
        33        2.0000           -0.5425209             -14.7627
        34        2.0000           -0.5259939             -14.3130 (HOMO)
        35                         -0.2464000              -6.7049 (LUMO)
        36                         -0.1766842              -4.8078
        37                         -0.1645443              -4.4775
        38                         -0.1506245              -4.0987
        39                         -0.1261599              -3.4330
        40                         -0.1131632              -3.0793
        41                         -0.0762016              -2.0736
        42                         -0.0453109              -1.2330
        43                         -0.0261564              -0.7118
        44                         -0.0186282              -0.5069
        45                         -0.0133856              -0.3642
       ...                                ...                  ...
        66                          0.2089254               5.6851
      -------------------------------------------------------------
                  HL-Gap            0.2795938 Eh            7.6081 eV

     #   Z          covCN         q      C6AA      α(0)
     1   6 C        3.750    -0.121    22.882     6.822
     2   6 C        3.676     0.073    19.575     6.339
     3   8 O        1.700    -0.315    19.252     5.924
     4   6 C        3.725     0.101    19.015     6.227
     5   6 C        3.752    -0.061    21.736     6.649
     6   7 N        3.621     0.144    18.794     6.439
     7   6 C        3.723    -0.101    22.541     6.780
     8   6 C        3.737    -0.099    22.471     6.765
     9   6 C        3.720    -0.092    22.378     6.756
    10   6 C        3.798    -0.069    21.820     6.651
    11   6 C        3.753    -0.114    22.735     6.799
    12   1 H        0.925     0.066     2.134     2.284
    13   1 H        0.925     0.055     2.258     2.350
    14   1 H        0.925     0.036     2.503     2.474
    15   1 H        0.924     0.070     2.081     2.256
    16   1 H        0.924     0.012     2.852     2.641
    17   1 H        0.923     0.084     1.940     2.178
    18   1 H        0.924     0.082     1.959     2.189
    19   1 H        0.924     0.096     1.818     2.109
    20   1 H        0.925     0.099     1.799     2.097
    21   1 H        0.925     0.100     1.787     2.091
    22   1 H        0.925     0.107     1.725     2.054
    23   1 H        0.925     0.099     1.790     2.092
    24   1 H        0.925     0.102     1.770     2.081
    25   1 H        0.925     0.101     1.776     2.084
    26   1 H        0.925     0.097     1.817     2.108
    27   1 H        0.925     0.104     1.745     2.066
    28   1 H        0.925     0.097     1.815     2.107
    29   1 H        0.924     0.041     2.438     2.442
    30   1 H        0.925     0.035     2.518     2.481
    31   1 H        0.925     0.051     2.305     2.374
    32   1 H        0.925     0.055     2.259     2.351
    33   1 H        0.925     0.064     2.150     2.293

Wiberg/Mayer (AO) data.
largest (>0.10) Wiberg bond orders for each atom

     #   Z sym  total        # sym  WBO       # sym  WBO       # sym  WBO
 ---------------------------------------------------------------------------
     1   6 C    3.992 --     2 C    1.010    13 H    0.982    12 H    0.982
                            14 H    0.980
     2   6 C    3.945 --     1 C    1.010     3 O    0.968    15 H    0.966
                            16 H    0.963
     3   8 O    2.105 --     4 C    1.000     2 C    0.968
     4   6 C    3.948 --     3 O    1.000    10 C    0.981     5 C    0.957
                            17 H    0.947
     5   6 C    3.918 --    18 H    0.971    19 H    0.964     4 C    0.957
                             6 N    0.921
     6   7 N    3.816 --     9 C    0.959     7 C    0.957     8 C    0.955
                             5 C    0.921
     7   6 C    3.924 --    20 H    0.975    21 H    0.974    22 H    0.968
                             6 N    0.957
     8   6 C    3.926 --    25 H    0.975    23 H    0.975    24 H    0.973
                             6 N    0.955
     9   6 C    3.927 --    28 H    0.974    26 H    0.971    27 H    0.966
                             6 N    0.959
    10   6 C    3.995 --    11 C    1.014     4 C    0.981    29 H    0.972
                            30 H    0.966
    11   6 C    3.988 --    10 C    1.014    31 H    0.986    32 H    0.984
                            33 H    0.982
    12   1 H    0.996 --     1 C    0.982
    13   1 H    0.997 --     1 C    0.982
    14   1 H    0.999 --     1 C    0.980
    15   1 H    0.995 --     2 C    0.966
    16   1 H    1.000 --     2 C    0.963
    17   1 H    0.993 --     4 C    0.947
    18   1 H    0.993 --     5 C    0.971
    19   1 H    0.991 --     5 C    0.964
    20   1 H    0.990 --     7 C    0.975
    21   1 H    0.990 --     7 C    0.974
    22   1 H    0.989 --     7 C    0.968
    23   1 H    0.990 --     8 C    0.975
    24   1 H    0.989 --     8 C    0.973
    25   1 H    0.990 --     8 C    0.975
    26   1 H    0.991 --     9 C    0.971
    27   1 H    0.989 --     9 C    0.966
    28   1 H    0.991 --     9 C    0.974
    29   1 H    0.998 --    10 C    0.972
    30   1 H    0.999 --    10 C    0.966
    31   1 H    0.997 --    11 C    0.986
    32   1 H    0.997 --    11 C    0.984
    33   1 H    0.996 --    11 C    0.982
 ---------------------------------------------------------------------------

molecular dipole:
                 x           y           z       tot (Debye)
 q only:        5.159       3.213       3.399
   full:        5.187       3.219       3.651      18.079

           -------------------------------------------------
          | TOTAL ENERGY              -37.058347849604 Eh   |
          | GRADIENT NORM               0.000207570863 Eh/α |
          | HOMO-LUMO GAP               7.608135208203 eV   |
           -------------------------------------------------

 * finished run on 2024/12/20 at 02:14:48.364
