   * xtb version 6.7.1 (edcfbbe) compiled by 'conda@3ef47c1a292c' on 2024-11-25

   ID    Z sym.   atoms
    1    6 C      1-4, 7-11, 13, 15-17, 19-24
    2    8 O      5, 6, 18, 26, 27
    3    7 N      12, 14, 25
    4    1 H      28-49

          program call               : xtb C0316.xyz --opt --namespace C0316 --charge +1
          :  Hamiltonian                  GFN2-xTB          :
 * total energy  :   -80.5232235 Eh     change       -0.1746258E-08 Eh
 * total energy  :   -80.5352685 Eh     change       -0.1204501E-01 Eh
 * total energy  :   -80.5375425 Eh     change       -0.2273985E-02 Eh
 * total energy  :   -80.5378006 Eh     change       -0.2581245E-03 Eh
 * total energy  :   -80.5385168 Eh     change       -0.7161722E-03 Eh
 * total energy  :   -80.5388844 Eh     change       -0.3676729E-03 Eh
 * total energy  :   -80.5393260 Eh     change       -0.4415977E-03 Eh
 * total energy  :   -80.5398291 Eh     change       -0.5030545E-03 Eh
 * total energy  :   -80.5403949 Eh     change       -0.5658542E-03 Eh
 * total energy  :   -80.5408865 Eh     change       -0.4915105E-03 Eh
 * total energy  :   -80.5551690 Eh     change       -0.2430913E-04 Eh
 * total energy  :   -80.5551796 Eh     change       -0.1054381E-04 Eh
 * total energy  :   -80.5551862 Eh     change       -0.6570463E-05 Eh
 * total energy  :   -80.5551961 Eh     change       -0.9975138E-05 Eh
 * total energy  :   -80.5552058 Eh     change       -0.9636818E-05 Eh
 * total energy  :   -80.5552161 Eh     change       -0.1033496E-04 Eh
 * total energy  :   -80.5552269 Eh     change       -0.1084101E-04 Eh
 * total energy  :   -80.5552317 Eh     change       -0.4735519E-05 Eh
 * total energy  :   -80.5552352 Eh     change       -0.3498834E-05 Eh
   *** GEOMETRY OPTIMIZATION CONVERGED AFTER 108 ITERATIONS ***

 final structure:
================
49
 xtb: 6.7.1 (edcfbbe)
C            3.38589279749967        0.13950444676400       -0.10066838885796
C            2.28232146652670        1.07986561546398        0.37095790876889
C            1.95241595895882        2.12380489535472       -0.69563188697070
C            2.99356548215328        3.23480298895365       -0.82387690568741
O            4.15177204826464        3.20861762295966       -0.55559534537870
O            2.37443410105419        4.36306890831563       -1.26444910395803
C            0.99541559324725        4.10411223881843       -1.47672317101148
C            0.66980749229820        2.95264311068687       -0.52022610016305
C            0.54251549072249        3.43425326946487        0.94331500947315
C           -0.35796780035217        4.60368487220345        1.10648523384841
C           -1.72245240883876        4.66705553646866        1.14258510006217
N           -2.07771721705609        5.97537717087459        1.29504383265108
C           -0.95990204044867        6.69590123652769        1.37194555674549
N            0.09347396279057        5.89379022780302        1.24887031172143
C            1.47038804050421        6.31466398862011        1.29889542054990
C           -3.39336354314052        6.47890338870743        1.56704576325503
C           -3.40750839796784        7.06268665735479        3.00565949845769
O           -2.35708257940290        7.21637042878542        3.57789400336571
C           -4.71706883511583        7.39794999628242        3.58091905973821
C           -4.73836287926867        7.77583680687576        4.92965446289508
C           -5.92768924829267        8.10371121405936        5.54735324918861
C           -7.10105052523770        8.05702138770279        4.80753687497299
C           -7.10152916261482        7.69621515574752        3.46616836250250
C           -5.91070341793602        7.36489173914943        2.85170506443574
N           -8.36752619172899        8.39576092152435        5.45133463269449
O           -8.32217528586945        8.70094804179286        6.61639298024712
O           -9.35926624385250        8.34091439672091        4.76624271310248
H            3.07490530735883       -0.40829367295148       -0.98680264459388
H            3.62140849455773       -0.57838144736959        0.67952630095580
H            4.28436285383453        0.70263774539252       -0.33354425658923
H            1.38033748907490        0.50341907792348        0.58873972694137
H            2.60810793488895        1.56947125828772        1.28949710651123
H            1.91163594162418        1.62050918253809       -1.66962486892111
H            0.83894031443891        3.79832488603899       -2.51761852710858
H            0.44168506114459        5.02728732302253       -1.30103423933458
H           -0.23248010735173        2.42243995703474       -0.82340140534658
H            0.16440962318892        2.60681280380890        1.54458646135968
H            1.53362391254517        3.69630665690739        1.31425552641940
H           -2.44381325529725        3.87913708640652        1.07171827455146
H           -0.91451317931933        7.75891315844798        1.50418308156862
H            1.51445402820160        7.40088584802828        1.32120312059407
H            1.94867156623909        5.92874730340682        2.20053375737789
H            2.02052474053015        5.95382620731672        0.42809633264961
H           -3.64910501766686        7.28273175979058        0.87006560347612
H           -4.11580100706423        5.66823854997158        1.47046565900436
H           -3.80767844176492        7.80189225047392        5.47525503980207
H           -5.96571391620167        8.39461919588723        6.58620131103207
H           -8.03699885160729        7.68122343098668        2.92707799770031
H           -5.92264014823844        7.09735517493709        1.80764650537790

          :  Hamiltonian                  GFN2-xTB          :
         :: total energy             -80.555235184016 Eh    ::
         :: gradient norm              0.000873014258 Eh/a0 ::
         :: HOMO-LUMO gap              1.769445592238 eV    ::
         :: SCC energy               -81.572555290669 Eh    ::
         :: -> dispersion             -0.049770710325 Eh    ::
         :: repulsion energy           1.017320106653 Eh    ::

    * Orbital Energies and Occupations

         #    Occupation            Energy/Eh            Energy/eV
      -------------------------------------------------------------
         1        2.0000           -0.8928269             -24.2951
       ...           ...                  ...                  ...
        59        2.0000           -0.5675591             -15.4441
        60        2.0000           -0.5648397             -15.3701
        61        2.0000           -0.5614644             -15.2782
        62        2.0000           -0.5605005             -15.2520
        63        2.0000           -0.5551901             -15.1075
        64        2.0000           -0.5536144             -15.0646
        65        2.0000           -0.5533633             -15.0578
        66        2.0000           -0.5456776             -14.8486
        67        2.0000           -0.5411538             -14.7255
        68        2.0000           -0.5340671             -14.5327
        69        2.0000           -0.5298963             -14.4192
        70        2.0000           -0.5294497             -14.4071
        71        2.0000           -0.5067391             -13.7891 (HOMO)
        72                         -0.4417132             -12.0196 (LUMO)
        73                         -0.4030146             -10.9666
        74                         -0.3955654             -10.7639
        75                         -0.3703864             -10.0787
        76                         -0.3688051             -10.0357
        77                         -0.3339186              -9.0864
        78                         -0.3252148              -8.8495
        79                         -0.2276794              -6.1955
        80                         -0.1840001              -5.0069
        81                         -0.1447011              -3.9375
        82                         -0.1204469              -3.2775
       ...                                ...                  ...
       130                          0.5874134              15.9843
      -------------------------------------------------------------
                  HL-Gap            0.0650259 Eh            1.7694 eV

     #   Z          covCN         q      C6AA      α(0)
     1   6 C        3.753    -0.116    22.777     6.806
     2   6 C        3.800    -0.056    21.574     6.613
     3   6 C        3.892    -0.057    21.549     6.599
     4   6 C        2.784     0.354    21.002     7.506
     5   8 O        0.856    -0.342    20.553     6.078
     6   8 O        1.706    -0.273    18.527     5.811
     7   6 C        3.782     0.065    19.509     6.292
     8   6 C        3.878    -0.031    21.074     6.527
     9   6 C        3.806    -0.079    21.997     6.677
    10   6 C        3.094     0.045    26.872     8.496
    11   6 C        3.070    -0.027    28.603     8.769
    12   7 N        2.860     0.064    20.123     6.662
    13   6 C        3.079     0.055    26.684     8.469
    14   7 N        2.867     0.060    20.196     6.675
    15   6 C        3.692    -0.086    22.330     6.762
    16   6 C        3.743    -0.050    21.553     6.623
    17   6 C        2.822     0.231    23.166     7.886
    18   8 O        0.857    -0.336    20.436     6.061
    19   6 C        2.970    -0.008    28.207     8.712
    20   6 C        2.928    -0.006    28.172     8.704
    21   6 C        2.914    -0.013    28.333     8.729
    22   6 C        2.917     0.021    27.537     8.605
    23   6 C        2.916    -0.015    28.389     8.737
    24   6 C        2.920    -0.023    28.590     8.768
    25   7 N        2.758     0.556    13.412     5.439
    26   8 O        0.930    -0.352    20.717     6.104
    27   8 O        0.929    -0.357    20.803     6.117
    28   1 H        0.925     0.044     2.399     2.422
    29   1 H        0.925     0.054     2.268     2.355
    30   1 H        0.925     0.065     2.138     2.286
    31   1 H        0.924     0.044     2.401     2.423
    32   1 H        0.924     0.044     2.390     2.418
    33   1 H        0.924     0.079     1.989     2.205
    34   1 H        0.924     0.063     2.167     2.302
    35   1 H        0.924     0.048     2.350     2.397
    36   1 H        0.925     0.057     2.238     2.339
    37   1 H        0.924     0.088     1.903     2.157
    38   1 H        0.924     0.082     1.958     2.188
    39   1 H        0.926     0.096     1.818     2.109
    40   1 H        0.926     0.118     1.628     1.995
    41   1 H        0.925     0.097     1.814     2.106
    42   1 H        0.924     0.104     1.753     2.071
    43   1 H        0.924     0.120     1.615     1.987
    44   1 H        0.924     0.105     1.742     2.064
    45   1 H        0.925     0.105     1.744     2.065
    46   1 H        0.926     0.092     1.858     2.132
    47   1 H        0.926     0.107     1.719     2.050
    48   1 H        0.926     0.103     1.754     2.071
    49   1 H        0.926     0.061     2.193     2.316

Wiberg/Mayer (AO) data.
largest (>0.10) Wiberg bond orders for each atom

     #   Z sym  total        # sym  WBO       # sym  WBO       # sym  WBO
 ---------------------------------------------------------------------------
     1   6 C    3.990 --     2 C    1.017    28 H    0.987    29 H    0.985
                            30 H    0.984
     2   6 C    3.991 --     1 C    1.017     3 C    0.991    32 H    0.976
                            31 H    0.975
     3   6 C    3.987 --     2 C    0.991     8 C    0.979     4 C    0.948
                            33 H    0.935
     4   6 C    3.912 --     5 O    1.826     6 O    1.074     3 C    0.948
     5   8 O    2.113 --     4 C    1.826     6 O    0.159
     6   8 O    2.278 --     4 C    1.074     7 C    0.963     5 O    0.159
     7   6 C    3.940 --     8 C    0.989    35 H    0.969    34 H    0.966
                             6 O    0.963
     8   6 C    3.991 --     7 C    0.989     3 C    0.979    36 H    0.969
                             9 C    0.968
     9   6 C    3.984 --    10 C    1.028     8 C    0.968    38 H    0.961
                            37 H    0.957
    10   6 C    3.952 --    11 C    1.556    14 N    1.188     9 C    1.028
    11   6 C    3.939 --    10 C    1.556    12 N    1.204    39 H    0.963
    12   7 N    3.702 --    13 C    1.343    11 C    1.204    16 C    0.995
    13   6 C    3.944 --    14 N    1.362    12 N    1.343    40 H    0.952
    14   7 N    3.706 --    13 C    1.362    10 C    1.188    15 C    0.988
    15   6 C    3.929 --    14 N    0.988    41 H    0.975    42 H    0.959
                            43 H    0.955
    16   6 C    3.950 --    12 N    0.995    45 H    0.955    44 H    0.940
                            17 C    0.930
    17   6 C    3.928 --    18 O    1.835    19 C    1.055    16 C    0.930
    18   8 O    2.110 --    17 C    1.835
    19   6 C    3.985 --    24 C    1.363    20 C    1.361    17 C    1.055
    20   6 C    3.980 --    21 C    1.456    19 C    1.361    46 H    0.961
                            23 C    0.103
    21   6 C    3.979 --    20 C    1.456    22 C    1.394    47 H    0.954
                            24 C    0.104
    22   6 C    3.972 --    21 C    1.394    23 C    1.386    25 N    0.935
    23   6 C    3.981 --    24 C    1.466    22 C    1.386    48 H    0.956
                            20 C    0.103
    24   6 C    3.990 --    23 C    1.466    19 C    1.363    49 H    0.965
                            21 C    0.104
    25   7 N    3.917 --    26 O    1.475    27 O    1.470    22 C    0.935
    26   8 O    1.968 --    25 N    1.475    27 O    0.387
    27   8 O    1.963 --    25 N    1.470    26 O    0.387
    28   1 H    0.998 --     1 C    0.987
    29   1 H    0.997 --     1 C    0.985
    30   1 H    0.996 --     1 C    0.984
    31   1 H    0.998 --     2 C    0.975
    32   1 H    0.998 --     2 C    0.976
    33   1 H    0.992 --     3 C    0.935
    34   1 H    0.996 --     7 C    0.966
    35   1 H    0.997 --     7 C    0.969
    36   1 H    0.997 --     8 C    0.969
    37   1 H    0.992 --     9 C    0.957
    38   1 H    0.993 --     9 C    0.961
    39   1 H    0.990 --    11 C    0.963
    40   1 H    0.986 --    13 C    0.952
    41   1 H    0.990 --    15 C    0.975
    42   1 H    0.989 --    15 C    0.959
    43   1 H    0.985 --    15 C    0.955
    44   1 H    0.988 --    16 C    0.940
    45   1 H    0.989 --    16 C    0.955
    46   1 H    0.991 --    20 C    0.961
    47   1 H    0.988 --    21 C    0.954
    48   1 H    0.989 --    23 C    0.956
    49   1 H    0.996 --    24 C    0.965
 ---------------------------------------------------------------------------

molecular dipole:
                 x           y           z       tot (Debye)
 q only:       -2.825      10.000       1.866
   full:       -3.233      10.090       1.587      27.232

           -------------------------------------------------
          | TOTAL ENERGY              -80.555235184016 Eh   |
          | GRADIENT NORM               0.000873014258 Eh/α |
          | HOMO-LUMO GAP               1.769445592238 eV   |
           -------------------------------------------------

 * finished run on 2024/12/20 at 02:14:55.021
