   * xtb version 6.7.1 (edcfbbe) compiled by 'conda@3ef47c1a292c' on 2024-11-25

   ID    Z sym.   atoms
    1    6 C      1, 2, 4-7
    2    7 N      3
    3    1 H      8-23

          program call               : xtb C0319.xyz --opt --namespace C0319 --charge +1
          :  Hamiltonian                  GFN2-xTB          :
 * total energy  :   -23.5214062 Eh     change       -0.2841816E-10 Eh
 * total energy  :   -23.5272470 Eh     change       -0.5840731E-02 Eh
 * total energy  :   -23.5284869 Eh     change       -0.1239948E-02 Eh
 * total energy  :   -23.5285175 Eh     change       -0.3063382E-04 Eh
 * total energy  :   -23.5285277 Eh     change       -0.1021164E-04 Eh
 * total energy  :   -23.5285350 Eh     change       -0.7226200E-05 Eh
 * total energy  :   -23.5285404 Eh     change       -0.5396057E-05 Eh
 * total energy  :   -23.5285343 Eh     change        0.6111582E-05 Eh
 * total energy  :   -23.5285409 Eh     change       -0.6630083E-05 Eh
 * total energy  :   -23.5285410 Eh     change       -0.1380953E-06 Eh
   *** GEOMETRY OPTIMIZATION CONVERGED AFTER 10 ITERATIONS ***

 final structure:
================
23
 xtb: 6.7.1 (edcfbbe)
C            0.96127056494262       -0.14327760191588        0.07043740014657
C            0.45464001013458        1.29486649484577        0.04873094216243
N            0.96948080973814        2.08620693279762       -1.14613891631240
C            0.52131995769018        1.51845754220340       -2.43027685870229
C            0.49946641947003        3.48389978786501       -1.06002295570030
C            2.44634920228045        2.10911394135800       -1.13165313679117
C           -1.06723085833445        1.28913585687706        0.14506543708572
H            0.56728890448667       -0.72718684160568       -0.75646287733541
H            0.60660414343671       -0.60780129639834        0.98684860364049
H            2.04387448650131       -0.21549800281384        0.08172964612978
H            0.85568382593553        1.81721960265794        0.92363156948255
H           -0.56401492694989        1.52153669102365       -2.49106259089784
H            0.91356302621337        2.11667743163370       -3.25083484977621
H            0.88301526359770        0.49971749645052       -2.54430078417985
H            0.75134023862331        3.90894688533855       -0.09011238142652
H            0.97586528357239        4.08190198930452       -1.83494638682537
H           -0.57583412935533        3.54064139629503       -1.20539562821588
H            2.81016611865155        2.45511053977956       -0.16586040541114
H            2.85107764965230        1.12073775305373       -1.33148184982780
H            2.81257112492913        2.78491910424612       -1.90252128863249
H           -1.34141605381107        0.76778437866778        1.05851775956161
H           -1.49555032644425        2.28384423003179        0.21194037855895
H           -1.52623073496099        0.75113568830397       -0.67944082673342

          :  Hamiltonian                  GFN2-xTB          :
         :: total energy             -23.528541028606 Eh    ::
         :: gradient norm              0.000136942389 Eh/a0 ::
         :: HOMO-LUMO gap              9.752765463506 eV    ::
         :: SCC energy               -23.866784828058 Eh    ::
         :: -> dispersion             -0.014373526262 Eh    ::
         :: repulsion energy           0.338243799452 Eh    ::

    * Orbital Energies and Occupations

         #    Occupation            Energy/Eh            Energy/eV
      -------------------------------------------------------------
         1        2.0000           -0.8681057             -23.6224
       ...           ...                  ...                  ...
        10        2.0000           -0.7072023             -19.2440
        11        2.0000           -0.6818597             -18.5543
        12        2.0000           -0.6708087             -18.2536
        13        2.0000           -0.6590347             -17.9332
        14        2.0000           -0.6509953             -17.7145
        15        2.0000           -0.6481481             -17.6370
        16        2.0000           -0.6472805             -17.6134
        17        2.0000           -0.6459295             -17.5766
        18        2.0000           -0.6357545             -17.2998
        19        2.0000           -0.6187093             -16.8359
        20        2.0000           -0.6140029             -16.7079
        21        2.0000           -0.6014288             -16.3657
        22        2.0000           -0.6009162             -16.3518 (HOMO)
        23                         -0.2425087              -6.5990 (LUMO)
        24                         -0.1691815              -4.6037
        25                         -0.1530725              -4.1653
        26                         -0.1470707              -4.0020
        27                         -0.0739000              -2.0109
        28                         -0.0665613              -1.8112
        29                         -0.0411910              -1.1209
        30                         -0.0305498              -0.8313
        31                          0.0001404               0.0038
        32                          0.0168004               0.4572
        33                          0.0297302               0.8090
       ...                                ...                  ...
        44                          0.1369150               3.7256
      -------------------------------------------------------------
                  HL-Gap            0.3584075 Eh            9.7528 eV

     #   Z          covCN         q      C6AA      α(0)
     1   6 C        3.756    -0.135    23.145     6.860
     2   6 C        3.795     0.017    20.292     6.414
     3   7 N        3.619     0.132    18.995     6.473
     4   6 C        3.720    -0.096    22.450     6.767
     5   6 C        3.726    -0.097    22.451     6.765
     6   6 C        3.726    -0.097    22.451     6.765
     7   6 C        3.756    -0.135    23.145     6.860
     8   1 H        0.925     0.068     2.111     2.272
     9   1 H        0.925     0.087     1.908     2.160
    10   1 H        0.925     0.064     2.150     2.293
    11   1 H        0.924     0.076     2.021     2.223
    12   1 H        0.925     0.101     1.773     2.082
    13   1 H        0.925     0.097     1.811     2.104
    14   1 H        0.925     0.101     1.773     2.082
    15   1 H        0.925     0.097     1.811     2.105
    16   1 H        0.925     0.098     1.803     2.100
    17   1 H        0.925     0.103     1.761     2.075
    18   1 H        0.925     0.097     1.811     2.105
    19   1 H        0.925     0.103     1.761     2.075
    20   1 H        0.925     0.098     1.803     2.100
    21   1 H        0.925     0.087     1.908     2.160
    22   1 H        0.925     0.064     2.150     2.293
    23   1 H        0.925     0.068     2.111     2.272

Wiberg/Mayer (AO) data.
largest (>0.10) Wiberg bond orders for each atom

     #   Z sym  total        # sym  WBO       # sym  WBO       # sym  WBO
 ---------------------------------------------------------------------------
     1   6 C    3.982 --     2 C    1.013     8 H    0.979    10 H    0.978
                             9 H    0.972
     2   6 C    3.931 --     7 C    1.013     1 C    1.013    11 H    0.960
                             3 N    0.890
     3   7 N    3.809 --     4 C    0.960     5 C    0.960     6 C    0.960
                             2 C    0.890
     4   6 C    3.927 --    13 H    0.974    12 H    0.972    14 H    0.972
                             3 N    0.960
     5   6 C    3.928 --    15 H    0.975    16 H    0.973    17 H    0.971
                             3 N    0.960
     6   6 C    3.928 --    18 H    0.975    20 H    0.973    19 H    0.971
                             3 N    0.960
     7   6 C    3.982 --     2 C    1.013    23 H    0.979    22 H    0.978
                            21 H    0.972
     8   1 H    0.995 --     1 C    0.979
     9   1 H    0.992 --     1 C    0.972
    10   1 H    0.996 --     1 C    0.978
    11   1 H    0.994 --     2 C    0.960
    12   1 H    0.990 --     4 C    0.972
    13   1 H    0.991 --     4 C    0.974
    14   1 H    0.990 --     4 C    0.972
    15   1 H    0.991 --     5 C    0.975
    16   1 H    0.990 --     5 C    0.973
    17   1 H    0.989 --     5 C    0.971
    18   1 H    0.991 --     6 C    0.975
    19   1 H    0.989 --     6 C    0.971
    20   1 H    0.990 --     6 C    0.973
    21   1 H    0.992 --     7 C    0.972
    22   1 H    0.996 --     7 C    0.978
    23   1 H    0.995 --     7 C    0.979
 ---------------------------------------------------------------------------

molecular dipole:
                 x           y           z       tot (Debye)
 q only:        1.623       3.636      -1.971
   full:        1.663       3.693      -1.976      11.453

           -------------------------------------------------
          | TOTAL ENERGY              -23.528541028606 Eh   |
          | GRADIENT NORM               0.000136942389 Eh/α |
          | HOMO-LUMO GAP               9.752765463506 eV   |
           -------------------------------------------------

 * finished run on 2024/12/20 at 02:15:04.714
