   * xtb version 6.7.1 (edcfbbe) compiled by 'conda@3ef47c1a292c' on 2024-11-25

   ID    Z sym.   atoms
    1    6 C      1-20, 23, 24, 26-30
    2    8 O      21, 22
    3    7 N      25
    4    1 H      31-78

          program call               : xtb C0317.xyz --opt --namespace C0317 --charge +1
          :  Hamiltonian                  GFN2-xTB          :
 * total energy  :   -92.9816719 Eh     change       -0.1199868E-07 Eh
 * total energy  :   -92.9868655 Eh     change       -0.5193624E-02 Eh
 * total energy  :   -92.9877494 Eh     change       -0.8839258E-03 Eh
 * total energy  :   -92.9880434 Eh     change       -0.2940295E-03 Eh
 * total energy  :   -92.9883070 Eh     change       -0.2635041E-03 Eh
 * total energy  :   -92.9885061 Eh     change       -0.1991738E-03 Eh
 * total energy  :   -92.9887010 Eh     change       -0.1948983E-03 Eh
 * total energy  :   -92.9889126 Eh     change       -0.2115620E-03 Eh
 * total energy  :   -92.9891268 Eh     change       -0.2142320E-03 Eh
 * total energy  :   -92.9893147 Eh     change       -0.1879182E-03 Eh
 * total energy  :   -92.9994402 Eh     change       -0.5919719E-04 Eh
 * total energy  :   -92.9994657 Eh     change       -0.2551896E-04 Eh
 * total energy  :   -92.9994959 Eh     change       -0.3016298E-04 Eh
 * total energy  :   -92.9995225 Eh     change       -0.2656843E-04 Eh
 * total energy  :   -92.9995389 Eh     change       -0.1648451E-04 Eh
 * total energy  :   -92.9995547 Eh     change       -0.1577025E-04 Eh
 * total energy  :   -92.9995686 Eh     change       -0.1384770E-04 Eh
 * total energy  :   -92.9995762 Eh     change       -0.7693965E-05 Eh
 * total energy  :   -92.9995811 Eh     change       -0.4812487E-05 Eh
   *** GEOMETRY OPTIMIZATION CONVERGED AFTER 79 ITERATIONS ***

 final structure:
================
78
 xtb: 6.7.1 (edcfbbe)
C            1.40773495814059       -0.92903435727756        0.58069115883164
C            0.43394477857782       -0.50928730422844       -0.47214943535333
C           -0.59189682519431        0.45766646536536        0.14250121839749
C           -1.78244568253432        0.71805641757945       -0.77955378737574
C           -2.67724057371329       -0.49907859927203       -1.02553188342003
C           -3.22113232393372       -1.17528749028177        0.23573105084130
C           -4.00938121641408       -0.25737496060296        1.17377441623600
C           -5.21140974262151        0.43682607965737        0.52907461608296
C           -6.26288825672525       -0.50538477847234       -0.05865413989898
C           -6.93631537389994       -1.43595686767106        0.95166599538729
C           -7.70158930924874       -0.72878971618356        2.07258903876956
C           -8.79523027256091        0.23233842140116        1.60125917612770
C           -9.85830444381972       -0.39150186739423        0.69578259486281
C          -10.65029625833960       -1.53941599326280        1.32392233570345
C          -11.45333568463608       -1.16504923901757        2.57067853086054
C          -12.47712012651991       -0.04625030208075        2.36693238650865
C          -13.51714607027752       -0.30950697943330        1.27733011928679
C          -14.37282534504467       -1.56021993623678        1.48847072779358
C          -15.20040242952519       -1.56794210191702        2.77392608743913
C          -16.23654167004967       -0.45228517134053        2.82833257683508
O            1.45049908616731       -2.00627921125649        1.12020530829855
O            2.22994767112309        0.08275915540646        0.93947759708564
C            3.22165285887938       -0.20252819251137        1.90917516120155
C            2.70843306743257        0.03063774751411        3.34330796831951
N            1.61014361351863       -0.86853444063928        3.64643176931408
C            1.86760083545871       -2.15915290178322        3.90790904886081
C            0.84864593580040       -3.07117623449439        4.06177712845554
C           -0.46938073878289       -2.64808038851043        3.93595929734350
C           -0.71663016492834       -1.30427813811321        3.68290702801792
C            0.34491325197709       -0.43790033170370        3.54040915441011
H            0.96047822968467       -0.01072366646313       -1.28532987513215
H           -0.06255248932820       -1.40268510572190       -0.84691787069519
H           -0.95487448170572        0.04205490275066        1.08450161898275
H           -0.09237648939863        1.40439869101486        0.35852862420111
H           -2.37987457940514        1.51708011271746       -0.33791917524143
H           -1.41587416211611        1.07973106042402       -1.74184953990356
H           -3.51391323756996       -0.17665955079164       -1.64585573271351
H           -2.12906739076481       -1.24683273107038       -1.60224398146620
H           -3.86620935058877       -1.99738462555475       -0.07722305831620
H           -2.39359735505848       -1.62391903309966        0.79441473204122
H           -4.35683379624311       -0.85293469993411        2.02150680141564
H           -3.34641475161987        0.51597474476311        1.57249189765867
H           -5.68102697569405        1.07105899743286        1.28327536421095
H           -4.86036397893503        1.09644359482511       -0.26690914263906
H           -7.02648202394419        0.10402730147413       -0.54417472496092
H           -5.80497527062426       -1.11825035928667       -0.83780203446766
H           -7.62456598846348       -2.08400258708955        0.40630398491586
H           -6.18413167675705       -2.08591193310780        1.40580845332535
H           -8.14847686910362       -1.49319241567468        2.71171900496112
H           -6.99928530064957       -0.16723644142571        2.69389911535448
H           -9.27895459036896        0.65473637978761        2.48429110004321
H           -8.33492904628330        1.06438402799294        1.06357029022469
H          -10.55119254529240        0.39609136120492        0.39352441398676
H           -9.38353408475412       -0.76189818573312       -0.21524412900423
H          -11.33078289146726       -1.93531974601825        0.56752463146373
H           -9.96476222001413       -2.34755793553912        1.58910920590730
H          -11.96999965271253       -2.06003663658666        2.92410373728768
H          -10.76697024863188       -0.86044160600151        3.36424650814791
H          -12.98846917981786        0.12295140145646        3.31677797637016
H          -11.95144025273453        0.87885688815078        2.11913710457878
H          -14.17254652786868        0.56143950229587        1.21260961437196
H          -13.01267063028710       -0.39855211728778        0.31277951920894
H          -15.05352646811240       -1.65031659293769        0.63789142016238
H          -13.72757344404550       -2.44137963377813        1.48298646269904
H          -15.71612010581063       -2.52942851100117        2.83991573011839
H          -14.54015445242651       -1.49621039156797        3.64028218370699
H          -16.88290930368434       -0.48951642805947        1.95402539775581
H          -16.85620382815506       -0.55615362955193        3.71598165783756
H          -15.75957957363751        0.52406672045216        2.86182849622100
H            3.55334069815333       -1.24039079572599        1.79027385834547
H            4.04847366305377        0.48135429123623        1.71031816119821
H            3.53072134857252       -0.14115238557896        4.04031876184252
H            2.36476192208562        1.06231709813976        3.43883522183431
H            2.90463465133409       -2.45045315277361        3.97800312304604
H            1.08481951324360       -4.10382044654839        4.26083896294234
H           -1.28403061988387       -3.34829835391379        4.02956711786540
H           -1.72478507541678       -0.93363918924325        3.58385104855130
H            0.19672733508055        0.61094302776461        3.32876571710421

          :  Hamiltonian                  GFN2-xTB          :
         :: total energy             -92.999581059049 Eh    ::
         :: gradient norm              0.000448138681 Eh/a0 ::
         :: HOMO-LUMO gap              0.186017348664 eV    ::
         :: SCC energy               -94.335545677307 Eh    ::
         :: -> dispersion             -0.072084027168 Eh    ::
         :: repulsion energy           1.335964618258 Eh    ::

    * Orbital Energies and Occupations

         #    Occupation            Energy/Eh            Energy/eV
      -------------------------------------------------------------
         1        2.0000           -0.8731398             -23.7593
       ...           ...                  ...                  ...
        74        2.0000           -0.4982454             -13.5579
        75        2.0000           -0.4951747             -13.4744
        76        2.0000           -0.4915353             -13.3754
        77        2.0000           -0.4869996             -13.2519
        78        2.0000           -0.4820698             -13.1178
        79        2.0000           -0.4802649             -13.0687
        80        2.0000           -0.4769660             -12.9789
        81        2.0000           -0.4696759             -12.7805
        82        2.0000           -0.4678305             -12.7303
        83        2.0000           -0.4659178             -12.6783
        84        2.0000           -0.4607658             -12.5381
        85        1.9872           -0.4538977             -12.3512
        86        1.9527           -0.4526363             -12.3169 (HOMO)
        87        0.0601           -0.4458003             -12.1308 (LUMO)
        88                         -0.4125952             -11.2273
        89                         -0.3559600              -9.6862
        90                         -0.2931410              -7.9768
        91                         -0.1683866              -4.5820
        92                         -0.1199289              -3.2634
        93                         -0.0681357              -1.8541
        94                         -0.0611245              -1.6633
        95                         -0.0366918              -0.9984
        96                         -0.0226293              -0.6158
        97                         -0.0123403              -0.3358
       ...                                ...                  ...
       168                          0.5169496              14.0669
      -------------------------------------------------------------
                  HL-Gap            0.0068360 Eh            0.1860 eV

     #   Z          covCN         q      C6AA      α(0)
     1   6 C        2.719     0.357    20.932     7.490
     2   6 C        3.804    -0.096    22.332     6.728
     3   6 C        3.804    -0.050    21.472     6.597
     4   6 C        3.801    -0.062    21.691     6.631
     5   6 C        3.800    -0.063    21.704     6.633
     6   6 C        3.799    -0.058    21.613     6.619
     7   6 C        3.799    -0.055    21.559     6.611
     8   6 C        3.800    -0.058    21.621     6.620
     9   6 C        3.800    -0.059    21.634     6.622
    10   6 C        3.800    -0.057    21.592     6.616
    11   6 C        3.800    -0.056    21.574     6.613
    12   6 C        3.800    -0.057    21.595     6.616
    13   6 C        3.800    -0.057    21.603     6.618
    14   6 C        3.800    -0.057    21.591     6.616
    15   6 C        3.800    -0.056    21.579     6.614
    16   6 C        3.800    -0.056    21.585     6.615
    17   6 C        3.800    -0.057    21.597     6.617
    18   6 C        3.801    -0.057    21.601     6.617
    19   6 C        3.799    -0.052    21.508     6.603
    20   6 C        3.751    -0.102    22.518     6.767
    21   8 O        0.856    -0.430    22.299     6.331
    22   8 O        1.705    -0.261    18.329     5.780
    23   6 C        3.700     0.067    19.602     6.332
    24   6 C        3.757    -0.039    21.323     6.584
    25   7 N        2.750     0.108    19.388     6.540
    26   6 C        2.890     0.044    27.015     8.522
    27   6 C        2.915    -0.002    28.071     8.688
    28   6 C        2.925     0.015    27.677     8.627
    29   6 C        2.915    -0.010    28.262     8.718
    30   6 C        2.889     0.034    27.239     8.557
    31   1 H        0.925     0.083     1.944     2.180
    32   1 H        0.925     0.085     1.933     2.174
    33   1 H        0.924     0.029     2.594     2.519
    34   1 H        0.924     0.042     2.421     2.433
    35   1 H        0.924     0.049     2.331     2.388
    36   1 H        0.924     0.044     2.392     2.419
    37   1 H        0.924     0.049     2.333     2.388
    38   1 H        0.924     0.033     2.551     2.498
    39   1 H        0.924     0.042     2.419     2.432
    40   1 H        0.924     0.013     2.835     2.633
    41   1 H        0.924     0.027     2.635     2.538
    42   1 H        0.924     0.016     2.802     2.618
    43   1 H        0.924     0.035     2.519     2.482
    44   1 H        0.924     0.031     2.578     2.511
    45   1 H        0.924     0.038     2.477     2.461
    46   1 H        0.924     0.029     2.597     2.520
    47   1 H        0.924     0.035     2.516     2.481
    48   1 H        0.924     0.022     2.698     2.569
    49   1 H        0.924     0.031     2.571     2.507
    50   1 H        0.924     0.023     2.695     2.567
    51   1 H        0.924     0.032     2.556     2.500
    52   1 H        0.924     0.028     2.613     2.528
    53   1 H        0.924     0.034     2.526     2.485
    54   1 H        0.924     0.030     2.590     2.517
    55   1 H        0.924     0.033     2.539     2.492
    56   1 H        0.924     0.029     2.601     2.522
    57   1 H        0.924     0.034     2.536     2.490
    58   1 H        0.924     0.028     2.609     2.526
    59   1 H        0.924     0.034     2.530     2.487
    60   1 H        0.924     0.031     2.570     2.507
    61   1 H        0.924     0.036     2.499     2.472
    62   1 H        0.924     0.032     2.553     2.499
    63   1 H        0.924     0.032     2.553     2.498
    64   1 H        0.924     0.032     2.558     2.501
    65   1 H        0.924     0.031     2.575     2.509
    66   1 H        0.924     0.033     2.540     2.493
    67   1 H        0.925     0.036     2.499     2.472
    68   1 H        0.925     0.034     2.532     2.489
    69   1 H        0.925     0.036     2.498     2.472
    70   1 H        0.924     0.080     1.978     2.199
    71   1 H        0.924     0.099     1.794     2.095
    72   1 H        0.924     0.099     1.790     2.092
    73   1 H        0.924     0.102     1.766     2.078
    74   1 H        0.926     0.107     1.724     2.053
    75   1 H        0.926     0.109     1.706     2.042
    76   1 H        0.926     0.105     1.743     2.065
    77   1 H        0.926     0.104     1.748     2.067
    78   1 H        0.926     0.101     1.774     2.083

Wiberg/Mayer (AO) data.
largest (>0.10) Wiberg bond orders for each atom

     #   Z sym  total        # sym  WBO       # sym  WBO       # sym  WBO
 ---------------------------------------------------------------------------
     1   6 C    3.902 --    21 O    1.745    22 O    1.095     2 C    0.992
     2   6 C    3.986 --     1 C    0.992     3 C    0.969    32 H    0.965
                            31 H    0.956
     3   6 C    3.991 --     4 C    1.004    34 H    0.978    33 H    0.971
                             2 C    0.969
     4   6 C    3.993 --     5 C    1.008     3 C    1.004    36 H    0.976
                            35 H    0.971
     5   6 C    3.995 --     4 C    1.008     6 C    1.008    38 H    0.974
                            37 H    0.973
     6   6 C    3.997 --     5 C    1.008     7 C    1.007    40 H    0.975
                            39 H    0.974
     7   6 C    3.998 --     6 C    1.007     8 C    1.007    42 H    0.976
                            41 H    0.975
     8   6 C    3.997 --     9 C    1.008     7 C    1.007    44 H    0.975
                            43 H    0.974
     9   6 C    3.997 --     8 C    1.008    10 C    1.008    46 H    0.974
                            45 H    0.973
    10   6 C    3.997 --     9 C    1.008    11 C    1.007    48 H    0.975
                            47 H    0.974
    11   6 C    3.996 --    10 C    1.007    12 C    1.007    50 H    0.976
                            49 H    0.975
    12   6 C    3.996 --    13 C    1.008    11 C    1.007    52 H    0.975
                            51 H    0.974
    13   6 C    3.993 --    12 C    1.008    14 C    1.006    54 H    0.974
                            53 H    0.972
    14   6 C    3.992 --    15 C    1.007    13 C    1.006    55 H    0.974
                            56 H    0.973
    15   6 C    3.988 --    14 C    1.007    16 C    1.005    58 H    0.974
                            57 H    0.972
    16   6 C    3.987 --    17 C    1.007    15 C    1.005    59 H    0.973
                            60 H    0.971
    17   6 C    3.985 --    16 C    1.007    18 C    1.004    62 H    0.972
                            61 H    0.970
    18   6 C    3.987 --    19 C    1.007    17 C    1.004    63 H    0.975
                            64 H    0.972
    19   6 C    3.989 --    20 C    1.020    18 C    1.007    65 H    0.975
                            66 H    0.972
    20   6 C    3.992 --    19 C    1.020    68 H    0.987    67 H    0.986
                            69 H    0.984
    21   8 O    2.023 --     1 C    1.745    22 O    0.159
    22   8 O    2.296 --     1 C    1.095    23 C    0.969    21 O    0.159
    23   6 C    3.933 --    24 C    0.973    22 O    0.969    70 H    0.962
                            71 H    0.960
    24   6 C    3.946 --    25 N    0.975    23 C    0.973    73 H    0.963
                            72 H    0.959
    25   7 N    3.730 --    30 C    1.308    26 C    1.304    24 C    0.975
    26   6 C    3.935 --    27 C    1.474    25 N    1.304    74 H    0.955
    27   6 C    3.976 --    26 C    1.474    28 C    1.409    75 H    0.959
    28   6 C    3.936 --    29 C    1.413    27 C    1.409    76 H    0.962
    29   6 C    3.979 --    30 C    1.470    28 C    1.413    77 H    0.959
    30   6 C    3.938 --    29 C    1.470    25 N    1.308    78 H    0.955
    31   1 H    0.993 --     2 C    0.956
    32   1 H    0.993 --     2 C    0.965
    33   1 H    0.999 --     3 C    0.971
    34   1 H    0.998 --     3 C    0.978
    35   1 H    0.996 --     4 C    0.971
    36   1 H    0.998 --     4 C    0.976
    37   1 H    0.997 --     5 C    0.973
    38   1 H    0.999 --     5 C    0.974
    39   1 H    0.998 --     6 C    0.974
    40   1 H    1.000 --     6 C    0.975
    41   1 H    0.999 --     7 C    0.975
    42   1 H    1.000 --     7 C    0.976
    43   1 H    0.999 --     8 C    0.974
    44   1 H    0.999 --     8 C    0.975
    45   1 H    0.998 --     9 C    0.973
    46   1 H    0.999 --     9 C    0.974
    47   1 H    0.999 --    10 C    0.974
    48   1 H    0.999 --    10 C    0.975
    49   1 H    0.999 --    11 C    0.975
    50   1 H    0.999 --    11 C    0.976
    51   1 H    0.999 --    12 C    0.974
    52   1 H    0.998 --    12 C    0.975
    53   1 H    0.997 --    13 C    0.972
    54   1 H    0.998 --    13 C    0.974
    55   1 H    0.998 --    14 C    0.974
    56   1 H    0.997 --    14 C    0.973
    57   1 H    0.995 --    15 C    0.972
    58   1 H    0.997 --    15 C    0.974
    59   1 H    0.997 --    16 C    0.973
    60   1 H    0.995 --    16 C    0.971
    61   1 H    0.994 --    17 C    0.970
    62   1 H    0.996 --    17 C    0.972
    63   1 H    0.996 --    18 C    0.975
    64   1 H    0.995 --    18 C    0.972
    65   1 H    0.995 --    19 C    0.975
    66   1 H    0.995 --    19 C    0.972
    67   1 H    0.997 --    20 C    0.986
    68   1 H    0.998 --    20 C    0.987
    69   1 H    0.996 --    20 C    0.984
    70   1 H    0.994 --    23 C    0.962
    71   1 H    0.989 --    23 C    0.960
    72   1 H    0.989 --    24 C    0.959
    73   1 H    0.989 --    24 C    0.963
    74   1 H    0.989 --    26 C    0.955
    75   1 H    0.988 --    27 C    0.959
    76   1 H    0.989 --    28 C    0.962
    77   1 H    0.989 --    29 C    0.959
    78   1 H    0.990 --    30 C    0.955
 ---------------------------------------------------------------------------

molecular dipole:
                 x           y           z       tot (Debye)
 q only:        0.011      -1.549       5.980
   full:        0.201      -1.487       5.957      15.615

           -------------------------------------------------
          | TOTAL ENERGY              -92.999581059049 Eh   |
          | GRADIENT NORM               0.000448138681 Eh/α |
          | HOMO-LUMO GAP               0.186017348664 eV   |
           -------------------------------------------------

 * finished run on 2024/12/20 at 02:15:03.691
