   * xtb version 6.7.1 (edcfbbe) compiled by 'conda@3ef47c1a292c' on 2024-11-25

   ID    Z sym.   atoms
    1    6 C      1-3, 5-10
    2    7 N      4
    3    1 H      11-32

          program call               : xtb C0311.xyz --opt --namespace C0311 --charge +1
          :  Hamiltonian                  GFN2-xTB          :
 * total energy  :   -33.0154748 Eh     change       -0.9794832E-10 Eh
 * total energy  :   -33.0178232 Eh     change       -0.2348432E-02 Eh
 * total energy  :   -33.0182664 Eh     change       -0.4432163E-03 Eh
 * total energy  :   -33.0183209 Eh     change       -0.5449125E-04 Eh
 * total energy  :   -33.0183663 Eh     change       -0.4535274E-04 Eh
 * total energy  :   -33.0183937 Eh     change       -0.2740993E-04 Eh
 * total energy  :   -33.0184583 Eh     change       -0.6465002E-04 Eh
 * total energy  :   -33.0184909 Eh     change       -0.3260876E-04 Eh
 * total energy  :   -33.0185015 Eh     change       -0.1054604E-04 Eh
 * total energy  :   -33.0185161 Eh     change       -0.1466688E-04 Eh
 * total energy  :   -33.0185319 Eh     change       -0.1573447E-04 Eh
 * total energy  :   -33.0185468 Eh     change       -0.1491763E-04 Eh
 * total energy  :   -33.0185570 Eh     change       -0.1019189E-04 Eh
 * total energy  :   -33.0185635 Eh     change       -0.6522901E-05 Eh
 * total energy  :   -33.0185695 Eh     change       -0.6009914E-05 Eh
 * total energy  :   -33.0185744 Eh     change       -0.4908197E-05 Eh
   *** GEOMETRY OPTIMIZATION CONVERGED AFTER 16 ITERATIONS ***

 final structure:
================
32
 xtb: 6.7.1 (edcfbbe)
C            1.11383403013973        0.05398307030917       -0.20295340659855
C            0.44456000469881        0.04479525863851       -1.57422886325961
C            0.87955031487716       -1.13767010503649       -2.43631736408903
N            0.60452604994445       -2.45009204120225       -1.79645485393974
C           -0.85027661847704       -2.74137204534128       -1.60594619499086
C           -1.75090406710586       -2.61623928893192       -2.83347744507330
C           -1.49147217120542       -3.62604929283019       -3.94529792944506
C            1.37495440284989       -3.55058217705191       -2.43940033523179
C            2.80459525784404       -3.62780392554580       -1.90663925069035
C            2.86794115696102       -3.90307345366913       -0.40702451126826
H            0.73916211561569       -0.73579154327114        0.44806874433363
H            0.90963857235298        0.99665633791133        0.29578865251437
H            2.19366213984841       -0.04143791394060       -0.29591769238493
H           -0.63950934289420        0.06751367561925       -1.46110042860433
H            0.72734785470357        0.95038546026085       -2.11189087980370
H            0.38528169672464       -1.11284999889876       -3.40754788499794
H            1.95692526166025       -1.07380999613868       -2.60082882406973
H            0.99357351657202       -2.37989560055997       -0.84610001880539
H           -0.92614535003424       -3.75547160712886       -1.20704544912914
H           -1.21879029056571       -2.05451637578935       -0.84131546477204
H           -2.76599278744709       -2.77090008768155       -2.46198677776939
H           -1.71859883538119       -1.60336971452109       -3.23524658629255
H           -1.43613717829846       -4.63717025577260       -3.55046213692141
H           -2.31272643711889       -3.59380383335610       -4.65542235844596
H           -0.58014638674906       -3.41096543303162       -4.49594226879647
H            0.86841198971900       -4.49357708043023       -2.22897147070969
H            1.38163880277512       -3.39754301716161       -3.51840760441582
H            3.29952878173942       -4.44140062598305       -2.43734588410388
H            3.35632081546183       -2.71529610029126       -2.13853922312647
H            2.27244141458921       -4.77473346272419       -0.14503677161351
H            3.89514728624459       -4.10544387537881       -0.11846143331737
H            2.53508799995620       -3.05448495107091        0.19124191581825

          :  Hamiltonian                  GFN2-xTB          :
         :: total energy             -33.018574430928 Eh    ::
         :: gradient norm              0.000415942592 Eh/a0 ::
         :: HOMO-LUMO gap              9.216784759888 eV    ::
         :: SCC energy               -33.498356488398 Eh    ::
         :: -> dispersion             -0.022193743697 Eh    ::
         :: repulsion energy           0.479782057470 Eh    ::

    * Orbital Energies and Occupations

         #    Occupation            Energy/Eh            Energy/eV
      -------------------------------------------------------------
         1        2.0000           -0.8590646             -23.3763
       ...           ...                  ...                  ...
        19        2.0000           -0.6393197             -17.3968
        20        2.0000           -0.6318068             -17.1923
        21        2.0000           -0.6307872             -17.1646
        22        2.0000           -0.6254869             -17.0204
        23        2.0000           -0.6035106             -16.4224
        24        2.0000           -0.6022927             -16.3892
        25        2.0000           -0.5963430             -16.2273
        26        2.0000           -0.5918947             -16.1063
        27        2.0000           -0.5880289             -16.0011
        28        2.0000           -0.5845242             -15.9057
        29        2.0000           -0.5797968             -15.7771
        30        2.0000           -0.5778397             -15.7238
        31        2.0000           -0.5734329             -15.6039 (HOMO)
        32                         -0.2347223              -6.3871 (LUMO)
        33                         -0.1521850              -4.1412
        34                         -0.1400616              -3.8113
        35                         -0.1291554              -3.5145
        36                         -0.0704754              -1.9177
        37                         -0.0656241              -1.7857
        38                         -0.0577063              -1.5703
        39                         -0.0427723              -1.1639
        40                         -0.0352457              -0.9591
        41                         -0.0297178              -0.8087
        42                         -0.0159362              -0.4336
       ...                                ...                  ...
        62                          0.1715790               4.6689
      -------------------------------------------------------------
                  HL-Gap            0.3387106 Eh            9.2168 eV

     #   Z          covCN         q      C6AA      α(0)
     1   6 C        3.751    -0.120    22.863     6.819
     2   6 C        3.800    -0.074    21.916     6.665
     3   6 C        3.742    -0.034    21.262     6.579
     4   7 N        3.575     0.030    20.723     6.761
     5   6 C        3.736    -0.033    21.246     6.578
     6   6 C        3.799    -0.069    21.821     6.651
     7   6 C        3.751    -0.120    22.860     6.818
     8   6 C        3.741    -0.037    21.317     6.587
     9   6 C        3.800    -0.075    21.941     6.669
    10   6 C        3.751    -0.122    22.893     6.823
    11   1 H        0.925     0.033     2.546     2.495
    12   1 H        0.925     0.073     2.057     2.243
    13   1 H        0.925     0.052     2.299     2.371
    14   1 H        0.925     0.060     2.198     2.318
    15   1 H        0.924     0.078     1.997     2.210
    16   1 H        0.925     0.090     1.881     2.145
    17   1 H        0.924     0.087     1.906     2.159
    18   1 H        0.859     0.238     0.930     1.511
    19   1 H        0.924     0.084     1.943     2.180
    20   1 H        0.924     0.083     1.949     2.183
    21   1 H        0.924     0.076     2.023     2.224
    22   1 H        0.925     0.060     2.203     2.321
    23   1 H        0.925     0.050     2.315     2.379
    24   1 H        0.925     0.068     2.108     2.271
    25   1 H        0.925     0.041     2.432     2.439
    26   1 H        0.924     0.092     1.859     2.132
    27   1 H        0.925     0.089     1.888     2.149
    28   1 H        0.925     0.081     1.973     2.197
    29   1 H        0.924     0.056     2.243     2.342
    30   1 H        0.925     0.054     2.271     2.356
    31   1 H        0.925     0.074     2.043     2.235
    32   1 H        0.924     0.036     2.500     2.473

Wiberg/Mayer (AO) data.
largest (>0.10) Wiberg bond orders for each atom

     #   Z sym  total        # sym  WBO       # sym  WBO       # sym  WBO
 ---------------------------------------------------------------------------
     1   6 C    3.991 --     2 C    1.019    13 H    0.985    12 H    0.981
                            11 H    0.980
     2   6 C    3.986 --     1 C    1.019     3 C    1.007    14 H    0.972
                            15 H    0.967
     3   6 C    3.929 --     2 C    1.007    16 H    0.965    17 H    0.963
                             4 N    0.937
     4   7 N    3.762 --     3 C    0.937     8 C    0.934     5 C    0.930
                            18 H    0.884
     5   6 C    3.930 --     6 C    1.009    20 H    0.967    19 H    0.966
                             4 N    0.930
     6   6 C    3.985 --     7 C    1.020     5 C    1.009    22 H    0.970
                            21 H    0.964
     7   6 C    3.990 --     6 C    1.020    23 H    0.985    25 H    0.983
                            24 H    0.982
     8   6 C    3.928 --     9 C    1.008    27 H    0.965    26 H    0.964
                             4 N    0.934
     9   6 C    3.986 --    10 C    1.019     8 C    1.008    29 H    0.971
                            28 H    0.966
    10   6 C    3.990 --     9 C    1.019    30 H    0.985    31 H    0.980
                            32 H    0.975
    11   1 H    0.999 --     1 C    0.980
    12   1 H    0.994 --     1 C    0.981
    13   1 H    0.997 --     1 C    0.985
    14   1 H    0.996 --     2 C    0.972
    15   1 H    0.994 --     2 C    0.967
    16   1 H    0.992 --     3 C    0.965
    17   1 H    0.992 --     3 C    0.963
    18   1 H    0.943 --     4 N    0.884
    19   1 H    0.993 --     5 C    0.966
    20   1 H    0.993 --     5 C    0.967
    21   1 H    0.994 --     6 C    0.964
    22   1 H    0.996 --     6 C    0.970
    23   1 H    0.997 --     7 C    0.985
    24   1 H    0.995 --     7 C    0.982
    25   1 H    0.998 --     7 C    0.983
    26   1 H    0.991 --     8 C    0.964
    27   1 H    0.992 --     8 C    0.965
    28   1 H    0.993 --     9 C    0.966
    29   1 H    0.997 --     9 C    0.971
    30   1 H    0.997 --    10 C    0.985
    31   1 H    0.994 --    10 C    0.980
    32   1 H    0.999 --    10 C    0.975
 ---------------------------------------------------------------------------

molecular dipole:
                 x           y           z       tot (Debye)
 q only:        1.167      -4.539      -3.528
   full:        1.203      -4.547      -3.398      14.748

           -------------------------------------------------
          | TOTAL ENERGY              -33.018574430928 Eh   |
          | GRADIENT NORM               0.000415942592 Eh/α |
          | HOMO-LUMO GAP               9.216784759888 eV   |
           -------------------------------------------------

 * finished run on 2024/12/20 at 02:14:47.516
