   * xtb version 6.7.1 (edcfbbe) compiled by 'conda@3ef47c1a292c' on 2024-11-25

   ID    Z sym.   atoms
    1    6 C      1-9, 11, 12, 14, 15
    2    7 N      10, 13
    3    1 H      16-40

          program call               : xtb C0313.xyz --opt --namespace C0313 --charge +1
          :  Hamiltonian                  GFN2-xTB          :
 * total energy  :   -46.0736449 Eh     change       -0.2599052E-08 Eh
 * total energy  :   -46.0772210 Eh     change       -0.3576090E-02 Eh
 * total energy  :   -46.0779877 Eh     change       -0.7666596E-03 Eh
 * total energy  :   -46.0781424 Eh     change       -0.1547156E-03 Eh
 * total energy  :   -46.0782512 Eh     change       -0.1087775E-03 Eh
 * total energy  :   -46.0782831 Eh     change       -0.3190009E-04 Eh
 * total energy  :   -46.0783287 Eh     change       -0.4564249E-04 Eh
 * total energy  :   -46.0783858 Eh     change       -0.5708354E-04 Eh
 * total energy  :   -46.0784480 Eh     change       -0.6220132E-04 Eh
 * total energy  :   -46.0785157 Eh     change       -0.6769231E-04 Eh
 * total energy  :   -46.0796431 Eh     change       -0.2886812E-04 Eh
 * total energy  :   -46.0796907 Eh     change       -0.4761374E-04 Eh
 * total energy  :   -46.0797209 Eh     change       -0.3021294E-04 Eh
 * total energy  :   -46.0797409 Eh     change       -0.2002998E-04 Eh
 * total energy  :   -46.0797602 Eh     change       -0.1930419E-04 Eh
 * total energy  :   -46.0797734 Eh     change       -0.1317803E-04 Eh
 * total energy  :   -46.0797923 Eh     change       -0.1891626E-04 Eh
 * total energy  :   -46.0797986 Eh     change       -0.6278704E-05 Eh
 * total energy  :   -46.0798018 Eh     change       -0.3206775E-05 Eh
   *** GEOMETRY OPTIMIZATION CONVERGED AFTER 45 ITERATIONS ***

 final structure:
================
40
 xtb: 6.7.1 (edcfbbe)
C            1.05811019335525       -0.38684638030156        0.18460148842354
C            0.73790223892580        1.10100314919856        0.10637275572839
C            1.22192010228749        1.75501958541268       -1.18874960167027
C            0.59134788985303        1.19948430426358       -2.46774647559105
C           -0.93401190719684        1.29966745817008       -2.53276294469669
C           -1.49527732478916        2.71547061003562       -2.38085037786775
C           -0.96816803493522        3.73154853861217       -3.39732376127237
C           -1.22566426907239        3.37220386230535       -4.86107757588284
C           -2.71149813145955        3.32776503032837       -5.23915149400293
N           -3.32389171746116        4.62925782596235       -5.09995313907645
C           -3.97912716072500        5.09318800060044       -4.00202758504660
C           -4.32862779035927        6.38604956745050       -4.25179752422362
N           -3.87514273366396        6.69308371371002       -5.49835295054388
C           -3.26910320871948        5.61607191197974       -5.99042000065255
C           -4.04648153127709        7.95948417513134       -6.15793632100881
H            0.50448972736311       -0.95044236635568       -0.56225176810209
H            0.79322028101026       -0.77607613451787        1.16413555443417
H            2.12065426595414       -0.55508698471219        0.02610819878738
H           -0.33759095194831        1.24907978351460        0.22344094778889
H            1.22590518488428        1.60949893762421        0.94120275868097
H            1.04054811261946        2.83066159342992       -1.12740792564505
H            2.30275325531320        1.61577498658763       -1.26266776152004
H            1.03061050581193        1.72083437896097       -3.32172571251703
H            0.86206623830184        0.14762088424214       -2.56763976590012
H           -1.26866626860563        0.86895055911827       -3.47995789784582
H           -1.36339091711164        0.68550454225819       -1.74033344692636
H           -2.58593632211213        2.65705071948865       -2.43499842460487
H           -1.25022587814438        3.08693480425276       -1.38535732517860
H           -1.40322380843979        4.71088860725526       -3.17529128007214
H            0.10919513044092        3.82826403335166       -3.26567433391363
H           -0.71814964094685        4.09650724602735       -5.50204654634287
H           -0.80275788996718        2.39176215407409       -5.07389594061971
H           -2.81853174803433        3.00278017113576       -6.27604118418242
H           -3.24261632702947        2.62794146578529       -4.59357820699767
H           -4.15613975403877        4.48898869759824       -3.13566738013141
H           -4.85562712523858        7.08968018110752       -3.64025303802378
H           -2.81228221445953        5.54999323879536       -6.95871299355075
H           -3.67769703080479        8.76402656045395       -5.52154047012750
H           -3.49790935109615        7.96642273911054       -7.09684730421679
H           -5.10339408848888        8.13728784854201       -6.36195324590141

          :  Hamiltonian                  GFN2-xTB          :
         :: total energy             -46.079801806416 Eh    ::
         :: gradient norm              0.000572303087 Eh/a0 ::
         :: HOMO-LUMO gap              2.176487190525 eV    ::
         :: SCC energy               -46.777100694676 Eh    ::
         :: -> dispersion             -0.031599519843 Eh    ::
         :: repulsion energy           0.697298888260 Eh    ::

    * Orbital Energies and Occupations

         #    Occupation            Energy/Eh            Energy/eV
      -------------------------------------------------------------
         1        2.0000           -0.8968828             -24.4054
       ...           ...                  ...                  ...
        31        2.0000           -0.5865264             -15.9602
        32        2.0000           -0.5712653             -15.5449
        33        2.0000           -0.5673082             -15.4372
        34        2.0000           -0.5603387             -15.2476
        35        2.0000           -0.5514468             -15.0056
        36        2.0000           -0.5429784             -14.7752
        37        2.0000           -0.5374180             -14.6239
        38        2.0000           -0.5238611             -14.2550
        39        2.0000           -0.5169431             -14.0667
        40        2.0000           -0.5133716             -13.9696
        41        2.0000           -0.4942120             -13.4482
        42        2.0000           -0.4906923             -13.3524
        43        2.0000           -0.4869685             -13.2511 (HOMO)
        44                         -0.4069840             -11.0746 (LUMO)
        45                         -0.3707721             -10.0892
        46                         -0.1834870              -4.9929
        47                         -0.1284070              -3.4941
        48                         -0.0625552              -1.7022
        49                         -0.0515581              -1.4030
        50                         -0.0478159              -1.3011
        51                         -0.0314846              -0.8567
        52                         -0.0190347              -0.5180
        53                         -0.0101134              -0.2752
        54                         -0.0059812              -0.1628
       ...                                ...                  ...
        85                          0.4634410              12.6109
      -------------------------------------------------------------
                  HL-Gap            0.0799844 Eh            2.1765 eV

     #   Z          covCN         q      C6AA      α(0)
     1   6 C        3.752    -0.105    22.558     6.773
     2   6 C        3.799    -0.053    21.533     6.607
     3   6 C        3.801    -0.059    21.642     6.624
     4   6 C        3.800    -0.061    21.668     6.628
     5   6 C        3.800    -0.061    21.677     6.629
     6   6 C        3.800    -0.061    21.682     6.630
     7   6 C        3.800    -0.065    21.745     6.639
     8   6 C        3.801    -0.070    21.833     6.653
     9   6 C        3.742    -0.028    21.153     6.562
    10   7 N        2.868     0.073    19.974     6.638
    11   6 C        3.076    -0.004    28.032     8.681
    12   6 C        3.073    -0.010    28.198     8.707
    13   7 N        2.867     0.077    19.900     6.625
    14   6 C        3.102     0.044    26.884     8.496
    15   6 C        3.692    -0.086    22.337     6.763
    16   1 H        0.925     0.034     2.530     2.487
    17   1 H        0.925     0.037     2.483     2.464
    18   1 H        0.925     0.038     2.471     2.458
    19   1 H        0.924     0.028     2.619     2.531
    20   1 H        0.924     0.033     2.551     2.498
    21   1 H        0.924     0.025     2.665     2.553
    22   1 H        0.924     0.037     2.492     2.469
    23   1 H        0.924     0.025     2.654     2.548
    24   1 H        0.924     0.043     2.408     2.427
    25   1 H        0.924     0.024     2.673     2.557
    26   1 H        0.924     0.046     2.371     2.408
    27   1 H        0.924     0.018     2.772     2.603
    28   1 H        0.924     0.050     2.323     2.383
    29   1 H        0.924     0.022     2.705     2.572
    30   1 H        0.925     0.062     2.172     2.305
    31   1 H        0.924     0.046     2.368     2.406
    32   1 H        0.925     0.080     1.978     2.199
    33   1 H        0.924     0.081     1.973     2.196
    34   1 H        0.924     0.096     1.823     2.112
    35   1 H        0.926     0.111     1.690     2.033
    36   1 H        0.926     0.109     1.705     2.042
    37   1 H        0.926     0.112     1.681     2.027
    38   1 H        0.925     0.107     1.718     2.050
    39   1 H        0.925     0.099     1.790     2.092
    40   1 H        0.924     0.107     1.722     2.052

Wiberg/Mayer (AO) data.
largest (>0.10) Wiberg bond orders for each atom

     #   Z sym  total        # sym  WBO       # sym  WBO       # sym  WBO
 ---------------------------------------------------------------------------
     1   6 C    3.996 --     2 C    1.020    18 H    0.987    17 H    0.987
                            16 H    0.986
     2   6 C    3.998 --     1 C    1.020     3 C    1.008    20 H    0.978
                            19 H    0.976
     3   6 C    3.997 --     2 C    1.008     4 C    1.007    22 H    0.976
                            21 H    0.976
     4   6 C    3.996 --     5 C    1.008     3 C    1.007    23 H    0.975
                            24 H    0.974
     5   6 C    3.996 --     4 C    1.008     6 C    1.007    25 H    0.975
                            26 H    0.973
     6   6 C    3.995 --     5 C    1.007     7 C    1.007    27 H    0.974
                            28 H    0.973
     7   6 C    3.993 --     8 C    1.008     6 C    1.007    29 H    0.975
                            30 H    0.969
     8   6 C    3.982 --     7 C    1.008     9 C    0.980    31 H    0.975
                            32 H    0.963
     9   6 C    3.933 --     8 C    0.980    10 N    0.966    33 H    0.965
                            34 H    0.961
    10   7 N    3.721 --    14 C    1.362    11 C    1.233     9 C    0.966
    11   6 C    3.950 --    12 C    1.587    10 N    1.233    35 H    0.959
    12   6 C    3.947 --    11 C    1.587    13 N    1.228    36 H    0.961
    13   7 N    3.721 --    14 C    1.360    12 C    1.228    15 C    0.991
    14   6 C    3.947 --    10 N    1.362    13 N    1.360    37 H    0.954
    15   6 C    3.934 --    13 N    0.991    39 H    0.976    38 H    0.964
                            40 H    0.961
    16   1 H    0.999 --     1 C    0.986
    17   1 H    0.999 --     1 C    0.987
    18   1 H    0.998 --     1 C    0.987
    19   1 H    0.999 --     2 C    0.976
    20   1 H    0.999 --     2 C    0.978
    21   1 H    0.999 --     3 C    0.976
    22   1 H    0.999 --     3 C    0.976
    23   1 H    0.999 --     4 C    0.975
    24   1 H    0.998 --     4 C    0.974
    25   1 H    0.999 --     5 C    0.975
    26   1 H    0.998 --     5 C    0.973
    27   1 H    1.000 --     6 C    0.974
    28   1 H    0.998 --     6 C    0.973
    29   1 H    1.000 --     7 C    0.975
    30   1 H    0.996 --     7 C    0.969
    31   1 H    0.998 --     8 C    0.975
    32   1 H    0.993 --     8 C    0.963
    33   1 H    0.993 --     9 C    0.965
    34   1 H    0.990 --     9 C    0.961
    35   1 H    0.987 --    11 C    0.959
    36   1 H    0.988 --    12 C    0.961
    37   1 H    0.987 --    14 C    0.954
    38   1 H    0.988 --    15 C    0.964
    39   1 H    0.990 --    15 C    0.976
    40   1 H    0.988 --    15 C    0.961
 ---------------------------------------------------------------------------

molecular dipole:
                 x           y           z       tot (Debye)
 q only:       -6.201      10.325      -9.693
   full:       -6.266      10.386      -9.823      39.673

           -------------------------------------------------
          | TOTAL ENERGY              -46.079801806416 Eh   |
          | GRADIENT NORM               0.000572303087 Eh/α |
          | HOMO-LUMO GAP               2.176487190525 eV   |
           -------------------------------------------------

 * finished run on 2024/12/20 at 02:14:49.839
