   * xtb version 6.7.1 (edcfbbe) compiled by 'conda@3ef47c1a292c' on 2024-11-25

   ID    Z sym.   atoms
    1    6 C      1, 2
    2    7 N      3
    3    1 H      4-11

          program call               : xtb C0326.xyz --opt --namespace C0326 --charge +1
          :  Hamiltonian                  GFN2-xTB          :
 * total energy  :   -10.8377595 Eh     change       -0.1800693E-10 Eh
 * total energy  :   -10.8383949 Eh     change       -0.6353887E-03 Eh
 * total energy  :   -10.8384712 Eh     change       -0.7638242E-04 Eh
 * total energy  :   -10.8384828 Eh     change       -0.1152290E-04 Eh
 * total energy  :   -10.8384839 Eh     change       -0.1188115E-05 Eh
   *** GEOMETRY OPTIMIZATION CONVERGED AFTER 5 ITERATIONS ***

 final structure:
================
11
 xtb: 6.7.1 (edcfbbe)
C            1.05966644546781       -0.01538685449927       -0.08370850439189
C            0.54727241944407        1.25364684055206        0.56509520588074
N            1.03626943601695        2.44710174748788       -0.20030343974610
H            0.69929506378888       -0.11269780789938       -1.10474178408260
H            0.70251006544881       -0.87568498116092        0.47463681775812
H            2.14622353107758       -0.05059496331554       -0.08349791861278
H           -0.54315518004676        1.27343544228369        0.56970875442761
H            0.90527502881066        1.33560207390905        1.59201423479922
H            0.70592203862747        2.39365876510671       -1.17355508025770
H            0.70490894807445        3.32643365569622        0.21570338092466
H            2.06534220329008        2.45200608183949       -0.21407166669929

          :  Hamiltonian                  GFN2-xTB          :
         :: total energy             -10.838483944252 Eh    ::
         :: gradient norm              0.000280198114 Eh/a0 ::
         :: HOMO-LUMO gap              9.679849057041 eV    ::
         :: SCC energy               -10.995633928645 Eh    ::
         :: -> dispersion             -0.003048221502 Eh    ::
         :: repulsion energy           0.157149984392 Eh    ::

    * Orbital Energies and Occupations

         #    Occupation            Energy/Eh            Energy/eV
      -------------------------------------------------------------
         1        2.0000           -0.9033672             -24.5819
         2        2.0000           -0.8497123             -23.1218
         3        2.0000           -0.8132145             -22.1287
         4        2.0000           -0.8084079             -21.9979
         5        2.0000           -0.7761612             -21.1204
         6        2.0000           -0.7363002             -20.0357
         7        2.0000           -0.6936568             -18.8754
         8        2.0000           -0.6631210             -18.0444
         9        2.0000           -0.6371791             -17.3385
        10        2.0000           -0.6266983             -17.0533 (HOMO)
        11                         -0.2709704              -7.3735 (LUMO)
        12                         -0.1663016              -4.5253
        13                         -0.1073981              -2.9225
        14                         -0.1049436              -2.8557
        15                         -0.0622021              -1.6926
        16                         -0.0046620              -0.1269
        17                         -0.0043480              -0.1183
        18                          0.0269855               0.7343
        19                          0.0722951               1.9672
        20                          0.1003824               2.7315
      -------------------------------------------------------------
                  HL-Gap            0.3557279 Eh            9.6798 eV

     #   Z          covCN         q      C6AA      α(0)
     1   6 C        3.753    -0.144    23.344     6.890
     2   6 C        3.729    -0.027    21.157     6.566
     3   7 N        3.483    -0.128    23.759     7.240
     4   1 H        0.925     0.077     2.007     2.215
     5   1 H        0.925     0.105     1.737     2.061
     6   1 H        0.925     0.077     2.007     2.215
     7   1 H        0.924     0.110     1.695     2.036
     8   1 H        0.924     0.110     1.695     2.036
     9   1 H        0.859     0.274     0.795     1.397
    10   1 H        0.859     0.270     0.810     1.409
    11   1 H        0.859     0.274     0.795     1.397

Wiberg/Mayer (AO) data.
largest (>0.10) Wiberg bond orders for each atom

     #   Z sym  total        # sym  WBO       # sym  WBO       # sym  WBO
 ---------------------------------------------------------------------------
     1   6 C    3.974 --     2 C    1.027     4 H    0.980     6 H    0.980
                             5 H    0.968
     2   6 C    3.890 --     1 C    1.027     8 H    0.967     7 H    0.967
                             3 N    0.921
     3   7 N    3.675 --     2 C    0.921    10 H    0.913    11 H    0.909
                             9 H    0.909
     4   1 H    0.994 --     1 C    0.980
     5   1 H    0.989 --     1 C    0.968
     6   1 H    0.994 --     1 C    0.980
     7   1 H    0.988 --     2 C    0.967
     8   1 H    0.988 --     2 C    0.967
     9   1 H    0.925 --     3 N    0.909
    10   1 H    0.927 --     3 N    0.913
    11   1 H    0.925 --     3 N    0.909
 ---------------------------------------------------------------------------

molecular dipole:
                 x           y           z       tot (Debye)
 q only:        1.861       3.905      -0.196
   full:        1.909       4.145      -0.280      11.620

           -------------------------------------------------
          | TOTAL ENERGY              -10.838483944252 Eh   |
          | GRADIENT NORM               0.000280198114 Eh/α |
          | HOMO-LUMO GAP               9.679849057041 eV   |
           -------------------------------------------------

 * finished run on 2024/12/20 at 02:15:12.946
