   * xtb version 6.7.1 (edcfbbe) compiled by 'conda@3ef47c1a292c' on 2024-11-25

   ID    Z sym.   atoms
    1    6 C      1, 3, 5-10
    2    7 N      2, 4
    3    1 H      11-19

          program call               : xtb C0320.xyz --opt --namespace C0320 --charge +1
          :  Hamiltonian                  GFN2-xTB          :
 * total energy  :   -27.0653281 Eh     change       -0.1495284E-08 Eh
 * total energy  :   -27.0975358 Eh     change       -0.3220775E-01 Eh
 * total energy  :   -27.0997229 Eh     change       -0.2187039E-02 Eh
 * total energy  :   -27.0999752 Eh     change       -0.2523590E-03 Eh
 * total energy  :   -27.1000174 Eh     change       -0.4220604E-04 Eh
 * total energy  :   -27.1000420 Eh     change       -0.2458244E-04 Eh
 * total energy  :   -27.1000572 Eh     change       -0.1521820E-04 Eh
 * total energy  :   -27.1000778 Eh     change       -0.2056013E-04 Eh
 * total energy  :   -27.1001019 Eh     change       -0.2405099E-04 Eh
 * total energy  :   -27.1001356 Eh     change       -0.3375418E-04 Eh
 * total energy  :   -27.1003390 Eh     change       -0.4862985E-04 Eh
 * total energy  :   -27.1003414 Eh     change       -0.2346536E-05 Eh
 * total energy  :   -27.1003749 Eh     change       -0.3357154E-04 Eh
 * total energy  :   -27.1003929 Eh     change       -0.1796605E-04 Eh
 * total energy  :   -27.1003981 Eh     change       -0.5235744E-05 Eh
 * total energy  :   -27.1004321 Eh     change       -0.3399306E-04 Eh
 * total energy  :   -27.1004353 Eh     change       -0.3150200E-05 Eh
 * total energy  :   -27.1004436 Eh     change       -0.8359406E-05 Eh
 * total energy  :   -27.1004460 Eh     change       -0.2372937E-05 Eh
   *** GEOMETRY OPTIMIZATION CONVERGED AFTER 25 ITERATIONS ***

 final structure:
================
19
 xtb: 6.7.1 (edcfbbe)
C            1.10319586948501       -0.03633763290076        0.40087159021556
N            0.02794118310487       -0.05226259110293        0.77520432366749
C            2.48186205426592       -0.06044379775366       -0.06754311981453
N            3.10813500462803       -1.32921325926315        0.28398654691678
C            4.19068231669624       -1.35582325968405        1.06946442200971
C            4.79583863498242       -2.54767813165359        1.44200495599859
C            4.22638635229550       -3.73439672587705        0.96825740141146
C            3.10372780304788       -3.68517419523019        0.15832158457973
C            2.55828993079421       -2.46142279239970       -0.17293066394084
C            6.00038012374475       -2.56084951522608        2.31045456735199
H            2.48063655558060        0.07040136224601       -1.15675168846333
H            3.02463297622241        0.77454032284631        0.38525697693213
H            4.58478817669710       -0.40869415971628        1.40941110001034
H            4.66432885431531       -4.68337976498290        1.23799841312715
H            2.64822738284747       -4.58783924871693       -0.21611823887222
H            1.67938529418953       -2.37582586417677       -0.79493216835241
H            5.81579587818944       -3.16338466654466        3.19850628914440
H            6.83604379458276       -3.01942270544452        1.78311898007077
H            6.28832181433045       -1.56042337441923        2.61826872800763

          :  Hamiltonian                  GFN2-xTB          :
         :: total energy             -27.100446005741 Eh    ::
         :: gradient norm              0.000510470769 Eh/a0 ::
         :: HOMO-LUMO gap              3.031906949636 eV    ::
         :: SCC energy               -27.601878438427 Eh    ::
         :: -> dispersion             -0.014021762468 Eh    ::
         :: repulsion energy           0.501432432686 Eh    ::

    * Orbital Energies and Occupations

         #    Occupation            Energy/Eh            Energy/eV
      -------------------------------------------------------------
         1        2.0000           -0.8959547             -24.3802
       ...           ...                  ...                  ...
        13        2.0000           -0.7059613             -19.2102
        14        2.0000           -0.6975008             -18.9800
        15        2.0000           -0.6855806             -18.6556
        16        2.0000           -0.6735327             -18.3278
        17        2.0000           -0.6601091             -17.9625
        18        2.0000           -0.6443447             -17.5335
        19        2.0000           -0.6375301             -17.3481
        20        2.0000           -0.6347442             -17.2723
        21        2.0000           -0.6328107             -17.2197
        22        2.0000           -0.6274381             -17.0735
        23        2.0000           -0.6165310             -16.7767
        24        2.0000           -0.5998465             -16.3227
        25        2.0000           -0.5826734             -15.8554 (HOMO)
        26                         -0.4712529             -12.8234 (LUMO)
        27                         -0.4347645             -11.8305
        28                         -0.3789068             -10.3106
        29                         -0.3641615              -9.9093
        30                         -0.3182116              -8.6590
        31                         -0.1790927              -4.8734
        32                         -0.0884210              -2.4061
        33                         -0.0679589              -1.8493
        34                         -0.0573998              -1.5619
        35                         -0.0442856              -1.2051
        36                         -0.0286321              -0.7791
       ...                                ...                  ...
        49                          0.9904067              26.9503
      -------------------------------------------------------------
                  HL-Gap            0.1114205 Eh            3.0319 eV

     #   Z          covCN         q      C6AA      α(0)
     1   6 C        1.897     0.110    28.401     8.607
     2   7 N        0.911    -0.131    23.852     7.064
     3   6 C        3.761    -0.022    21.007     6.534
     4   7 N        2.754     0.108    19.379     6.538
     5   6 C        2.892     0.018    27.598     8.613
     6   6 C        2.961     0.054    26.789     8.490
     7   6 C        2.930     0.002    27.990     8.676
     8   6 C        2.912    -0.010    28.265     8.718
     9   6 C        2.890     0.029    27.356     8.575
    10   6 C        3.759    -0.136    23.158     6.861
    11   1 H        0.924     0.129     1.547     1.945
    12   1 H        0.924     0.124     1.585     1.969
    13   1 H        0.926     0.105     1.740     2.063
    14   1 H        0.926     0.109     1.702     2.040
    15   1 H        0.926     0.113     1.674     2.023
    16   1 H        0.926     0.111     1.688     2.032
    17   1 H        0.925     0.103     1.760     2.075
    18   1 H        0.925     0.103     1.758     2.073
    19   1 H        0.925     0.082     1.960     2.189

Wiberg/Mayer (AO) data.
largest (>0.10) Wiberg bond orders for each atom

     #   Z sym  total        # sym  WBO       # sym  WBO       # sym  WBO
 ---------------------------------------------------------------------------
     1   6 C    3.956 --     2 N    2.900     3 C    1.017
     2   7 N    3.045 --     1 C    2.900
     3   6 C    3.947 --     1 C    1.017     4 N    0.960    12 H    0.939
                            11 H    0.927
     4   7 N    3.760 --     5 C    1.320     9 C    1.319     3 C    0.960
     5   6 C    3.956 --     6 C    1.412     4 N    1.320    13 H    0.953
     6   6 C    3.978 --     5 C    1.412     7 C    1.368    10 C    1.049
     7   6 C    3.970 --     8 C    1.442     6 C    1.368    14 H    0.960
     8   6 C    3.980 --     9 C    1.449     7 C    1.442    15 H    0.957
     9   6 C    3.956 --     8 C    1.449     4 N    1.319    16 H    0.955
    10   6 C    3.980 --     6 C    1.049    19 H    0.980    17 H    0.949
                            18 H    0.947
    11   1 H    0.983 --     3 C    0.927
    12   1 H    0.984 --     3 C    0.939
    13   1 H    0.989 --     5 C    0.953
    14   1 H    0.988 --     7 C    0.960
    15   1 H    0.987 --     8 C    0.957
    16   1 H    0.987 --     9 C    0.955
    17   1 H    0.989 --    10 C    0.949
    18   1 H    0.989 --    10 C    0.947
    19   1 H    0.993 --    10 C    0.980
 ---------------------------------------------------------------------------

molecular dipole:
                 x           y           z       tot (Debye)
 q only:        7.479      -3.761       1.039
   full:        7.877      -3.704       0.820      22.223

           -------------------------------------------------
          | TOTAL ENERGY              -27.100446005741 Eh   |
          | GRADIENT NORM               0.000510470769 Eh/α |
          | HOMO-LUMO GAP               3.031906949636 eV   |
           -------------------------------------------------

 * finished run on 2024/12/20 at 02:15:05.162
