   * xtb version 6.7.1 (edcfbbe) compiled by 'conda@3ef47c1a292c' on 2024-11-25

   ID    Z sym.   atoms
    1    6 C      1, 3, 4, 6-13
    2    7 N      2, 5
    3    1 H      14-26

          program call               : xtb C0321.xyz --opt --namespace C0321 --charge +1
          :  Hamiltonian                  GFN2-xTB          :
 * total energy  :   -35.6404372 Eh     change       -0.5310739E-09 Eh
 * total energy  :   -35.6441844 Eh     change       -0.3747235E-02 Eh
 * total energy  :   -35.6448311 Eh     change       -0.6467013E-03 Eh
 * total energy  :   -35.6449425 Eh     change       -0.1114349E-03 Eh
 * total energy  :   -35.6449865 Eh     change       -0.4399883E-04 Eh
 * total energy  :   -35.6449937 Eh     change       -0.7188488E-05 Eh
 * total energy  :   -35.6450008 Eh     change       -0.7092683E-05 Eh
 * total energy  :   -35.6450126 Eh     change       -0.1178943E-04 Eh
 * total energy  :   -35.6450332 Eh     change       -0.2057383E-04 Eh
 * total energy  :   -35.6450557 Eh     change       -0.2250256E-04 Eh
 * total energy  :   -35.6450704 Eh     change       -0.1476768E-04 Eh
 * total energy  :   -35.6450898 Eh     change       -0.1936938E-04 Eh
 * total energy  :   -35.6451024 Eh     change       -0.1260044E-04 Eh
 * total energy  :   -35.6450824 Eh     change        0.2004939E-04 Eh
 * total energy  :   -35.6451091 Eh     change       -0.2678344E-04 Eh
 * total energy  :   -35.6451095 Eh     change       -0.3575940E-06 Eh
 * total energy  :   -35.6451176 Eh     change       -0.8102935E-05 Eh
 * total energy  :   -35.6451217 Eh     change       -0.4110437E-05 Eh
   *** GEOMETRY OPTIMIZATION CONVERGED AFTER 18 ITERATIONS ***

 final structure:
================
26
 xtb: 6.7.1 (edcfbbe)
C            0.94072018732272        0.35243336412253        0.04858628604622
N            0.46606668275570        0.74916128869745        1.34686694088550
C            0.17159154178499        2.02314908584118        1.72511167656206
C           -0.21815614346644        1.97782011807632        3.02965609028825
N           -0.14870617467782        0.67976251950429        3.42940628901798
C            0.26332505392887       -0.04613008902499        2.39416624267757
C           -0.56768938593036        0.16402014184350        4.71946948679428
C           -2.02364443549117       -0.24492943836368        4.65137163869914
C           -3.02236892050662        0.70263297783641        4.83408283661737
C           -4.35338489177409        0.33612712958022        4.73908534244530
C           -4.69300072702479       -0.97665292562633        4.45712477409443
C           -3.70001349058641       -1.92443580490691        4.27461758098931
C           -2.36800550674940       -1.55951249240410        4.36658172371532
H            0.34479232119628        0.83295696753888       -0.72666139751948
H            0.86684256518733       -0.72726636224383       -0.06058558329764
H            1.98259371408821        0.65131273366012       -0.08039886594994
H            0.25680354722208        2.85711711152634        1.05879933985051
H           -0.52726339740625        2.76843114647467        3.68205898730275
H            0.41023066160270       -1.10856806917575        2.40327082704045
H            0.05873664281299       -0.69291756779578        4.97400671263801
H           -0.42291338103651        0.94901936430015        5.46369254542703
H           -2.76283754629876        1.72542537149891        5.06541664366943
H           -5.12422652598328        1.07538710986256        4.88961218635475
H           -5.73059668387051       -1.26211907104324        4.38603489003557
H           -3.96090307635729       -2.94965675184895        4.06363398714908
H           -1.59696263074264       -2.30497785792949        4.23505281846654

          :  Hamiltonian                  GFN2-xTB          :
         :: total energy             -35.645121720134 Eh    ::
         :: gradient norm              0.000239291913 Eh/a0 ::
         :: HOMO-LUMO gap              3.119874633527 eV    ::
         :: SCC energy               -36.262959440349 Eh    ::
         :: -> dispersion             -0.021935087017 Eh    ::
         :: repulsion energy           0.617837720215 Eh    ::

    * Orbital Energies and Occupations

         #    Occupation            Energy/Eh            Energy/eV
      -------------------------------------------------------------
         1        2.0000           -0.8962587             -24.3884
       ...           ...                  ...                  ...
        21        2.0000           -0.6403349             -17.4244
        22        2.0000           -0.6365366             -17.3210
        23        2.0000           -0.6245637             -16.9952
        24        2.0000           -0.6064171             -16.5015
        25        2.0000           -0.6006844             -16.3455
        26        2.0000           -0.5939839             -16.1631
        27        2.0000           -0.5925714             -16.1247
        28        2.0000           -0.5912486             -16.0887
        29        2.0000           -0.5868087             -15.9679
        30        2.0000           -0.5410379             -14.7224
        31        2.0000           -0.5368703             -14.6090
        32        2.0000           -0.5220028             -14.2044
        33        2.0000           -0.5214405             -14.1891 (HOMO)
        34                         -0.4067872             -11.0692 (LUMO)
        35                         -0.3712119             -10.1012
        36                         -0.3455258              -9.4022
        37                         -0.3395465              -9.2395
        38                         -0.2178372              -5.9277
        39                         -0.1741946              -4.7401
        40                         -0.1229428              -3.3454
        41                         -0.0549356              -1.4949
        42                         -0.0455775              -1.2402
        43                         -0.0404321              -1.1002
        44                         -0.0185207              -0.5040
       ...                                ...                  ...
        65                          0.5471475              14.8886
      -------------------------------------------------------------
                  HL-Gap            0.1146533 Eh            3.1199 eV

     #   Z          covCN         q      C6AA      α(0)
     1   6 C        3.692    -0.086    22.339     6.763
     2   7 N        2.867     0.077    19.901     6.626
     3   6 C        3.074    -0.009    28.169     8.702
     4   6 C        3.075    -0.004    28.050     8.683
     5   7 N        2.871     0.069    20.032     6.647
     6   6 C        3.102     0.045    26.862     8.493
     7   6 C        3.747    -0.030    21.174     6.563
     8   6 C        2.973    -0.003    28.102     8.696
     9   6 C        2.923    -0.036    28.889     8.814
    10   6 C        2.919    -0.022    28.544     8.761
    11   6 C        2.920    -0.019    28.494     8.754
    12   6 C        2.919    -0.022    28.551     8.762
    13   6 C        2.923    -0.037    28.926     8.820
    14   1 H        0.925     0.108     1.718     2.050
    15   1 H        0.925     0.100     1.787     2.090
    16   1 H        0.924     0.107     1.721     2.052
    17   1 H        0.926     0.110     1.699     2.038
    18   1 H        0.926     0.109     1.706     2.042
    19   1 H        0.926     0.113     1.673     2.023
    20   1 H        0.924     0.086     1.919     2.166
    21   1 H        0.924     0.092     1.858     2.132
    22   1 H        0.926     0.040     2.446     2.446
    23   1 H        0.926     0.058     2.224     2.332
    24   1 H        0.926     0.061     2.192     2.315
    25   1 H        0.926     0.057     2.231     2.336
    26   1 H        0.926     0.038     2.482     2.463

Wiberg/Mayer (AO) data.
largest (>0.10) Wiberg bond orders for each atom

     #   Z sym  total        # sym  WBO       # sym  WBO       # sym  WBO
 ---------------------------------------------------------------------------
     1   6 C    3.933 --     2 N    0.990    15 H    0.975    14 H    0.966
                            16 H    0.959
     2   7 N    3.721 --     6 C    1.358     3 C    1.229     1 C    0.990
     3   6 C    3.948 --     4 C    1.587     2 N    1.229    17 H    0.961
     4   6 C    3.949 --     3 C    1.587     5 N    1.233    18 H    0.961
     5   7 N    3.719 --     6 C    1.363     4 C    1.233     7 C    0.955
     6   6 C    3.945 --     5 N    1.363     2 N    1.358    19 H    0.954
     7   6 C    3.932 --     8 C    0.975    20 H    0.963    21 H    0.962
                             5 N    0.955
     8   6 C    3.976 --    13 C    1.415     9 C    1.414     7 C    0.975
                            11 C    0.109
     9   6 C    3.991 --    10 C    1.444     8 C    1.414    22 H    0.968
                            12 C    0.111
    10   6 C    3.990 --     9 C    1.444    11 C    1.438    23 H    0.969
                            13 C    0.111
    11   6 C    3.988 --    12 C    1.439    10 C    1.438    24 H    0.969
                             8 C    0.109
    12   6 C    3.990 --    13 C    1.442    11 C    1.439    25 H    0.969
                             9 C    0.111
    13   6 C    3.991 --    12 C    1.442     8 C    1.415    26 H    0.968
                            10 C    0.111
    14   1 H    0.988 --     1 C    0.966
    15   1 H    0.990 --     1 C    0.975
    16   1 H    0.988 --     1 C    0.959
    17   1 H    0.988 --     3 C    0.961
    18   1 H    0.988 --     4 C    0.961
    19   1 H    0.987 --     6 C    0.954
    20   1 H    0.992 --     7 C    0.963
    21   1 H    0.991 --     7 C    0.962
    22   1 H    0.998 --     9 C    0.968
    23   1 H    0.996 --    10 C    0.969
    24   1 H    0.996 --    11 C    0.969
    25   1 H    0.996 --    12 C    0.969
    26   1 H    0.999 --    13 C    0.968
 ---------------------------------------------------------------------------

molecular dipole:
                 x           y           z       tot (Debye)
 q only:       -0.532       1.006       4.559
   full:       -0.424       0.973       4.571      11.928

           -------------------------------------------------
          | TOTAL ENERGY              -35.645121720134 Eh   |
          | GRADIENT NORM               0.000239291913 Eh/α |
          | HOMO-LUMO GAP               3.119874633527 eV   |
           -------------------------------------------------

 * finished run on 2024/12/20 at 02:15:05.816
