   * xtb version 6.7.1 (edcfbbe) compiled by 'conda@3ef47c1a292c' on 2024-11-25

   ID    Z sym.   atoms
    1    6 C      1-10, 12-20
    2    7 N      11
    3    1 H      21-44

          program call               : xtb C0324.xyz --opt --namespace C0324 --charge +1
          :  Hamiltonian                  GFN2-xTB          :
 * total energy  :   -55.3990748 Eh     change       -0.3520618E-08 Eh
 * total energy  :   -55.4068047 Eh     change       -0.7729952E-02 Eh
 * total energy  :   -55.4088132 Eh     change       -0.2008444E-02 Eh
 * total energy  :   -55.4093404 Eh     change       -0.5272334E-03 Eh
 * total energy  :   -55.4100146 Eh     change       -0.6741800E-03 Eh
 * total energy  :   -55.4105039 Eh     change       -0.4893302E-03 Eh
 * total energy  :   -55.4111228 Eh     change       -0.6188657E-03 Eh
 * total energy  :   -55.4117129 Eh     change       -0.5901092E-03 Eh
 * total energy  :   -55.4120367 Eh     change       -0.3238198E-03 Eh
 * total energy  :   -55.4121555 Eh     change       -0.1187874E-03 Eh
 * total energy  :   -55.4151991 Eh     change       -0.4365703E-04 Eh
 * total energy  :   -55.4152528 Eh     change       -0.5373392E-04 Eh
 * total energy  :   -55.4152687 Eh     change       -0.1588507E-04 Eh
 * total energy  :   -55.4152870 Eh     change       -0.1822859E-04 Eh
 * total energy  :   -55.4152990 Eh     change       -0.1202518E-04 Eh
 * total energy  :   -55.4153056 Eh     change       -0.6638246E-05 Eh
 * total energy  :   -55.4153125 Eh     change       -0.6920579E-05 Eh
 * total energy  :   -55.4153208 Eh     change       -0.8234769E-05 Eh
 * total energy  :   -55.4153251 Eh     change       -0.4334140E-05 Eh
   *** GEOMETRY OPTIMIZATION CONVERGED AFTER 47 ITERATIONS ***

 final structure:
================
44
 xtb: 6.7.1 (edcfbbe)
C           -0.36988632107959        0.19934115993204       -0.64828682089086
C           -0.31936588738078       -0.04143113756791        0.86106021190926
C            0.37650578753163        1.07035661875825        1.56219094650167
C           -0.12328237967304        1.72868613851784        2.60993887623922
C            0.52040197839169        2.80654327981299        3.33482022659806
C           -0.02447051782848        3.23918429920810        4.54592851232103
C            0.55054019520877        4.25395738863443        5.28715253252740
C            1.69847109426117        4.88551023226120        4.82959593047457
C            2.24882808786889        4.47676001109045        3.61729871758816
C            1.67275500784020        3.45962179914913        2.88729251635678
N            2.35992820054629        5.97891295001004        5.58699942423532
C            3.74678129416895        5.51408528554615        5.95221966634497
C            4.55574801484124        6.51928593148731        6.72808448436102
C            4.57053428926165        6.49266441270986        8.11931779810637
C            5.33214300830255        7.40356990032592        8.83004439581546
C            6.08887147381586        8.34978507198547        8.15931125717264
C            6.09302745975173        8.37344855034549        6.77474287074731
C            5.33444347191698        7.46130833949768        6.06239985739189
C            1.63812482341560        6.33109544969026        6.82215515552650
C            2.40878524495186        7.18807200955195        4.74069872676678
H           -0.92038727000766        1.11080447882591       -0.86944044009306
H           -0.86588297089330       -0.63114218088064       -1.14248744544679
H            0.63353513351535        0.29243065551587       -1.05729974680301
H           -1.32909572199956       -0.16563306222854        1.25513019687181
H            0.23275085053536       -0.96795567624843        1.04798341349305
H            1.35047806477049        1.32004499282015        1.16297494398068
H           -1.09077163524325        1.43391836453141        2.99576017994867
H           -0.91817620569562        2.76597104191274        4.92256128342563
H            0.07461466008004        4.52612763882351        6.21340759161293
H            3.13563266900021        4.94359273443341        3.21703281576585
H            2.12343218375166        3.17787743197823        1.95007496599259
H            3.62541634014590        4.59765483651241        6.53468515169312
H            4.26890630269913        5.26438929481292        5.02828905166470
H            4.00078606228047        5.74537602346163        8.65222636842925
H            5.33948268166932        7.36798406836239        9.90792546144553
H            6.68503661532493        9.05705546581071        8.71362347700341
H            6.69442586797707        9.09642210635994        6.24635289671448
H            5.36727259119679        7.47319977997924        4.98244729814527
H            2.16686130652414        7.13949774822642        7.32479288808822
H            0.62985871805796        6.66519813799622        6.58586268483238
H            1.59427479052419        5.47606407856367        7.49346602004990
H            2.98519446163397        7.00589993183219        3.83787168329216
H            1.39615063274316        7.46738889691636        4.45376073433300
H            2.86663954524300        8.00748552078814        5.29226323943412

          :  Hamiltonian                  GFN2-xTB          :
         :: total energy             -55.415325106573 Eh    ::
         :: gradient norm              0.000461481197 Eh/a0 ::
         :: HOMO-LUMO gap              3.067684764210 eV    ::
         :: SCC energy               -56.398139240583 Eh    ::
         :: -> dispersion             -0.042368532902 Eh    ::
         :: repulsion energy           0.982814134010 Eh    ::

    * Orbital Energies and Occupations

         #    Occupation            Energy/Eh            Energy/eV
      -------------------------------------------------------------
         1        2.0000           -0.8444781             -22.9794
       ...           ...                  ...                  ...
        40        2.0000           -0.5691501             -15.4874
        41        2.0000           -0.5546613             -15.0931
        42        2.0000           -0.5521944             -15.0260
        43        2.0000           -0.5429836             -14.7753
        44        2.0000           -0.5401068             -14.6971
        45        2.0000           -0.5375867             -14.6285
        46        2.0000           -0.5366051             -14.6018
        47        2.0000           -0.5342348             -14.5373
        48        2.0000           -0.5232577             -14.2386
        49        2.0000           -0.5226841             -14.2230
        50        2.0000           -0.5170262             -14.0690
        51        2.0000           -0.5147225             -14.0063
        52        2.0000           -0.4856299             -13.2147 (HOMO)
        53                         -0.3728946             -10.1470 (LUMO)
        54                         -0.3530411              -9.6067
        55                         -0.3505496              -9.5389
        56                         -0.3409701              -9.2783
        57                         -0.2907967              -7.9130
        58                         -0.2279675              -6.2033
        59                         -0.2045104              -5.5650
        60                         -0.1953714              -5.3163
        61                         -0.1380290              -3.7560
        62                         -0.1218306              -3.3152
        63                         -0.1123254              -3.0565
       ...                                ...                  ...
       104                          0.5709113              15.5353
      -------------------------------------------------------------
                  HL-Gap            0.1127353 Eh            3.0677 eV

     #   Z          covCN         q      C6AA      α(0)
     1   6 C        3.754    -0.104    22.548     6.771
     2   6 C        3.805    -0.057    21.591     6.615
     3   6 C        2.893    -0.014    28.352     8.730
     4   6 C        2.900    -0.053    29.321     8.878
     5   6 C        2.968     0.032    27.279     8.567
     6   6 C        2.931    -0.031    28.764     8.796
     7   6 C        2.917    -0.043    29.075     8.842
     8   6 C        2.931     0.018    27.606     8.617
     9   6 C        2.919    -0.042    29.033     8.836
    10   6 C        2.925    -0.030    28.742     8.792
    11   7 N        3.623     0.121    19.161     6.501
    12   6 C        3.766    -0.034    21.219     6.565
    13   6 C        2.967    -0.007    28.197     8.710
    14   6 C        2.923    -0.038    28.944     8.823
    15   6 C        2.919    -0.022    28.566     8.765
    16   6 C        2.920    -0.019    28.477     8.751
    17   6 C        2.919    -0.023    28.574     8.766
    18   6 C        2.923    -0.039    28.958     8.825
    19   6 C        3.721    -0.084    22.226     6.733
    20   6 C        3.723    -0.083    22.191     6.727
    21   1 H        0.925     0.042     2.422     2.434
    22   1 H        0.925     0.051     2.306     2.374
    23   1 H        0.925     0.044     2.400     2.422
    24   1 H        0.924     0.049     2.338     2.391
    25   1 H        0.924     0.061     2.182     2.310
    26   1 H        0.925     0.049     2.337     2.390
    27   1 H        0.925     0.051     2.310     2.377
    28   1 H        0.926     0.064     2.157     2.297
    29   1 H        0.926     0.055     2.255     2.349
    30   1 H        0.926     0.044     2.391     2.418
    31   1 H        0.926     0.063     2.162     2.299
    32   1 H        0.924     0.079     1.988     2.205
    33   1 H        0.924     0.083     1.945     2.181
    34   1 H        0.926     0.041     2.441     2.443
    35   1 H        0.926     0.057     2.229     2.335
    36   1 H        0.926     0.060     2.194     2.317
    37   1 H        0.926     0.057     2.235     2.338
    38   1 H        0.926     0.039     2.457     2.451
    39   1 H        0.925     0.095     1.833     2.117
    40   1 H        0.925     0.093     1.849     2.127
    41   1 H        0.925     0.093     1.846     2.125
    42   1 H        0.925     0.094     1.845     2.124
    43   1 H        0.925     0.091     1.872     2.140
    44   1 H        0.925     0.094     1.840     2.121

Wiberg/Mayer (AO) data.
largest (>0.10) Wiberg bond orders for each atom

     #   Z sym  total        # sym  WBO       # sym  WBO       # sym  WBO
 ---------------------------------------------------------------------------
     1   6 C    3.989 --     2 C    0.998    21 H    0.988    23 H    0.987
                            22 H    0.985
     2   6 C    3.994 --     3 C    1.045     1 C    0.998    24 H    0.974
                            25 H    0.946
     3   6 C    3.983 --     4 C    1.811     2 C    1.045    26 H    0.960
     4   6 C    3.986 --     3 C    1.811     5 C    1.115    27 H    0.960
     5   6 C    3.984 --     6 C    1.365    10 C    1.350     4 C    1.115
     6   6 C    3.983 --     7 C    1.453     5 C    1.365    28 H    0.966
     7   6 C    3.987 --     6 C    1.453     8 C    1.408    29 H    0.962
     8   6 C    3.909 --     7 C    1.408     9 C    1.386    11 N    0.906
     9   6 C    3.989 --    10 C    1.476     8 C    1.386    30 H    0.960
    10   6 C    3.989 --     9 C    1.476     5 C    1.350    31 H    0.963
    11   7 N    3.803 --    19 C    0.964    20 C    0.957    12 C    0.906
                             8 C    0.906
    12   6 C    3.931 --    13 C    1.005    32 H    0.967    33 H    0.962
                            11 N    0.906
    13   6 C    3.979 --    18 C    1.408    14 C    1.407    12 C    1.005
                            16 C    0.109
    14   6 C    3.990 --    15 C    1.445    13 C    1.407    34 H    0.968
                            17 C    0.109
    15   6 C    3.990 --    14 C    1.445    16 C    1.438    35 H    0.969
                            18 C    0.110
    16   6 C    3.988 --    15 C    1.438    17 C    1.438    36 H    0.969
                            13 C    0.109
    17   6 C    3.990 --    18 C    1.445    16 C    1.438    37 H    0.969
                            14 C    0.109
    18   6 C    3.991 --    17 C    1.445    13 C    1.408    38 H    0.968
                            15 C    0.110
    19   6 C    3.934 --    40 H    0.975    41 H    0.974    39 H    0.970
                            11 N    0.964
    20   6 C    3.932 --    43 H    0.977    42 H    0.973    44 H    0.972
                            11 N    0.957
    21   1 H    0.998 --     1 C    0.988
    22   1 H    0.996 --     1 C    0.985
    23   1 H    0.998 --     1 C    0.987
    24   1 H    0.998 --     2 C    0.974
    25   1 H    0.991 --     2 C    0.946
    26   1 H    0.998 --     3 C    0.960
    27   1 H    0.997 --     4 C    0.960
    28   1 H    0.995 --     6 C    0.966
    29   1 H    0.997 --     7 C    0.962
    30   1 H    0.998 --     9 C    0.960
    31   1 H    0.996 --    10 C    0.963
    32   1 H    0.993 --    12 C    0.967
    33   1 H    0.993 --    12 C    0.962
    34   1 H    0.998 --    14 C    0.968
    35   1 H    0.996 --    15 C    0.969
    36   1 H    0.996 --    16 C    0.969
    37   1 H    0.996 --    17 C    0.969
    38   1 H    0.998 --    18 C    0.968
    39   1 H    0.990 --    19 C    0.970
    40   1 H    0.991 --    19 C    0.975
    41   1 H    0.991 --    19 C    0.974
    42   1 H    0.991 --    20 C    0.973
    43   1 H    0.992 --    20 C    0.977
    44   1 H    0.990 --    20 C    0.972
 ---------------------------------------------------------------------------

molecular dipole:
                 x           y           z       tot (Debye)
 q only:        4.341      10.308       9.791
   full:        4.407      10.331       9.831      37.940

           -------------------------------------------------
          | TOTAL ENERGY              -55.415325106573 Eh   |
          | GRADIENT NORM               0.000461481197 Eh/α |
          | HOMO-LUMO GAP               3.067684764210 eV   |
           -------------------------------------------------

 * finished run on 2024/12/20 at 02:15:11.597
