   * xtb version 6.7.1 (edcfbbe) compiled by 'conda@3ef47c1a292c' on 2024-11-25

   ID    Z sym.   atoms
    1    8 O      1, 14
    2    6 C      2, 4, 6-13, 15-20
    3    7 N      3, 5
    4   35 Br     21
    5    1 H      22-35

          program call               : xtb C0322.xyz --opt --namespace C0322 --charge +1
          :  Hamiltonian                  GFN2-xTB          :
 * total energy  :   -59.0625255 Eh     change       -0.3721318E-08 Eh
 * total energy  :   -59.0698423 Eh     change       -0.7316838E-02 Eh
 * total energy  :   -59.0718911 Eh     change       -0.2048747E-02 Eh
 * total energy  :   -59.0722116 Eh     change       -0.3205866E-03 Eh
 * total energy  :   -59.0723971 Eh     change       -0.1854775E-03 Eh
 * total energy  :   -59.0725349 Eh     change       -0.1377835E-03 Eh
 * total energy  :   -59.0727488 Eh     change       -0.2138787E-03 Eh
 * total energy  :   -59.0729956 Eh     change       -0.2467969E-03 Eh
 * total energy  :   -59.0732550 Eh     change       -0.2593876E-03 Eh
 * total energy  :   -59.0735200 Eh     change       -0.2650140E-03 Eh
 * total energy  :   -59.0785762 Eh     change       -0.1274900E-04 Eh
 * total energy  :   -59.0785791 Eh     change       -0.2912735E-05 Eh
 * total energy  :   -59.0785867 Eh     change       -0.7596023E-05 Eh
 * total energy  :   -59.0785935 Eh     change       -0.6819765E-05 Eh
 * total energy  :   -59.0786021 Eh     change       -0.8631152E-05 Eh
 * total energy  :   -59.0786114 Eh     change       -0.9324240E-05 Eh
 * total energy  :   -59.0786192 Eh     change       -0.7785995E-05 Eh
 * total energy  :   -59.0786245 Eh     change       -0.5273196E-05 Eh
 * total energy  :   -59.0786290 Eh     change       -0.4462760E-05 Eh
   *** GEOMETRY OPTIMIZATION CONVERGED AFTER 60 ITERATIONS ***

 final structure:
================
35
 xtb: 6.7.1 (edcfbbe)
O            2.57798446320217       -0.74714053866321        0.13897113446020
C            1.55707647502130        0.10697582039685        0.49973097603556
N            1.49371181844035        0.26626894910662        1.95335185363691
C            1.03302949249282       -0.66116998966449        2.79041701303671
N            1.18659397978153       -0.28721478035847        4.05613988952731
C            1.74875554406605        0.97720467752505        4.05920065543659
C            1.96400178234912        1.32347396118271        2.71093405550554
C            2.54265595938932        2.53762288218909        2.36349449958961
C            2.89220314762221        3.38417787157478        3.39602707007148
C            2.67600065906389        3.04152710641541        4.73276841528371
C            2.10417516845358        1.83716000721806        5.08990163926392
C            0.56721999244412       -0.96562770063026        5.15532852702752
C           -0.95899779740060       -1.04527314693347        4.86362144118313
O           -1.34360366233724       -0.73958689221656        3.75748447142203
C           -1.82229646583928       -1.50992341687990        5.94256886043743
C           -1.34430827122530       -1.97552119867858        7.17408363575615
C           -2.22359104306875       -2.41935550201885        8.13768341818286
C           -3.59316678234131       -2.40044281339001        7.88806267306139
C           -4.08762099362561       -1.94110041327506        6.67194697373050
C           -3.20565371067721       -1.50358508329066        5.70951685539715
Br          -4.78979395639741       -3.00938651467606        9.21963949470532
H            3.43683914987714       -0.30634177225497        0.12320246320966
H            1.64277168584764        1.10640433922498        0.05892995291969
H            0.62186917853503       -0.35932516108190        0.17277641573980
H            0.63547210621650       -1.60474062651489        2.46780699157075
H            2.71418690123504        2.81485790669074        1.33624338432840
H            3.34440741458723        4.33575072071287        3.16693313625192
H            2.96451247338446        3.73740431200793        5.50408767759799
H            1.94498859371863        1.58512271581959        6.12565159636690
H            0.95286507525748       -1.98523758830498        5.24587575632155
H            0.76035824152571       -0.41749154547498        6.07631070748076
H           -0.28748234500650       -2.00963785871545        7.38664622335518
H           -1.85749738543643       -2.78351261874851        9.08478056537639
H           -5.15052607251338       -1.93260228333843        6.48860030855157
H           -3.56699081664176       -1.14548382495495        4.75753126817924

          :  Hamiltonian                  GFN2-xTB          :
         :: total energy             -59.078628970318 Eh    ::
         :: gradient norm              0.000513025621 Eh/a0 ::
         :: HOMO-LUMO gap              2.255199587123 eV    ::
         :: SCC energy               -59.929870605298 Eh    ::
         :: -> dispersion             -0.037587712037 Eh    ::
         :: repulsion energy           0.851241634980 Eh    ::

    * Orbital Energies and Occupations

         #    Occupation            Energy/Eh            Energy/eV
      -------------------------------------------------------------
         1        2.0000           -0.9280658             -25.2540
       ...           ...                  ...                  ...
        41        2.0000           -0.6037092             -16.4278
        42        2.0000           -0.5856650             -15.9368
        43        2.0000           -0.5828462             -15.8601
        44        2.0000           -0.5732101             -15.5978
        45        2.0000           -0.5701699             -15.5151
        46        2.0000           -0.5574315             -15.1685
        47        2.0000           -0.5558535             -15.1255
        48        2.0000           -0.5533229             -15.0567
        49        2.0000           -0.5509196             -14.9913
        50        2.0000           -0.5399299             -14.6922
        51        2.0000           -0.5370484             -14.6138
        52        2.0000           -0.5048002             -13.7363
        53        2.0000           -0.5017785             -13.6541 (HOMO)
        54                         -0.4189015             -11.3989 (LUMO)
        55                         -0.4138295             -11.2609
        56                         -0.3663273              -9.9683
        57                         -0.3586692              -9.7599
        58                         -0.3558669              -9.6836
        59                         -0.3292441              -8.9592
        60                         -0.2967892              -8.0760
        61                         -0.2409435              -6.5564
        62                         -0.2224844              -6.0541
        63                         -0.1805774              -4.9138
        64                         -0.1389060              -3.7798
       ...                                ...                  ...
       103                          0.5411582              14.7257
      -------------------------------------------------------------
                  HL-Gap            0.0828771 Eh            2.2552 eV

     #   Z          covCN         q      C6AA      α(0)
     1   8 O        1.657    -0.400    20.855     6.165
     2   6 C        3.614     0.125    19.002     6.291
     3   7 N        2.823     0.000    21.260     6.848
     4   6 C        3.064     0.089    25.953     8.354
     5   7 N        2.829     0.044    20.466     6.719
     6   6 C        3.112     0.041    26.937     8.502
     7   6 C        3.109     0.045    26.855     8.490
     8   6 C        2.909    -0.034    28.835     8.805
     9   6 C        2.925    -0.017    28.436     8.745
    10   6 C        2.925    -0.018    28.450     8.747
    11   6 C        2.909    -0.031    28.783     8.797
    12   6 C        3.744    -0.046    21.461     6.609
    13   6 C        2.823     0.227    23.240     7.899
    14   8 O        0.857    -0.353    20.772     6.111
    15   6 C        2.969    -0.018    28.459     8.750
    16   6 C        2.920    -0.026    28.646     8.777
    17   6 C        2.992    -0.028    28.682     8.785
    18   6 C        2.915     0.102    25.736     8.319
    19   6 C        2.988    -0.026    28.646     8.780
    20   6 C        2.928    -0.009    28.233     8.714
    21  35 Br       1.072    -0.089   187.476    22.077
    22   1 H        0.805     0.320     0.665     1.281
    23   1 H        0.924     0.072     2.063     2.246
    24   1 H        0.924     0.100     1.782     2.087
    25   1 H        0.926     0.123     1.585     1.969
    26   1 H        0.926     0.069     2.095     2.263
    27   1 H        0.926     0.082     1.956     2.187
    28   1 H        0.926     0.082     1.962     2.191
    29   1 H        0.926     0.067     2.116     2.275
    30   1 H        0.924     0.100     1.785     2.089
    31   1 H        0.925     0.101     1.780     2.086
    32   1 H        0.926     0.054     2.266     2.354
    33   1 H        0.926     0.081     1.971     2.196
    34   1 H        0.926     0.084     1.933     2.174
    35   1 H        0.926     0.085     1.923     2.169

Wiberg/Mayer (AO) data.
largest (>0.10) Wiberg bond orders for each atom

     #   Z sym  total        # sym  WBO       # sym  WBO       # sym  WBO
 ---------------------------------------------------------------------------
     1   8 O    2.015 --     2 C    1.044    22 H    0.883
     2   6 C    3.929 --     1 O    1.044    23 H    0.960    24 H    0.955
                             3 N    0.936
     3   7 N    3.654 --     4 C    1.357     7 C    1.119     2 C    0.936
     4   6 C    3.950 --     5 N    1.366     3 N    1.357    25 H    0.950
     5   7 N    3.678 --     4 C    1.366     6 C    1.112    12 C    0.997
     6   6 C    3.951 --    11 C    1.347     7 C    1.276     5 N    1.112
     7   6 C    3.952 --     8 C    1.345     6 C    1.276     3 N    1.119
     8   6 C    3.986 --     9 C    1.489     7 C    1.345    26 H    0.963
                            11 C    0.118
     9   6 C    3.985 --     8 C    1.489    10 C    1.383    27 H    0.966
    10   6 C    3.983 --    11 C    1.488     9 C    1.383    28 H    0.966
    11   6 C    3.986 --    10 C    1.488     6 C    1.347    29 H    0.962
                             8 C    0.118
    12   6 C    3.950 --     5 N    0.997    31 H    0.954    30 H    0.942
                            13 C    0.923
    13   6 C    3.918 --    14 O    1.799    15 C    1.084    12 C    0.923
    14   8 O    2.098 --    13 C    1.799
    15   6 C    3.982 --    16 C    1.346    20 C    1.341    13 C    1.084
    16   6 C    3.990 --    17 C    1.484    15 C    1.346    32 H    0.964
    17   6 C    3.987 --    16 C    1.484    18 C    1.373    33 H    0.964
    18   6 C    3.950 --    19 C    1.382    17 C    1.373    21 Br   1.043
    19   6 C    3.986 --    20 C    1.476    18 C    1.382    34 H    0.963
    20   6 C    3.983 --    19 C    1.476    15 C    1.341    35 H    0.961
    21  35 Br   1.202 --    18 C    1.043
    22   1 H    0.898 --     1 O    0.883
    23   1 H    0.994 --     2 C    0.960
    24   1 H    0.989 --     2 C    0.955
    25   1 H    0.984 --     4 C    0.950
    26   1 H    0.995 --     8 C    0.963
    27   1 H    0.993 --     9 C    0.966
    28   1 H    0.993 --    10 C    0.966
    29   1 H    0.995 --    11 C    0.962
    30   1 H    0.988 --    12 C    0.942
    31   1 H    0.989 --    12 C    0.954
    32   1 H    0.997 --    16 C    0.964
    33   1 H    0.993 --    17 C    0.964
    34   1 H    0.992 --    19 C    0.963
    35   1 H    0.993 --    20 C    0.961
 ---------------------------------------------------------------------------

molecular dipole:
                 x           y           z       tot (Debye)
 q only:        2.329       0.492       7.428
   full:        2.553       0.542       7.386      19.911

           -------------------------------------------------
          | TOTAL ENERGY              -59.078628970318 Eh   |
          | GRADIENT NORM               0.000513025621 Eh/α |
          | HOMO-LUMO GAP               2.255199587123 eV   |
           -------------------------------------------------

 * finished run on 2024/12/20 at 02:15:07.894
