   * xtb version 6.7.1 (edcfbbe) compiled by 'conda@3ef47c1a292c' on 2024-11-25

   ID    Z sym.   atoms
    1    6 C      1, 2, 4-14
    2    7 N      3
    3    1 H      15-44

          program call               : xtb C0323.xyz --opt --namespace C0323 --charge +1
          :  Hamiltonian                  GFN2-xTB          :
 * total energy  :   -45.6711896 Eh     change       -0.1348042E-09 Eh
 * total energy  :   -45.6779247 Eh     change       -0.6735115E-02 Eh
 * total energy  :   -45.6795983 Eh     change       -0.1673660E-02 Eh
 * total energy  :   -45.6797106 Eh     change       -0.1122647E-03 Eh
 * total energy  :   -45.6797684 Eh     change       -0.5782040E-04 Eh
 * total energy  :   -45.6798207 Eh     change       -0.5224913E-04 Eh
 * total energy  :   -45.6798727 Eh     change       -0.5203459E-04 Eh
 * total energy  :   -45.6799713 Eh     change       -0.9863567E-04 Eh
 * total energy  :   -45.6800245 Eh     change       -0.5317223E-04 Eh
 * total energy  :   -45.6800843 Eh     change       -0.5979317E-04 Eh
 * total energy  :   -45.6817891 Eh     change       -0.1172470E-04 Eh
 * total energy  :   -45.6818038 Eh     change       -0.1470947E-04 Eh
 * total energy  :   -45.6818195 Eh     change       -0.1573000E-04 Eh
 * total energy  :   -45.6818287 Eh     change       -0.9151130E-05 Eh
 * total energy  :   -45.6818345 Eh     change       -0.5789996E-05 Eh
 * total energy  :   -45.6818397 Eh     change       -0.5254965E-05 Eh
 * total energy  :   -45.6818466 Eh     change       -0.6894274E-05 Eh
 * total energy  :   -45.6818541 Eh     change       -0.7473051E-05 Eh
 * total energy  :   -45.6818590 Eh     change       -0.4909531E-05 Eh
   *** GEOMETRY OPTIMIZATION CONVERGED AFTER 52 ITERATIONS ***

 final structure:
================
44
 xtb: 6.7.1 (edcfbbe)
C            0.52031453845408        0.32155081730614        0.04637604934369
C            0.65544416808480       -1.10565230660034       -0.46144175569519
N            1.13934448030551       -2.10880146748969        0.53837255422673
C            0.41536206045223       -1.98961312099272        1.84550609718091
C           -1.10779705625183       -2.16731530115248        1.80438294969548
C           -1.61117209468080       -3.51994880290709        2.33892310006296
C           -1.43860362323273       -3.61220140709715        3.85301023210887
C           -3.08511250463019       -3.68715561670062        1.97472080346683
C            0.93967018257133       -3.49308454043178        0.00561468394307
C            1.72908423678287       -3.86719540555605       -1.25591397620368
C            2.94859241576829       -4.77005527445389       -0.99699140228786
C            2.51359077496718       -6.18321938589999       -0.61676480478588
C            3.81902200185482       -4.81651476790161       -2.25105133027783
C            2.57099436863395       -1.88221393111877        0.81204537552355
H           -0.27001407039777        0.42361212227105        0.78360410580871
H            0.25703689889044        0.94986153946745       -0.80105911781275
H            1.44853656824210        0.70770378131871        0.45737332681892
H           -0.31093014533208       -1.44178430275264       -0.83885270227211
H            1.35549672380558       -1.11316836748583       -1.29711190628352
H            0.84222136457547       -2.73994409868202        2.51375850908476
H            0.66461712440095       -1.01129438609764        2.25558037570204
H           -1.56055280235019       -1.38730091039817        2.41903473805971
H           -1.49071312113354       -2.02359068414387        0.79473100135711
H           -1.04753752744164       -4.33520552897287        1.87259473004982
H           -2.01671400031055       -2.83542945404441        4.34728054164051
H           -1.79334426220734       -4.57493339297389        4.20958179676106
H           -0.39868432050389       -3.50784322354167        4.15479684555644
H           -3.22914736863798       -3.67629833688841        0.89632085393335
H           -3.46274644302999       -4.63118529550028        2.35606343880428
H           -3.67667028360588       -2.88515628385190        2.40902534983859
H            1.21485575176178       -4.18235235494793        0.80600842554128
H           -0.12762642092478       -3.60824942511834       -0.18139895772910
H            1.06081296399457       -4.40604029551281       -1.92950315782999
H            2.05449300654468       -2.97961983297445       -1.79726278742893
H            3.54768473481162       -4.35705146941133       -0.17849543240734
H            1.94413187434534       -6.63324240139859       -1.42588798910673
H            3.38535096372798       -6.80404449260479       -0.43202570957200
H            1.89954858257276       -6.19595693984567        0.28093653426586
H            4.18492067112021       -3.82651901670838       -2.51542818881994
H            4.67779234439750       -5.46121385058067       -2.08952801858477
H            3.25307890951374       -5.20989778198650       -3.09164630977067
H            3.15098087979017       -1.96139669458356       -0.10371643183662
H            2.72392816454109       -0.89299547591101        1.23710882069177
H            2.93477928975919       -2.62201263515291        1.52251873924629

          :  Hamiltonian                  GFN2-xTB          :
         :: total energy             -45.681858997837 Eh    ::
         :: gradient norm              0.000317916300 Eh/a0 ::
         :: HOMO-LUMO gap              8.466606211622 eV    ::
         :: SCC energy               -46.347549972386 Eh    ::
         :: -> dispersion             -0.034142588059 Eh    ::
         :: repulsion energy           0.665690974548 Eh    ::

    * Orbital Energies and Occupations

         #    Occupation            Energy/Eh            Energy/eV
      -------------------------------------------------------------
         1        2.0000           -0.8535336             -23.2258
       ...           ...                  ...                  ...
        31        2.0000           -0.5949503             -16.1894
        32        2.0000           -0.5934342             -16.1482
        33        2.0000           -0.5878288             -15.9956
        34        2.0000           -0.5743524             -15.6289
        35        2.0000           -0.5729445             -15.5906
        36        2.0000           -0.5613461             -15.2750
        37        2.0000           -0.5609303             -15.2637
        38        2.0000           -0.5508956             -14.9906
        39        2.0000           -0.5501438             -14.9702
        40        2.0000           -0.5476590             -14.9026
        41        2.0000           -0.5475234             -14.8989
        42        2.0000           -0.5411803             -14.7263
        43        2.0000           -0.5411426             -14.7252 (HOMO)
        44                         -0.2300006              -6.2586 (LUMO)
        45                         -0.1685466              -4.5864
        46                         -0.1593350              -4.3357
        47                         -0.1404646              -3.8222
        48                         -0.0779885              -2.1222
        49                         -0.0685759              -1.8660
        50                         -0.0598617              -1.6289
        51                         -0.0446101              -1.2139
        52                         -0.0394261              -1.0728
        53                         -0.0337764              -0.9191
        54                         -0.0254489              -0.6925
       ...                                ...                  ...
        86                          0.1914296               5.2091
      -------------------------------------------------------------
                  HL-Gap            0.3111421 Eh            8.4666 eV

     #   Z          covCN         q      C6AA      α(0)
     1   6 C        3.751    -0.128    23.019     6.842
     2   6 C        3.753    -0.029    21.147     6.557
     3   7 N        3.619     0.114    19.279     6.521
     4   6 C        3.762    -0.039    21.322     6.582
     5   6 C        3.804    -0.079    22.013     6.679
     6   6 C        3.848    -0.014    20.791     6.486
     7   6 C        3.756    -0.118    22.813     6.810
     8   6 C        3.757    -0.117    22.793     6.807
     9   6 C        3.758    -0.038    21.312     6.582
    10   6 C        3.804    -0.080    22.032     6.682
    11   6 C        3.848    -0.014    20.794     6.486
    12   6 C        3.756    -0.118    22.809     6.810
    13   6 C        3.757    -0.117    22.794     6.807
    14   6 C        3.721    -0.088    22.308     6.746
    15   1 H        0.925     0.069     2.093     2.262
    16   1 H        0.925     0.083     1.947     2.182
    17   1 H        0.925     0.063     2.168     2.303
    18   1 H        0.924     0.083     1.949     2.183
    19   1 H        0.925     0.083     1.948     2.182
    20   1 H        0.924     0.083     1.950     2.184
    21   1 H        0.925     0.085     1.932     2.174
    22   1 H        0.924     0.069     2.097     2.264
    23   1 H        0.925     0.054     2.275     2.359
    24   1 H        0.924     0.029     2.606     2.524
    25   1 H        0.925     0.050     2.314     2.379
    26   1 H        0.925     0.056     2.241     2.341
    27   1 H        0.925     0.031     2.567     2.506
    28   1 H        0.925     0.037     2.494     2.470
    29   1 H        0.925     0.057     2.235     2.338
    30   1 H        0.925     0.050     2.324     2.384
    31   1 H        0.924     0.086     1.921     2.167
    32   1 H        0.925     0.084     1.942     2.179
    33   1 H        0.924     0.071     2.079     2.255
    34   1 H        0.925     0.050     2.314     2.379
    35   1 H        0.924     0.030     2.587     2.515
    36   1 H        0.925     0.050     2.314     2.379
    37   1 H        0.925     0.056     2.243     2.342
    38   1 H        0.925     0.031     2.567     2.506
    39   1 H        0.925     0.036     2.503     2.474
    40   1 H        0.925     0.057     2.236     2.339
    41   1 H        0.925     0.050     2.321     2.383
    42   1 H        0.925     0.100     1.785     2.089
    43   1 H        0.925     0.093     1.855     2.130
    44   1 H        0.925     0.092     1.864     2.135

Wiberg/Mayer (AO) data.
largest (>0.10) Wiberg bond orders for each atom

     #   Z sym  total        # sym  WBO       # sym  WBO       # sym  WBO
 ---------------------------------------------------------------------------
     1   6 C    3.982 --     2 C    1.022    15 H    0.981    17 H    0.979
                            16 H    0.973
     2   6 C    3.937 --     1 C    1.022    18 H    0.964    19 H    0.962
                             3 N    0.930
     3   7 N    3.802 --    14 C    0.963     2 C    0.930     9 C    0.927
                             4 C    0.926
     4   6 C    3.928 --     5 C    1.003    21 H    0.967    20 H    0.962
                             3 N    0.926
     5   6 C    3.984 --     4 C    1.003     6 C    0.992    22 H    0.970
                            23 H    0.964
     6   6 C    3.994 --     7 C    1.011     8 C    1.008     5 C    0.992
                            24 H    0.967
     7   6 C    3.993 --     6 C    1.011    25 H    0.985    26 H    0.984
                            27 H    0.983
     8   6 C    3.992 --     6 C    1.008    28 H    0.986    30 H    0.986
                            29 H    0.984
     9   6 C    3.929 --    10 C    1.003    32 H    0.966    31 H    0.961
                             3 N    0.927
    10   6 C    3.984 --     9 C    1.003    11 C    0.992    33 H    0.970
                            34 H    0.963
    11   6 C    3.994 --    12 C    1.011    13 C    1.008    10 C    0.992
                            35 H    0.967
    12   6 C    3.993 --    11 C    1.011    36 H    0.985    37 H    0.984
                            38 H    0.983
    13   6 C    3.992 --    11 C    1.008    39 H    0.986    41 H    0.986
                            40 H    0.984
    14   6 C    3.933 --    44 H    0.975    43 H    0.972    42 H    0.971
                             3 N    0.963
    15   1 H    0.995 --     1 C    0.981
    16   1 H    0.993 --     1 C    0.973
    17   1 H    0.996 --     1 C    0.979
    18   1 H    0.993 --     2 C    0.964
    19   1 H    0.993 --     2 C    0.962
    20   1 H    0.993 --     4 C    0.962
    21   1 H    0.992 --     4 C    0.967
    22   1 H    0.995 --     5 C    0.970
    23   1 H    0.997 --     5 C    0.964
    24   1 H    0.999 --     6 C    0.967
    25   1 H    0.997 --     7 C    0.985
    26   1 H    0.997 --     7 C    0.984
    27   1 H    0.999 --     7 C    0.983
    28   1 H    0.999 --     8 C    0.986
    29   1 H    0.996 --     8 C    0.984
    30   1 H    0.998 --     8 C    0.986
    31   1 H    0.992 --     9 C    0.961
    32   1 H    0.993 --     9 C    0.966
    33   1 H    0.995 --    10 C    0.970
    34   1 H    0.997 --    10 C    0.963
    35   1 H    0.999 --    11 C    0.967
    36   1 H    0.997 --    12 C    0.985
    37   1 H    0.997 --    12 C    0.984
    38   1 H    0.999 --    12 C    0.983
    39   1 H    0.999 --    13 C    0.986
    40   1 H    0.996 --    13 C    0.984
    41   1 H    0.997 --    13 C    0.986
    42   1 H    0.990 --    14 C    0.971
    43   1 H    0.991 --    14 C    0.972
    44   1 H    0.992 --    14 C    0.975
 ---------------------------------------------------------------------------

molecular dipole:
                 x           y           z       tot (Debye)
 q only:        1.887      -4.282       0.951
   full:        1.926      -4.232       0.955      12.066

           -------------------------------------------------
          | TOTAL ENERGY              -45.681858997837 Eh   |
          | GRADIENT NORM               0.000317916300 Eh/α |
          | HOMO-LUMO GAP               8.466606211622 eV   |
           -------------------------------------------------

 * finished run on 2024/12/20 at 02:15:09.642
