   * xtb version 6.7.1 (edcfbbe) compiled by 'conda@3ef47c1a292c' on 2024-11-25

   ID    Z sym.   atoms
    1    6 C      1-4, 6-9, 11-13
    2    7 N      5, 10
    3    1 H      14-34

          program call               : xtb C0329.xyz --opt --namespace C0329 --charge +1
          :  Hamiltonian                  GFN2-xTB          :
 * total energy  :   -39.7823252 Eh     change       -0.5032064E-10 Eh
 * total energy  :   -39.7848255 Eh     change       -0.2500297E-02 Eh
 * total energy  :   -39.7853083 Eh     change       -0.4828356E-03 Eh
 * total energy  :   -39.7854000 Eh     change       -0.9164951E-04 Eh
 * total energy  :   -39.7855226 Eh     change       -0.1226392E-03 Eh
 * total energy  :   -39.7855971 Eh     change       -0.7443483E-04 Eh
 * total energy  :   -39.7856862 Eh     change       -0.8912246E-04 Eh
 * total energy  :   -39.7857729 Eh     change       -0.8670483E-04 Eh
 * total energy  :   -39.7858578 Eh     change       -0.8495502E-04 Eh
 * total energy  :   -39.7859576 Eh     change       -0.9977266E-04 Eh
 * total energy  :   -39.7874779 Eh     change       -0.3216825E-04 Eh
 * total energy  :   -39.7875082 Eh     change       -0.3030780E-04 Eh
 * total energy  :   -39.7875289 Eh     change       -0.2066563E-04 Eh
 * total energy  :   -39.7875449 Eh     change       -0.1601012E-04 Eh
 * total energy  :   -39.7875627 Eh     change       -0.1777737E-04 Eh
 * total energy  :   -39.7875715 Eh     change       -0.8827856E-05 Eh
 * total energy  :   -39.7875794 Eh     change       -0.7909518E-05 Eh
 * total energy  :   -39.7875870 Eh     change       -0.7545732E-05 Eh
 * total energy  :   -39.7875919 Eh     change       -0.4960219E-05 Eh
   *** GEOMETRY OPTIMIZATION CONVERGED AFTER 29 ITERATIONS ***

 final structure:
================
34
 xtb: 6.7.1 (edcfbbe)
C            1.45895242295108        0.66762547843453        0.08177294101118
C            0.44649350963063       -0.40470105044839        0.46746136567445
C            0.73356448534170       -1.03300231264363        1.83219274172830
C            0.36589677915865       -0.13402343218913        3.01869052029186
N           -1.06600596863337        0.09030015804032        3.11547150904992
C           -1.66560646273102        1.20322726282938        2.75745514450443
C           -1.00663650150375        2.47030992786541        2.30558013486798
C           -2.13154121175019        3.50895996271352        2.42305904397435
C           -3.41087252955249        2.67247458536938        2.35135709154771
N           -2.97536440254747        1.35372460290821        2.77410141404810
C           -3.91720237147231        0.29583023623202        3.05586250212980
C           -3.21731050664087       -1.04584556206680        2.87418605420647
C           -1.88237139658224       -1.01179338450194        3.60935558505521
H            1.50595169847436        1.46973675017968        0.81492936356774
H            1.20054189514221        1.10054200616364       -0.88102096616248
H            2.45082648504928        0.23181502337443       -0.00218578112503
H           -0.56672179649316        0.00665057889999        0.45502126664022
H            0.47995413718021       -1.19316269507128       -0.28536358162559
H            0.19611191675591       -1.97918999762428        1.91299722228610
H            1.79780603334463       -1.25775522417277        1.90507387637867
H            0.68989777127097       -0.60920626924948        3.94838277723526
H            0.87719972793030        0.82223528731744        2.92769215092220
H           -0.14341106492814        2.73411808593643        2.91369228019805
H           -0.67357869478905        2.36106627187994        1.27126721748355
H           -2.06925948638857        4.01886010796038        3.38374383554442
H           -2.08628380398242        4.25804322333353        1.63777938251381
H           -4.19591218531979        3.04005822747785        3.01365111003610
H           -3.81289536190024        2.61860999148756        1.33389979028906
H           -4.76353440990207        0.39016371146815        2.37110833911378
H           -4.29517020603462        0.40547458781063        4.07818588871238
H           -3.04146750438268       -1.23126068407462        1.81300485718353
H           -3.83876386781965       -1.84961158503924        3.26323095794301
H           -2.04305501561541       -0.88034152428386        4.68476813828283
H           -1.33884211325542       -1.94369234630991        3.45840582649248

          :  Hamiltonian                  GFN2-xTB          :
         :: total energy             -39.787591934857 Eh    ::
         :: gradient norm              0.000290913377 Eh/a0 ::
         :: HOMO-LUMO gap              4.115660802247 eV    ::
         :: SCC energy               -40.356749746822 Eh    ::
         :: -> dispersion             -0.027929232221 Eh    ::
         :: repulsion energy           0.569157811966 Eh    ::

    * Orbital Energies and Occupations

         #    Occupation            Energy/Eh            Energy/eV
      -------------------------------------------------------------
         1        2.0000           -0.8563119             -23.3014
       ...           ...                  ...                  ...
        25        2.0000           -0.6189930             -16.8437
        26        2.0000           -0.6166127             -16.7789
        27        2.0000           -0.6109939             -16.6260
        28        2.0000           -0.6031459             -16.4124
        29        2.0000           -0.6011965             -16.3594
        30        2.0000           -0.5971254             -16.2486
        31        2.0000           -0.5923676             -16.1191
        32        2.0000           -0.5865245             -15.9601
        33        2.0000           -0.5741108             -15.6223
        34        2.0000           -0.5577097             -15.1761
        35        2.0000           -0.5542731             -15.0825
        36        2.0000           -0.5470813             -14.8868
        37        2.0000           -0.5365385             -14.6000 (HOMO)
        38                         -0.3852907             -10.4843 (LUMO)
        39                         -0.1846138              -5.0236
        40                         -0.1571508              -4.2763
        41                         -0.1264850              -3.4418
        42                         -0.0897357              -2.4418
        43                         -0.0672877              -1.8310
        44                         -0.0549878              -1.4963
        45                         -0.0465749              -1.2674
        46                         -0.0444891              -1.2106
        47                         -0.0320571              -0.8723
        48                         -0.0225829              -0.6145
       ...                                ...                  ...
        73                          0.3792946              10.3211
      -------------------------------------------------------------
                  HL-Gap            0.1512478 Eh            4.1157 eV

     #   Z          covCN         q      C6AA      α(0)
     1   6 C        3.752    -0.113    22.724     6.798
     2   6 C        3.800    -0.058    21.613     6.619
     3   6 C        3.801    -0.072    21.878     6.659
     4   6 C        3.746    -0.022    21.039     6.543
     5   7 N        2.739    -0.019    21.618     6.906
     6   6 C        2.904     0.144    24.861     8.176
     7   6 C        3.836    -0.079    21.978     6.670
     8   6 C        3.835    -0.073    21.862     6.652
     9   6 C        3.792    -0.019    20.919     6.513
    10   7 N        2.775    -0.020    21.638     6.909
    11   6 C        3.747    -0.019    20.972     6.532
    12   6 C        3.807    -0.076    21.938     6.667
    13   6 C        3.762    -0.021    20.986     6.530
    14   1 H        0.925     0.031     2.578     2.511
    15   1 H        0.925     0.048     2.339     2.392
    16   1 H        0.925     0.053     2.287     2.365
    17   1 H        0.924     0.022     2.709     2.574
    18   1 H        0.924     0.054     2.270     2.356
    19   1 H        0.924     0.048     2.339     2.392
    20   1 H        0.925     0.070     2.082     2.256
    21   1 H        0.924     0.073     2.052     2.240
    22   1 H        0.925     0.076     2.026     2.226
    23   1 H        0.925     0.084     1.940     2.178
    24   1 H        0.924     0.099     1.795     2.095
    25   1 H        0.925     0.072     2.059     2.244
    26   1 H        0.925     0.082     1.960     2.189
    27   1 H        0.924     0.080     1.977     2.199
    28   1 H        0.924     0.075     2.031     2.229
    29   1 H        0.924     0.083     1.944     2.180
    30   1 H        0.924     0.077     2.005     2.215
    31   1 H        0.924     0.069     2.097     2.265
    32   1 H        0.925     0.084     1.934     2.175
    33   1 H        0.924     0.076     2.026     2.226
    34   1 H        0.925     0.088     1.898     2.155

Wiberg/Mayer (AO) data.
largest (>0.10) Wiberg bond orders for each atom

     #   Z sym  total        # sym  WBO       # sym  WBO       # sym  WBO
 ---------------------------------------------------------------------------
     1   6 C    3.994 --     2 C    1.021    16 H    0.986    15 H    0.986
                            14 H    0.983
     2   6 C    3.996 --     1 C    1.021     3 C    1.008    17 H    0.976
                            18 H    0.975
     3   6 C    3.987 --     2 C    1.008     4 C    0.990    19 H    0.972
                            20 H    0.968
     4   6 C    3.949 --     3 C    0.990     5 N    0.971    21 H    0.965
                            22 H    0.962
     5   7 N    3.599 --     6 C    1.402     4 C    0.971    13 C    0.969
                            10 N    0.150
     6   6 C    3.964 --     5 N    1.402    10 N    1.386     7 C    1.009
     7   6 C    3.987 --     6 C    1.009     8 C    0.999    23 H    0.957
                            24 H    0.941
     8   6 C    3.986 --     9 C    1.004     7 C    0.999    25 H    0.978
                            26 H    0.975
     9   6 C    3.956 --     8 C    1.004    10 N    0.973    27 H    0.968
                            28 H    0.962
    10   7 N    3.595 --     6 C    1.386    11 C    0.980     9 C    0.973
                             5 N    0.150
    11   6 C    3.961 --    12 C    1.005    10 N    0.980    29 H    0.962
                            30 H    0.959
    12   6 C    3.990 --    11 C    1.005    13 C    1.005    31 H    0.973
                            32 H    0.968
    13   6 C    3.959 --    12 C    1.005     5 N    0.969    34 H    0.963
                            33 H    0.960
    14   1 H    0.999 --     1 C    0.983
    15   1 H    0.998 --     1 C    0.986
    16   1 H    0.997 --     1 C    0.986
    17   1 H    1.000 --     2 C    0.976
    18   1 H    0.997 --     2 C    0.975
    19   1 H    0.998 --     3 C    0.972
    20   1 H    0.994 --     3 C    0.968
    21   1 H    0.994 --     4 C    0.965
    22   1 H    0.994 --     4 C    0.962
    23   1 H    0.993 --     7 C    0.957
    24   1 H    0.990 --     7 C    0.941
    25   1 H    0.995 --     8 C    0.978
    26   1 H    0.993 --     8 C    0.975
    27   1 H    0.993 --     9 C    0.968
    28   1 H    0.994 --     9 C    0.962
    29   1 H    0.993 --    11 C    0.962
    30   1 H    0.994 --    11 C    0.959
    31   1 H    0.995 --    12 C    0.973
    32   1 H    0.992 --    12 C    0.968
    33   1 H    0.994 --    13 C    0.960
    34   1 H    0.992 --    13 C    0.963
 ---------------------------------------------------------------------------

molecular dipole:
                 x           y           z       tot (Debye)
 q only:       -3.434       1.457       5.053
   full:       -3.477       1.447       5.114      16.142

           -------------------------------------------------
          | TOTAL ENERGY              -39.787591934857 Eh   |
          | GRADIENT NORM               0.000290913377 Eh/α |
          | HOMO-LUMO GAP               4.115660802247 eV   |
           -------------------------------------------------

 * finished run on 2024/12/20 at 02:15:21.625
