   * xtb version 6.7.1 (edcfbbe) compiled by 'conda@3ef47c1a292c' on 2024-11-25

   ID    Z sym.   atoms
    1    6 C      1-10, 12, 14-25
    2    7 N      11
    3    8 O      13
    4    1 H      26-73

          program call               : xtb C0327.xyz --opt --namespace C0327 --charge +1
          :  Hamiltonian                  GFN2-xTB          :
 * total energy  :   -80.3495993 Eh     change       -0.2811049E-09 Eh
 * total energy  :   -80.3574872 Eh     change       -0.7887974E-02 Eh
 * total energy  :   -80.3599495 Eh     change       -0.2462269E-02 Eh
 * total energy  :   -80.3604326 Eh     change       -0.4831165E-03 Eh
 * total energy  :   -80.3608541 Eh     change       -0.4214642E-03 Eh
 * total energy  :   -80.3610690 Eh     change       -0.2148787E-03 Eh
 * total energy  :   -80.3613062 Eh     change       -0.2372047E-03 Eh
 * total energy  :   -80.3615396 Eh     change       -0.2334038E-03 Eh
 * total energy  :   -80.3617630 Eh     change       -0.2233803E-03 Eh
 * total energy  :   -80.3619792 Eh     change       -0.2162053E-03 Eh
 * total energy  :   -80.3695861 Eh     change       -0.1497485E-04 Eh
 * total energy  :   -80.3696013 Eh     change       -0.1517351E-04 Eh
 * total energy  :   -80.3696165 Eh     change       -0.1521330E-04 Eh
 * total energy  :   -80.3696317 Eh     change       -0.1521098E-04 Eh
 * total energy  :   -80.3696471 Eh     change       -0.1534783E-04 Eh
 * total energy  :   -80.3696621 Eh     change       -0.1500321E-04 Eh
 * total energy  :   -80.3696759 Eh     change       -0.1387528E-04 Eh
 * total energy  :   -80.3696872 Eh     change       -0.1130414E-04 Eh
 * total energy  :   -80.3696890 Eh     change       -0.1725694E-05 Eh
   *** GEOMETRY OPTIMIZATION CONVERGED AFTER 122 ITERATIONS ***

 final structure:
================
73
 xtb: 6.7.1 (edcfbbe)
C          -16.17232424231977       -5.80733079882378       -4.98383453864040
C          -14.94408319863143       -6.70507761563565       -5.07209397082434
C          -13.63198317056370       -5.92570587118056       -5.17691120735361
C          -13.32605334031692       -5.01340163805979       -3.98693068447064
C          -13.25643189437301       -5.72015150374903       -2.63187482990558
C          -12.20196476900149       -6.82454114824663       -2.53364874428258
C          -10.76105903539920       -6.36722895517634       -2.77670634279031
C          -10.27449450823415       -5.25566000687079       -1.84333197626270
C          -10.37897133761120       -5.57300653567278       -0.34866503297966
C           -9.70451515701657       -6.84638227025083        0.17038205798159
N           -8.20981658850725       -6.89634426624893        0.24340365493553
C           -7.63665238969461       -5.59957467610056        0.78118822139290
O           -6.29895932721541       -5.76849134495353        1.02486161544498
C           -5.37665246270858       -4.83924253844626        0.40563765195668
C           -5.49621914827316       -3.44010292483736        1.00813529648218
C           -4.95130522159776       -3.31474406906321        2.43350844434805
C           -5.83958942295204       -4.00470262191447        3.46671362729987
C           -3.51261364171434       -3.82939085102414        2.46301150979767
C           -3.39173800008895       -5.25676504391039        1.93641476223944
C           -3.99100538472404       -5.49579253808046        0.54296156010630
C           -3.05546013543217       -5.20173375295223       -0.65449143137494
C           -2.33222919482308       -3.85923392306511       -0.62169158641694
C           -2.01991710599845       -6.31995039355663       -0.79057623705301
C           -7.82956110993867       -7.97807967027985        1.17600132676706
C           -7.60097817973418       -7.19020414471227       -1.06590329081359
H          -16.17992043429146       -5.23722974165273       -4.05822902849793
H          -17.07829952164284       -6.40757835630008       -5.01625307975543
H          -16.19474564498069       -5.11046206681506       -5.81853135639740
H          -14.91661314778606       -7.37129765268386       -4.20755153023375
H          -15.03228106787900       -7.33408559462288       -5.96078558734577
H          -12.81278495062909       -6.63542074497307       -5.31443379277029
H          -13.67051926989041       -5.30255588528178       -6.07336236355327
H          -12.38139930049128       -4.50015781547200       -4.18205646857820
H          -14.09639191232498       -4.24354147215715       -3.92455907263759
H          -13.07637230253699       -4.96768138326541       -1.86010916634610
H          -14.22775128320995       -6.16635209353845       -2.41494333763306
H          -12.28228837940544       -7.29072967489337       -1.54790269131888
H          -12.43295338278326       -7.59773489231335       -3.26725526361622
H          -10.10620744911172       -7.23960594241691       -2.70340392828559
H          -10.67782202110770       -5.99970258625598       -3.79983235218327
H           -9.25275377475607       -4.97771987438115       -2.11469531463191
H          -10.88410014288767       -4.36877785047882       -2.01922716699559
H          -10.05016797503631       -4.70636911376206        0.22594810669725
H          -11.43779391716208       -5.70709025901080       -0.11886176327995
H          -10.06913558558239       -7.00464090608057        1.18778633005395
H          -10.02310682153408       -7.69530361275158       -0.43671731255960
H           -7.82763153458208       -4.81364427309520        0.04185761320919
H           -8.18268692679614       -5.38160138307681        1.70972764991726
H           -5.63974893587558       -4.77520430246188       -0.66348573252125
H           -6.54397317739930       -3.12576845793447        0.98686348610963
H           -4.94359599450006       -2.75980233720364        0.35959146061589
H           -4.93500735211078       -2.24718585821040        2.67988101665841
H           -6.84539045312206       -3.58838505994023        3.43873652117892
H           -5.89750581659382       -5.07414939257088        3.28985660524509
H           -5.43765564502418       -3.84267917371316        4.46343693516926
H           -2.89111886968301       -3.15492535292475        1.87684258635609
H           -3.14152841971349       -3.80674759805717        3.48895324744026
H           -3.89719809666170       -5.92459115456745        2.63590390331313
H           -2.34087036193052       -5.54462955434792        1.92341766177757
H           -4.19163806354390       -6.57384529526879        0.47886830708857
H           -3.67945387001102       -5.22209884727235       -1.55805952677503
H           -1.61963779396049       -3.82325642845413        0.19670167005368
H           -1.77793099117142       -3.73024038773746       -1.54867435591098
H           -3.02411303701559       -3.02738127277549       -0.53111999652275
H           -2.49820881502094       -7.29108973788829       -0.89982877192797
H           -1.39955999006344       -6.14764516097722       -1.66592132993283
H           -1.36950492945701       -6.35472811350157        0.07907136901165
H           -8.22635004082557       -8.92857837523749        0.82634146302490
H           -6.74462150204953       -8.03347045429095        1.23801377980013
H           -8.21743027622638       -7.77035612988257        2.17122724920774
H           -7.91920656585251       -8.17071063917574       -1.41397487633929
H           -7.89183662458946       -6.44245132900541       -1.79804865066587
H           -6.51668966382361       -7.18871730919291       -0.96307300159476

          :  Hamiltonian                  GFN2-xTB          :
         :: total energy             -80.369688965767 Eh    ::
         :: gradient norm              0.000166809062 Eh/a0 ::
         :: HOMO-LUMO gap              6.839374536073 eV    ::
         :: SCC energy               -81.477105397118 Eh    ::
         :: -> dispersion             -0.066250814958 Eh    ::
         :: repulsion energy           1.107416431351 Eh    ::

    * Orbital Energies and Occupations

         #    Occupation            Energy/Eh            Energy/eV
      -------------------------------------------------------------
         1        2.0000           -0.8629728             -23.4827
       ...           ...                  ...                  ...
        63        2.0000           -0.5299749             -14.4214
        64        2.0000           -0.5252029             -14.2915
        65        2.0000           -0.5201169             -14.1531
        66        2.0000           -0.5179530             -14.0942
        67        2.0000           -0.5178561             -14.0916
        68        2.0000           -0.5117853             -13.9264
        69        2.0000           -0.5080287             -13.8242
        70        2.0000           -0.5046684             -13.7327
        71        2.0000           -0.5023140             -13.6687
        72        2.0000           -0.4980836             -13.5535
        73        2.0000           -0.4896184             -13.3232
        74        2.0000           -0.4861110             -13.2278
        75        2.0000           -0.4828580             -13.1392 (HOMO)
        76                         -0.2315156              -6.2999 (LUMO)
        77                         -0.1759551              -4.7880
        78                         -0.1519298              -4.1342
        79                         -0.1357642              -3.6943
        80                         -0.1166944              -3.1754
        81                         -0.0735172              -2.0005
        82                         -0.0640469              -1.7428
        83                         -0.0511709              -1.3924
        84                         -0.0350425              -0.9536
        85                         -0.0343514              -0.9347
        86                         -0.0269242              -0.7326
       ...                                ...                  ...
       148                          0.2416331               6.5752
      -------------------------------------------------------------
                  HL-Gap            0.2513424 Eh            6.8394 eV

     #   Z          covCN         q      C6AA      α(0)
     1   6 C        3.751    -0.104    22.548     6.772
     2   6 C        3.799    -0.053    21.532     6.607
     3   6 C        3.800    -0.059    21.634     6.622
     4   6 C        3.800    -0.059    21.644     6.624
     5   6 C        3.800    -0.060    21.660     6.626
     6   6 C        3.800    -0.062    21.689     6.631
     7   6 C        3.800    -0.064    21.732     6.637
     8   6 C        3.799    -0.065    21.740     6.639
     9   6 C        3.799    -0.075    21.944     6.670
    10   6 C        3.753    -0.043    21.392     6.595
    11   7 N        3.618     0.108    19.382     6.539
    12   6 C        3.643     0.123    18.895     6.249
    13   8 O        1.700    -0.303    19.049     5.893
    14   6 C        3.735     0.109    18.866     6.199
    15   6 C        3.805    -0.068    21.798     6.647
    16   6 C        3.851    -0.013    20.765     6.481
    17   6 C        3.753    -0.110    22.655     6.787
    18   6 C        3.806    -0.069    21.814     6.649
    19   6 C        3.803    -0.061    21.674     6.628
    20   6 C        3.850    -0.028    21.042     6.525
    21   6 C        3.848    -0.014    20.783     6.485
    22   6 C        3.755    -0.111    22.672     6.789
    23   6 C        3.757    -0.112    22.692     6.792
    24   6 C        3.727    -0.091    22.349     6.749
    25   6 C        3.717    -0.086    22.268     6.741
    26   1 H        0.925     0.034     2.535     2.490
    27   1 H        0.925     0.037     2.495     2.470
    28   1 H        0.925     0.038     2.481     2.463
    29   1 H        0.924     0.028     2.613     2.528
    30   1 H        0.924     0.032     2.557     2.501
    31   1 H        0.924     0.025     2.655     2.548
    32   1 H        0.924     0.035     2.511     2.478
    33   1 H        0.924     0.025     2.656     2.548
    34   1 H        0.924     0.041     2.442     2.444
    35   1 H        0.924     0.024     2.679     2.560
    36   1 H        0.924     0.043     2.406     2.425
    37   1 H        0.924     0.020     2.729     2.583
    38   1 H        0.924     0.047     2.358     2.401
    39   1 H        0.924     0.020     2.740     2.588
    40   1 H        0.924     0.053     2.287     2.365
    41   1 H        0.924     0.022     2.705     2.572
    42   1 H        0.924     0.064     2.156     2.296
    43   1 H        0.924     0.046     2.375     2.410
    44   1 H        0.924     0.083     1.953     2.186
    45   1 H        0.924     0.080     1.982     2.202
    46   1 H        0.924     0.093     1.847     2.125
    47   1 H        0.924     0.070     2.088     2.260
    48   1 H        0.923     0.074     2.043     2.235
    49   1 H        0.923     0.012     2.851     2.640
    50   1 H        0.924     0.026     2.648     2.545
    51   1 H        0.924     0.051     2.306     2.375
    52   1 H        0.924     0.038     2.471     2.458
    53   1 H        0.925     0.025     2.656     2.548
    54   1 H        0.925     0.043     2.407     2.426
    55   1 H        0.925     0.046     2.375     2.410
    56   1 H        0.925     0.047     2.352     2.399
    57   1 H        0.924     0.045     2.384     2.415
    58   1 H        0.924     0.041     2.429     2.437
    59   1 H        0.925     0.049     2.329     2.387
    60   1 H        0.923     0.040     2.456     2.451
    61   1 H        0.923     0.021     2.717     2.578
    62   1 H        0.925     0.050     2.318     2.381
    63   1 H        0.925     0.047     2.362     2.404
    64   1 H        0.925     0.034     2.524     2.484
    65   1 H        0.925     0.031     2.576     2.510
    66   1 H        0.925     0.049     2.329     2.387
    67   1 H        0.925     0.046     2.376     2.410
    68   1 H        0.925     0.094     1.845     2.124
    69   1 H        0.925     0.115     1.654     2.011
    70   1 H        0.925     0.094     1.837     2.120
    71   1 H        0.925     0.091     1.870     2.138
    72   1 H        0.925     0.099     1.792     2.094
    73   1 H        0.925     0.102     1.766     2.078

Wiberg/Mayer (AO) data.
largest (>0.10) Wiberg bond orders for each atom

     #   Z sym  total        # sym  WBO       # sym  WBO       # sym  WBO
 ---------------------------------------------------------------------------
     1   6 C    3.997 --     2 C    1.020    28 H    0.987    27 H    0.987
                            26 H    0.986
     2   6 C    3.998 --     1 C    1.020     3 C    1.008    30 H    0.978
                            29 H    0.976
     3   6 C    3.997 --     2 C    1.008     4 C    1.008    32 H    0.977
                            31 H    0.976
     4   6 C    3.997 --     5 C    1.008     3 C    1.008    33 H    0.975
                            34 H    0.975
     5   6 C    3.996 --     4 C    1.008     6 C    1.007    35 H    0.975
                            36 H    0.973
     6   6 C    3.996 --     5 C    1.007     7 C    1.007    37 H    0.975
                            38 H    0.973
     7   6 C    3.995 --     8 C    1.007     6 C    1.007    39 H    0.975
                            40 H    0.972
     8   6 C    3.992 --     7 C    1.007     9 C    1.005    41 H    0.969
                            42 H    0.969
     9   6 C    3.983 --     8 C    1.005    10 C    1.005    43 H    0.972
                            44 H    0.959
    10   6 C    3.926 --     9 C    1.005    45 H    0.968    46 H    0.963
                            11 N    0.923
    11   7 N    3.799 --    25 C    0.959    24 C    0.956    10 C    0.923
                            12 C    0.893
    12   6 C    3.933 --    13 O    1.058    47 H    0.955    48 H    0.954
                            11 N    0.893
    13   8 O    2.114 --    12 C    1.058    14 C    0.907
    14   6 C    3.914 --    15 C    0.996    20 C    0.978    49 H    0.959
                            13 O    0.907
    15   6 C    3.994 --    14 C    0.996    16 C    0.995    50 H    0.971
                            51 H    0.965
    16   6 C    3.994 --    17 C    1.010    18 C    0.997    15 C    0.995
                            52 H    0.967
    17   6 C    3.996 --    16 C    1.010    53 H    0.987    55 H    0.985
                            54 H    0.982
    18   6 C    3.996 --    19 C    1.010    16 C    0.997    57 H    0.974
                            56 H    0.972
    19   6 C    3.995 --    18 C    1.010    20 C    0.995    58 H    0.975
                            59 H    0.970
    20   6 C    3.987 --    19 C    0.995    21 C    0.979    14 C    0.978
                            60 H    0.961
    21   6 C    3.994 --    22 C    1.011    23 C    1.008    20 C    0.979
                            61 H    0.966
    22   6 C    3.994 --    21 C    1.011    63 H    0.984    62 H    0.982
                            64 H    0.980
    23   6 C    3.994 --    21 C    1.008    65 H    0.986    66 H    0.985
                            67 H    0.983
    24   6 C    3.923 --    68 H    0.976    70 H    0.975    69 H    0.969
                            11 N    0.956
    25   6 C    3.927 --    71 H    0.975    73 H    0.972    72 H    0.966
                            11 N    0.959
    26   1 H    0.999 --     1 C    0.986
    27   1 H    0.999 --     1 C    0.987
    28   1 H    0.999 --     1 C    0.987
    29   1 H    0.999 --     2 C    0.976
    30   1 H    0.999 --     2 C    0.978
    31   1 H    0.999 --     3 C    0.976
    32   1 H    0.999 --     3 C    0.977
    33   1 H    0.999 --     4 C    0.975
    34   1 H    0.998 --     4 C    0.975
    35   1 H    0.999 --     5 C    0.975
    36   1 H    0.998 --     5 C    0.973
    37   1 H    1.000 --     6 C    0.975
    38   1 H    0.998 --     6 C    0.973
    39   1 H    1.000 --     7 C    0.975
    40   1 H    0.997 --     7 C    0.972
    41   1 H    1.000 --     8 C    0.969
    42   1 H    0.996 --     8 C    0.969
    43   1 H    0.998 --     9 C    0.972
    44   1 H    0.993 --     9 C    0.959
    45   1 H    0.994 --    10 C    0.968
    46   1 H    0.991 --    10 C    0.963
    47   1 H    0.995 --    12 C    0.955
    48   1 H    0.994 --    12 C    0.954
    49   1 H    1.000 --    14 C    0.959
    50   1 H    0.999 --    15 C    0.971
    51   1 H    0.997 --    15 C    0.965
    52   1 H    0.998 --    16 C    0.967
    53   1 H    0.999 --    17 C    0.987
    54   1 H    0.998 --    17 C    0.982
    55   1 H    0.998 --    17 C    0.985
    56   1 H    0.998 --    18 C    0.972
    57   1 H    0.998 --    18 C    0.974
    58   1 H    0.998 --    19 C    0.975
    59   1 H    0.997 --    19 C    0.970
    60   1 H    0.998 --    20 C    0.961
    61   1 H    1.000 --    21 C    0.966
    62   1 H    0.997 --    22 C    0.982
    63   1 H    0.998 --    22 C    0.984
    64   1 H    0.999 --    22 C    0.980
    65   1 H    0.999 --    23 C    0.986
    66   1 H    0.997 --    23 C    0.985
    67   1 H    0.998 --    23 C    0.983
    68   1 H    0.991 --    24 C    0.976
    69   1 H    0.986 --    24 C    0.969
    70   1 H    0.991 --    24 C    0.975
    71   1 H    0.992 --    25 C    0.975
    72   1 H    0.990 --    25 C    0.966
    73   1 H    0.990 --    25 C    0.972
 ---------------------------------------------------------------------------

molecular dipole:
                 x           y           z       tot (Debye)
 q only:      -15.111     -12.186      -0.029
   full:      -15.307     -12.125      -0.104      49.635

           -------------------------------------------------
          | TOTAL ENERGY              -80.369688965767 Eh   |
          | GRADIENT NORM               0.000166809062 Eh/α |
          | HOMO-LUMO GAP               6.839374536073 eV   |
           -------------------------------------------------

 * finished run on 2024/12/20 at 02:15:20.249
