   * xtb version 6.7.1 (edcfbbe) compiled by 'conda@3ef47c1a292c' on 2024-11-25

   ID    Z sym.   atoms
    1    7 N      1, 4
    2    6 C      2, 3, 5-10
    3    1 H      11-19

          program call               : xtb C0328.xyz --opt --namespace C0328 --charge +1
          :  Hamiltonian                  GFN2-xTB          :
 * total energy  :   -27.0692050 Eh     change       -0.3449365E-09 Eh
 * total energy  :   -27.1019145 Eh     change       -0.3270954E-01 Eh
 * total energy  :   -27.1033185 Eh     change       -0.1404043E-02 Eh
 * total energy  :   -27.1034236 Eh     change       -0.1050311E-03 Eh
 * total energy  :   -27.1034368 Eh     change       -0.1322813E-04 Eh
 * total energy  :   -27.1034419 Eh     change       -0.5046697E-05 Eh
 * total energy  :   -27.1034436 Eh     change       -0.1765507E-05 Eh
   *** GEOMETRY OPTIMIZATION CONVERGED AFTER 7 ITERATIONS ***

 final structure:
================
19
 xtb: 6.7.1 (edcfbbe)
N            1.19535384984066       -0.05775225909918       -0.13817442890360
C            2.33365480378683       -0.05189809679534       -0.11061684541534
C            3.79143256408567       -0.05546861324554       -0.11910764642181
N            4.27142971617246       -0.33366553093577       -1.46503050337692
C            4.54101871041338        0.67742011335477       -2.30601171121206
C            4.93610221847419        0.43910571801778       -3.59855498803199
C            5.05901193166891       -0.87385452503201       -4.07327687293833
C            4.76200334755390       -1.89994729053053       -3.16845978456855
C            4.37144225483232       -1.60410089441822       -1.88534360188854
C            5.46877102959309       -1.15003115119439       -5.46458305367865
H            4.14827714773186        0.92213941153802        0.22009316418047
H            4.14473295139324       -0.82195387988459        0.57867055554693
H            4.43517375216098        1.68321078427957       -1.92616410322244
H            5.14971251624234        1.27394740610918       -4.24777102450479
H            4.83566647292545       -2.93272208365531       -3.47126792009166
H            4.13192699873460       -2.38300866488393       -1.17589089949112
H            4.65981202457053       -0.87471112916965       -6.14383984738958
H            6.32828643043013       -0.54214921402607       -5.74266978272762
H            5.70033127938947       -2.19994010042879       -5.61683070586438

          :  Hamiltonian                  GFN2-xTB          :
         :: total energy             -27.103443617429 Eh    ::
         :: gradient norm              0.000619629556 Eh/a0 ::
         :: HOMO-LUMO gap              3.076537559253 eV    ::
         :: SCC energy               -27.605730840777 Eh    ::
         :: -> dispersion             -0.013992492181 Eh    ::
         :: repulsion energy           0.502287223348 Eh    ::

    * Orbital Energies and Occupations

         #    Occupation            Energy/Eh            Energy/eV
      -------------------------------------------------------------
         1        2.0000           -0.8929278             -24.2978
       ...           ...                  ...                  ...
        13        2.0000           -0.6997323             -19.0407
        14        2.0000           -0.6975814             -18.9822
        15        2.0000           -0.6835600             -18.6006
        16        2.0000           -0.6830547             -18.5869
        17        2.0000           -0.6618265             -18.0092
        18        2.0000           -0.6414580             -17.4550
        19        2.0000           -0.6378319             -17.3563
        20        2.0000           -0.6300348             -17.1441
        21        2.0000           -0.6280941             -17.0913
        22        2.0000           -0.6243098             -16.9883
        23        2.0000           -0.6135272             -16.6949
        24        2.0000           -0.6056971             -16.4819
        25        2.0000           -0.5794838             -15.7686 (HOMO)
        26                         -0.4664232             -12.6920 (LUMO)
        27                         -0.4354672             -11.8497
        28                         -0.3752569             -10.2113
        29                         -0.3616672              -9.8415
        30                         -0.3168970              -8.6232
        31                         -0.1754056              -4.7730
        32                         -0.0882459              -2.4013
        33                         -0.0587882              -1.5997
        34                         -0.0552868              -1.5044
        35                         -0.0422503              -1.1497
        36                         -0.0345381              -0.9398
       ...                                ...                  ...
        49                          0.9916440              26.9840
      -------------------------------------------------------------
                  HL-Gap            0.1130607 Eh            3.0765 eV

     #   Z          covCN         q      C6AA      α(0)
     1   7 N        0.911    -0.132    23.874     7.067
     2   6 C        1.898     0.109    28.408     8.608
     3   6 C        3.759    -0.021    20.992     6.532
     4   7 N        2.756     0.098    19.555     6.568
     5   6 C        2.884     0.032    27.289     8.564
     6   6 C        2.920    -0.024    28.609     8.771
     7   6 C        2.969     0.078    26.266     8.406
     8   6 C        2.920    -0.023    28.587     8.768
     9   6 C        2.885     0.033    27.265     8.561
    10   6 C        3.759    -0.136    23.171     6.863
    11   1 H        0.924     0.123     1.586     1.969
    12   1 H        0.924     0.124     1.581     1.966
    13   1 H        0.926     0.107     1.718     2.050
    14   1 H        0.926     0.109     1.709     2.044
    15   1 H        0.926     0.108     1.710     2.045
    16   1 H        0.926     0.108     1.712     2.046
    17   1 H        0.924     0.113     1.667     2.019
    18   1 H        0.925     0.103     1.755     2.072
    19   1 H        0.925     0.091     1.874     2.141

Wiberg/Mayer (AO) data.
largest (>0.10) Wiberg bond orders for each atom

     #   Z sym  total        # sym  WBO       # sym  WBO       # sym  WBO
 ---------------------------------------------------------------------------
     1   7 N    3.047 --     2 C    2.900
     2   6 C    3.954 --     1 N    2.900     3 C    1.013
     3   6 C    3.947 --     2 C    1.013     4 N    0.962    11 H    0.937
                            12 H    0.935
     4   7 N    3.747 --     9 C    1.301     5 C    1.297     3 C    0.962
     5   6 C    3.957 --     6 C    1.503     4 N    1.297    13 H    0.955
     6   6 C    3.982 --     5 C    1.503     7 C    1.352    14 H    0.957
     7   6 C    3.963 --     8 C    1.357     6 C    1.352    10 C    1.072
     8   6 C    3.982 --     9 C    1.497     7 C    1.357    15 H    0.957
     9   6 C    3.957 --     8 C    1.497     4 N    1.301    16 H    0.955
    10   6 C    3.981 --     7 C    1.072    19 H    0.976    18 H    0.948
                            17 H    0.926
    11   1 H    0.984 --     3 C    0.937
    12   1 H    0.984 --     3 C    0.935
    13   1 H    0.988 --     5 C    0.955
    14   1 H    0.988 --     6 C    0.957
    15   1 H    0.988 --     8 C    0.957
    16   1 H    0.988 --     9 C    0.955
    17   1 H    0.986 --    10 C    0.926
    18   1 H    0.988 --    10 C    0.948
    19   1 H    0.991 --    10 C    0.976
 ---------------------------------------------------------------------------

molecular dipole:
                 x           y           z       tot (Debye)
 q only:        9.208      -1.015      -4.823
   full:        9.662      -0.978      -4.702      27.424

           -------------------------------------------------
          | TOTAL ENERGY              -27.103443617429 Eh   |
          | GRADIENT NORM               0.000619629556 Eh/α |
          | HOMO-LUMO GAP               3.076537559253 eV   |
           -------------------------------------------------

 * finished run on 2024/12/20 at 02:15:20.595
