   * xtb version 6.7.1 (edcfbbe) compiled by 'conda@3ef47c1a292c' on 2024-11-25

   ID    Z sym.   atoms
    1    6 C      1-3, 5-21
    2    7 N      4
    3    1 H      22-43

          program call               : xtb C0325.xyz --opt --namespace C0325 --charge +1
          :  Hamiltonian                  GFN2-xTB          :
 * total energy  :   -56.3850526 Eh     change       -0.5219647E-09 Eh
 * total energy  :   -56.4289444 Eh     change       -0.4389176E-01 Eh
 * total energy  :   -56.4360371 Eh     change       -0.7092700E-02 Eh
 * total energy  :   -56.4379426 Eh     change       -0.1905482E-02 Eh
 * total energy  :   -56.4382213 Eh     change       -0.2787405E-03 Eh
 * total energy  :   -56.4387756 Eh     change       -0.5542764E-03 Eh
 * total energy  :   -56.4388849 Eh     change       -0.1092708E-03 Eh
 * total energy  :   -56.4389540 Eh     change       -0.6909860E-04 Eh
 * total energy  :   -56.4389981 Eh     change       -0.4415833E-04 Eh
 * total energy  :   -56.4390258 Eh     change       -0.2767750E-04 Eh
 * total energy  :   -56.4390467 Eh     change       -0.2093924E-04 Eh
 * total energy  :   -56.4390549 Eh     change       -0.8146645E-05 Eh
 * total energy  :   -56.4390601 Eh     change       -0.5274800E-05 Eh
 * total energy  :   -56.4390624 Eh     change       -0.2270531E-05 Eh
   *** GEOMETRY OPTIMIZATION CONVERGED AFTER 14 ITERATIONS ***

 final structure:
================
43
 xtb: 6.7.1 (edcfbbe)
C            0.92038429428866        0.08620123982531       -0.01566325792559
C           -0.27624777667064        0.06381571414084       -0.03096155739716
C           -1.72586965674121        0.03070073988754       -0.03712408488648
N           -2.26780300587146       -0.68570270285517       -1.22675832255077
C           -1.79040834190675       -2.11101201812813       -1.15472293665167
C           -2.27021047325249       -2.79695375335120        0.02684820560548
C           -2.64005823640238       -3.37690004874656        1.01692995326322
C           -3.08176040068886       -4.03157444466157        2.18585515500708
C           -3.68091918695079       -3.29919536907305        3.19046419712715
C           -4.11934140872801       -3.92737726387561        4.35977627017973
C           -3.95600490594431       -5.27664477456025        4.52119584349556
C           -3.34744971652668       -6.05890093945017        3.51740722734544
C           -2.90002048855830       -5.43652518511995        2.32317521522274
C           -2.29426332145750       -6.22350345781669        1.32422974058521
C           -2.13803328869124       -7.57078987148611        1.50096622997939
C           -2.57767191748493       -8.18948683462702        2.68119599409481
C           -3.16888527905311       -7.45065883190063        3.66719403326144
C           -3.76095024615804       -0.72571545570195       -1.17222023171114
C           -4.49335887558595        0.59574717270603       -1.33026522377683
C           -1.76510182205927       -0.10296992456030       -2.51257981699974
C           -1.54602740296060        1.40368444577093       -2.54394138684225
H            1.96987568850709        0.11819310522301        0.01171472190530
H           -2.07040580929232       -0.50099368932985        0.85627982970823
H           -2.11330707462293        1.05050566172655       -0.01820385431673
H           -2.12749359520936       -2.63330071618707       -2.05562752052798
H           -0.69526500100411       -2.09619002802184       -1.14033566077396
H           -3.81305164351746       -2.23225360726391        3.07605506612220
H           -4.58569502642362       -3.33494833783984        5.13177568955017
H           -4.29189574196502       -5.76428365612265        5.42395934166838
H           -1.95456911000540       -5.74446725524605        0.41677412896603
H           -1.67339153141624       -8.16802885470838        0.73104079707263
H           -2.44415724341011       -9.25346638717692        2.80264948141112
H           -3.50920840202282       -7.91921648385669        4.57855664521496
H           -4.09159497603576       -1.40603426272501       -1.96118606243421
H           -4.02802348908858       -1.17845094428460       -0.21373205417030
H           -4.37867435883627        1.01264998393046       -2.32644826856231
H           -5.55303754154946        0.39983523658934       -1.18253285981988
H           -4.19659191880276        1.33313222958357       -0.58970513146915
H           -0.80489440569502       -0.57467548527656       -2.73262516879988
H           -2.47158743166282       -0.39223818705222       -3.29314334407537
H           -0.72974555195904        1.70185869383003       -1.89176516407786
H           -1.26341760922730        1.66824636677785       -3.56030675508380
H           -2.43286676936221        1.97420818101351       -2.29154510393509

          :  Hamiltonian                  GFN2-xTB          :
         :: total energy             -56.439062419833 Eh    ::
         :: gradient norm              0.000642363303 Eh/a0 ::
         :: HOMO-LUMO gap              2.829648855052 eV    ::
         :: SCC energy               -57.539582336577 Eh    ::
         :: -> dispersion             -0.043209774195 Eh    ::
         :: repulsion energy           1.100519916744 Eh    ::

    * Orbital Energies and Occupations

         #    Occupation            Energy/Eh            Energy/eV
      -------------------------------------------------------------
         1        2.0000           -0.8505647             -23.1450
       ...           ...                  ...                  ...
        41        2.0000           -0.5636189             -15.3369
        42        2.0000           -0.5619575             -15.2916
        43        2.0000           -0.5580007             -15.1840
        44        2.0000           -0.5538641             -15.0714
        45        2.0000           -0.5484983             -14.9254
        46        2.0000           -0.5370079             -14.6127
        47        2.0000           -0.5347547             -14.5514
        48        2.0000           -0.5295219             -14.4090
        49        2.0000           -0.5061878             -13.7741
        50        2.0000           -0.5016335             -13.6501
        51        2.0000           -0.5006177             -13.6225
        52        2.0000           -0.4874772             -13.2649
        53        2.0000           -0.4639361             -12.6243 (HOMO)
        54                         -0.3599484              -9.7947 (LUMO)
        55                         -0.3182716              -8.6606
        56                         -0.3148685              -8.5680
        57                         -0.3021323              -8.2214
        58                         -0.2991445              -8.1401
        59                         -0.2941827              -8.0051
        60                         -0.2473100              -6.7296
        61                         -0.2121432              -5.7727
        62                         -0.2075665              -5.6482
        63                         -0.1568439              -4.2679
        64                         -0.1389170              -3.7801
       ...                                ...                  ...
       106                          1.2871497              35.0251
      -------------------------------------------------------------
                  HL-Gap            0.1039877 Eh            2.8296 eV

     #   Z          covCN         q      C6AA      α(0)
     1   6 C        1.909    -0.076    33.172     9.302
     2   6 C        1.963    -0.027    31.792     9.105
     3   6 C        3.759    -0.012    20.839     6.508
     4   7 N        3.622     0.108    19.384     6.539
     5   6 C        3.771    -0.010    20.784     6.497
     6   6 C        1.963    -0.079    33.232     9.309
     7   6 C        1.983    -0.012    31.360     9.044
     8   6 C        2.970     0.023    27.497     8.601
     9   6 C        2.927    -0.027    28.670     8.781
    10   6 C        2.914    -0.028    28.706     8.786
    11   6 C        2.919    -0.025    28.632     8.775
    12   6 C        2.986     0.019    27.583     8.615
    13   6 C        2.992     0.016    27.654     8.626
    14   6 C        2.916    -0.035    28.880     8.812
    15   6 C        2.917    -0.023    28.579     8.767
    16   6 C        2.915    -0.023    28.580     8.766
    17   6 C        2.919    -0.030    28.742     8.792
    18   6 C        3.756    -0.026    21.084     6.547
    19   6 C        3.751    -0.125    22.954     6.833
    20   6 C        3.750    -0.025    21.086     6.549
    21   6 C        3.750    -0.129    23.032     6.844
    22   1 H        0.928     0.121     1.608     1.983
    23   1 H        0.924     0.102     1.762     2.076
    24   1 H        0.924     0.104     1.750     2.069
    25   1 H        0.924     0.085     1.928     2.171
    26   1 H        0.924     0.095     1.833     2.117
    27   1 H        0.926     0.025     2.658     2.549
    28   1 H        0.926     0.045     2.383     2.414
    29   1 H        0.926     0.050     2.317     2.380
    30   1 H        0.926     0.028     2.619     2.531
    31   1 H        0.926     0.043     2.406     2.426
    32   1 H        0.926     0.048     2.343     2.394
    33   1 H        0.926     0.048     2.349     2.397
    34   1 H        0.924     0.078     1.996     2.209
    35   1 H        0.924     0.085     1.924     2.169
    36   1 H        0.925     0.068     2.107     2.270
    37   1 H        0.925     0.082     1.961     2.190
    38   1 H        0.925     0.061     2.183     2.311
    39   1 H        0.924     0.081     1.971     2.195
    40   1 H        0.924     0.079     1.992     2.207
    41   1 H        0.925     0.070     2.087     2.259
    42   1 H        0.925     0.080     1.982     2.202
    43   1 H        0.925     0.068     2.110     2.272

Wiberg/Mayer (AO) data.
largest (>0.10) Wiberg bond orders for each atom

     #   Z sym  total        # sym  WBO       # sym  WBO       # sym  WBO
 ---------------------------------------------------------------------------
     1   6 C    3.965 --     2 C    2.896    22 H    0.962
     2   6 C    3.978 --     1 C    2.896     3 C    1.048
     3   6 C    3.942 --     2 C    1.048    24 H    0.943    23 H    0.942
                             4 N    0.926
     4   7 N    3.797 --    18 C    0.932    20 C    0.929     3 C    0.926
                             5 C    0.911
     5   6 C    3.937 --     6 C    1.051    25 H    0.952    26 H    0.944
                             4 N    0.911
     6   6 C    3.934 --     7 C    2.703     5 C    1.051
     7   6 C    3.971 --     6 C    2.703     8 C    1.124
     8   6 C    3.985 --     9 C    1.450    13 C    1.210     7 C    1.124
                            11 C    0.104
     9   6 C    3.987 --     8 C    1.450    10 C    1.346    27 H    0.971
    10   6 C    3.991 --    11 C    1.536     9 C    1.346    28 H    0.969
    11   6 C    3.958 --    10 C    1.536    12 C    1.281    29 H    0.967
                             8 C    0.104
    12   6 C    3.990 --    11 C    1.281    17 C    1.277    13 C    1.254
    13   6 C    3.987 --    14 C    1.293    12 C    1.254     8 C    1.210
    14   6 C    3.992 --    15 C    1.550    13 C    1.293    30 H    0.967
                            17 C    0.118
    15   6 C    3.991 --    14 C    1.550    16 C    1.323    31 H    0.970
    16   6 C    3.991 --    17 C    1.558    15 C    1.323    32 H    0.970
    17   6 C    3.988 --    16 C    1.558    12 C    1.277    33 H    0.967
                            14 C    0.118
    18   6 C    3.936 --    19 C    1.023    34 H    0.967    35 H    0.962
                             4 N    0.932
    19   6 C    3.983 --    18 C    1.023    36 H    0.979    38 H    0.979
                            37 H    0.973
    20   6 C    3.936 --    21 C    1.021    40 H    0.969    39 H    0.968
                             4 N    0.929
    21   6 C    3.980 --    20 C    1.021    41 H    0.979    43 H    0.978
                            42 H    0.973
    22   1 H    0.985 --     1 C    0.962
    23   1 H    0.989 --     3 C    0.942
    24   1 H    0.989 --     3 C    0.943
    25   1 H    0.990 --     5 C    0.952
    26   1 H    0.986 --     5 C    0.944
    27   1 H    0.999 --     9 C    0.971
    28   1 H    0.996 --    10 C    0.969
    29   1 H    0.997 --    11 C    0.967
    30   1 H    0.999 --    14 C    0.967
    31   1 H    0.998 --    15 C    0.970
    32   1 H    0.997 --    16 C    0.970
    33   1 H    0.997 --    17 C    0.967
    34   1 H    0.993 --    18 C    0.967
    35   1 H    0.993 --    18 C    0.962
    36   1 H    0.995 --    19 C    0.979
    37   1 H    0.993 --    19 C    0.973
    38   1 H    0.996 --    19 C    0.979
    39   1 H    0.993 --    20 C    0.968
    40   1 H    0.994 --    20 C    0.969
    41   1 H    0.995 --    21 C    0.979
    42   1 H    0.993 --    21 C    0.973
    43   1 H    0.995 --    21 C    0.978
 ---------------------------------------------------------------------------

molecular dipole:
                 x           y           z       tot (Debye)
 q only:       -4.458      -2.059      -1.326
   full:       -4.437      -2.083      -1.426      12.975

           -------------------------------------------------
          | TOTAL ENERGY              -56.439062419833 Eh   |
          | GRADIENT NORM               0.000642363303 Eh/α |
          | HOMO-LUMO GAP               2.829648855052 eV   |
           -------------------------------------------------

 * finished run on 2024/12/20 at 02:15:12.905
