   * xtb version 6.7.1 (edcfbbe) compiled by 'conda@3ef47c1a292c' on 2024-11-25

   ID    Z sym.   atoms
    1    6 C      1, 3-8, 10, 11, 13, 15, 16, 18, 19
    2    8 O      2, 9, 12
    3    7 N      14, 17
    4    1 H      20-36

          program call               : xtb C0333.xyz --opt --namespace C0333 --charge +1
          :  Hamiltonian                  GFN2-xTB          :
 * total energy  :   -56.2871896 Eh     change       -0.5654854E-09 Eh
 * total energy  :   -56.2952123 Eh     change       -0.8022762E-02 Eh
 * total energy  :   -56.2980145 Eh     change       -0.2802108E-02 Eh
 * total energy  :   -56.2987994 Eh     change       -0.7849206E-03 Eh
 * total energy  :   -56.2996410 Eh     change       -0.8415807E-03 Eh
 * total energy  :   -56.3001765 Eh     change       -0.5355427E-03 Eh
 * total energy  :   -56.3008294 Eh     change       -0.6528688E-03 Eh
 * total energy  :   -56.3013688 Eh     change       -0.5394025E-03 Eh
 * total energy  :   -56.3017452 Eh     change       -0.3764245E-03 Eh
 * total energy  :   -56.3018650 Eh     change       -0.1197928E-03 Eh
 * total energy  :   -56.3120631 Eh     change       -0.7741286E-05 Eh
 * total energy  :   -56.3120741 Eh     change       -0.1091636E-04 Eh
 * total energy  :   -56.3120888 Eh     change       -0.1471234E-04 Eh
 * total energy  :   -56.3121039 Eh     change       -0.1510446E-04 Eh
 * total energy  :   -56.3121200 Eh     change       -0.1614974E-04 Eh
 * total energy  :   -56.3121344 Eh     change       -0.1434666E-04 Eh
 * total energy  :   -56.3121441 Eh     change       -0.9697188E-05 Eh
 * total energy  :   -56.3121502 Eh     change       -0.6096129E-05 Eh
 * total energy  :   -56.3121544 Eh     change       -0.4189274E-05 Eh
   *** GEOMETRY OPTIMIZATION CONVERGED AFTER 129 ITERATIONS ***

 final structure:
================
36
 xtb: 6.7.1 (edcfbbe)
C            0.02087938766181        0.62018287220869       -1.09516238425066
O            0.99322132804668       -0.34413254523797       -0.75559907711723
C            1.43982214876635       -1.19685263908707       -1.71421285285688
C            0.99595689375639       -1.17509559026952       -3.02046240540797
C            1.46646527180837       -2.07584541216536       -3.99298849904393
C            2.42816124053358       -3.02191411166065       -3.62067325165463
C            2.88507291398063       -3.04637844158477       -2.32739384542770
C            2.41794139846353       -2.16040893191691       -1.34548531064522
O            2.97150252054763       -2.33813497403224       -0.14583795000451
C            2.64217033215437       -1.55527630703716        0.98749388578728
C            0.92945181679732       -1.94497313963111       -5.32488983293163
O            0.17596837896102       -1.06668015189533       -5.69897558625491
C            1.37010681022126       -3.01507209404074       -6.37607927678711
N            0.53726079783658       -2.85397652720301       -7.52820739877505
C           -0.42382254806260       -3.71180168631000       -7.97555030179341
C           -1.13829425637187       -3.05645891936820       -8.92939079385408
N           -0.61441243727685       -1.80266836553576       -9.04092509697311
C            0.38909628698240       -1.69730385786883       -8.17448868646323
C           -1.09705183788168       -0.77184679336337       -9.91885965236703
H           -0.90539231449742        0.15078614507904       -1.43828625282391
H            0.39074698817761        1.31008312034732       -1.85875067691158
H           -0.17185893866732        1.16916186159525       -0.17541872659551
H            0.25848124650947       -0.45648577342207       -3.33925131633879
H            2.83404018460938       -3.72422130225925       -4.32993786867706
H            3.63112022276884       -3.76064772607786       -2.01814094284750
H            2.88076979765762       -0.50285330654814        0.83029701251722
H            1.58853106136834       -1.65471291851372        1.25056958408106
H            3.25935740013143       -1.95440233051376        1.79123558493140
H            2.41859057237051       -2.83459283816087       -6.62664814659439
H            1.25373204278588       -4.02262653252280       -5.97933496379741
H           -0.52882453314215       -4.70842011936595       -7.59837846989847
H           -1.96617305716628       -3.38956356485074       -9.52101345269888
H            1.00094151538660       -0.82771064483895       -8.03910070245384
H           -0.39803641885805        0.06136476716052       -9.92888264227986
H           -1.20616637085786       -1.16304526535395      -10.93017831581626
H           -2.06900584556004       -0.41223595576592       -9.57701138695811

          :  Hamiltonian                  GFN2-xTB          :
         :: total energy             -56.312154352753 Eh    ::
         :: gradient norm              0.000347318887 Eh/a0 ::
         :: HOMO-LUMO gap              2.108651997579 eV    ::
         :: SCC energy               -57.076058508139 Eh    ::
         :: -> dispersion             -0.032502602638 Eh    ::
         :: repulsion energy           0.763904155385 Eh    ::

    * Orbital Energies and Occupations

         #    Occupation            Energy/Eh            Energy/eV
      -------------------------------------------------------------
         1        2.0000           -0.8769163             -23.8621
       ...           ...                  ...                  ...
        38        2.0000           -0.5906441             -16.0722
        39        2.0000           -0.5862800             -15.9535
        40        2.0000           -0.5841474             -15.8955
        41        2.0000           -0.5763493             -15.6833
        42        2.0000           -0.5684588             -15.4686
        43        2.0000           -0.5579473             -15.1825
        44        2.0000           -0.5536638             -15.0660
        45        2.0000           -0.5499212             -14.9641
        46        2.0000           -0.5444925             -14.8164
        47        2.0000           -0.5290929             -14.3974
        48        2.0000           -0.5217955             -14.1988
        49        2.0000           -0.5039827             -13.7141
        50        2.0000           -0.4721262             -12.8472 (HOMO)
        51                         -0.3946346             -10.7386 (LUMO)
        52                         -0.3859738             -10.5029
        53                         -0.3544747              -9.6457
        54                         -0.3248661              -8.8401
        55                         -0.2959759              -8.0539
        56                         -0.1915936              -5.2135
        57                         -0.1623076              -4.4166
        58                         -0.1128201              -3.0700
        59                         -0.0836639              -2.2766
        60                         -0.0764287              -2.0797
        61                         -0.0603569              -1.6424
       ...                                ...                  ...
        93                          0.5584437              15.1960
      -------------------------------------------------------------
                  HL-Gap            0.0774915 Eh            2.1087 eV

     #   Z          covCN         q      C6AA      α(0)
     1   6 C        3.642     0.027    20.472     6.505
     2   8 O        1.704    -0.256    18.250     5.768
     3   6 C        2.854     0.124    25.283     8.241
     4   6 C        2.927    -0.058    29.434     8.897
     5   6 C        2.969    -0.033    28.814     8.805
     6   6 C        2.914    -0.038    28.946     8.822
     7   6 C        2.920    -0.054    29.337     8.882
     8   6 C        2.853     0.151    24.729     8.150
     9   8 O        1.707    -0.211    17.514     5.650
    10   6 C        3.636     0.019    20.628     6.535
    11   6 C        2.825     0.221    23.346     7.917
    12   8 O        0.857    -0.383    21.345     6.194
    13   6 C        3.744    -0.052    21.577     6.626
    14   7 N        2.872     0.073    19.962     6.636
    15   6 C        3.066    -0.008    28.156     8.701
    16   6 C        3.070    -0.009    28.178     8.704
    17   7 N        2.866     0.075    19.930     6.631
    18   6 C        3.095     0.059    26.563     8.447
    19   6 C        3.692    -0.084    22.302     6.757
    20   1 H        0.924     0.051     2.307     2.375
    21   1 H        0.924     0.052     2.299     2.371
    22   1 H        0.925     0.078     1.995     2.209
    23   1 H        0.926     0.077     2.009     2.216
    24   1 H        0.926     0.050     2.324     2.384
    25   1 H        0.926     0.079     1.985     2.203
    26   1 H        0.924     0.070     2.090     2.261
    27   1 H        0.924     0.069     2.093     2.262
    28   1 H        0.925     0.082     1.960     2.189
    29   1 H        0.924     0.097     1.810     2.104
    30   1 H        0.925     0.098     1.806     2.102
    31   1 H        0.926     0.102     1.769     2.080
    32   1 H        0.926     0.106     1.735     2.060
    33   1 H        0.926     0.121     1.605     1.981
    34   1 H        0.925     0.098     1.802     2.099
    35   1 H        0.925     0.102     1.764     2.077
    36   1 H        0.924     0.106     1.733     2.058

Wiberg/Mayer (AO) data.
largest (>0.10) Wiberg bond orders for each atom

     #   Z sym  total        # sym  WBO       # sym  WBO       # sym  WBO
 ---------------------------------------------------------------------------
     1   6 C    3.934 --    22 H    0.977    20 H    0.976    21 H    0.976
                             2 O    0.974
     2   8 O    2.248 --     3 C    1.077     1 C    0.974
     3   6 C    3.944 --     4 C    1.439     8 C    1.235     2 O    1.077
     4   6 C    3.985 --     3 C    1.439     5 C    1.301    23 H    0.958
     5   6 C    3.979 --     6 C    1.323     4 C    1.301    11 C    1.130
     6   6 C    3.991 --     7 C    1.505     5 C    1.323    24 H    0.965
     7   6 C    3.983 --     6 C    1.505     8 C    1.320    25 H    0.963
     8   6 C    3.944 --     7 C    1.320     3 C    1.235     9 O    1.156
     9   8 O    2.311 --     8 C    1.156    10 C    0.960
    10   6 C    3.918 --    28 H    0.977    27 H    0.974    26 H    0.973
                             9 O    0.960
    11   6 C    3.922 --    12 O    1.749     5 C    1.130    13 C    0.910
    12   8 O    2.069 --    11 C    1.749
    13   6 C    3.944 --    14 N    0.997    30 H    0.959    29 H    0.945
                            11 C    0.910
    14   7 N    3.709 --    18 C    1.342    15 C    1.213    13 C    0.997
    15   6 C    3.948 --    16 C    1.602    14 N    1.213    31 H    0.962
    16   6 C    3.948 --    15 C    1.602    17 N    1.218    32 H    0.962
    17   7 N    3.714 --    18 C    1.357    16 C    1.218    19 C    0.991
    18   6 C    3.945 --    17 N    1.357    14 N    1.342    33 H    0.952
    19   6 C    3.936 --    17 N    0.991    34 H    0.976    35 H    0.967
                            36 H    0.961
    20   1 H    0.997 --     1 C    0.976
    21   1 H    0.997 --     1 C    0.976
    22   1 H    0.993 --     1 C    0.977
    23   1 H    0.994 --     4 C    0.958
    24   1 H    0.997 --     6 C    0.965
    25   1 H    0.993 --     7 C    0.963
    26   1 H    0.993 --    10 C    0.973
    27   1 H    0.993 --    10 C    0.974
    28   1 H    0.993 --    10 C    0.977
    29   1 H    0.989 --    13 C    0.945
    30   1 H    0.990 --    13 C    0.959
    31   1 H    0.989 --    15 C    0.962
    32   1 H    0.989 --    16 C    0.962
    33   1 H    0.985 --    18 C    0.952
    34   1 H    0.990 --    19 C    0.976
    35   1 H    0.989 --    19 C    0.967
    36   1 H    0.988 --    19 C    0.961
 ---------------------------------------------------------------------------

molecular dipole:
                 x           y           z       tot (Debye)
 q only:        0.701      -3.969     -12.545
   full:        0.693      -3.946     -12.620      33.656

           -------------------------------------------------
          | TOTAL ENERGY              -56.312154352753 Eh   |
          | GRADIENT NORM               0.000347318887 Eh/α |
          | HOMO-LUMO GAP               2.108651997579 eV   |
           -------------------------------------------------

 * finished run on 2024/12/20 at 02:15:30.210
