   * xtb version 6.7.1 (edcfbbe) compiled by 'conda@3ef47c1a292c' on 2024-11-25

   ID    Z sym.   atoms
    1    6 C      1, 3, 4, 6, 7, 9, 10, 12, 13, 15-17
    2    8 O      2, 5, 11, 14
    3    7 N      8
    4    1 H      18-45

          program call               : xtb C0335.xyz --opt --namespace C0335 --charge +1
          :  Hamiltonian                  GFN2-xTB          :
 * total energy  :   -58.7262707 Eh     change       -0.2960121E-10 Eh
 * total energy  :   -58.7357320 Eh     change       -0.9461261E-02 Eh
 * total energy  :   -58.7386316 Eh     change       -0.2899623E-02 Eh
 * total energy  :   -58.7389608 Eh     change       -0.3292651E-03 Eh
 * total energy  :   -58.7393773 Eh     change       -0.4164114E-03 Eh
 * total energy  :   -58.7395339 Eh     change       -0.1566220E-03 Eh
 * total energy  :   -58.7398552 Eh     change       -0.3212809E-03 Eh
 * total energy  :   -58.7400798 Eh     change       -0.2246515E-03 Eh
 * total energy  :   -58.7402244 Eh     change       -0.1445972E-03 Eh
 * total energy  :   -58.7402750 Eh     change       -0.5056081E-04 Eh
 * total energy  :   -58.7443641 Eh     change       -0.5651360E-05 Eh
 * total energy  :   -58.7443712 Eh     change       -0.7163673E-05 Eh
 * total energy  :   -58.7443803 Eh     change       -0.9029069E-05 Eh
 * total energy  :   -58.7443906 Eh     change       -0.1033676E-04 Eh
 * total energy  :   -58.7444007 Eh     change       -0.1008081E-04 Eh
 * total energy  :   -58.7444091 Eh     change       -0.8428606E-05 Eh
 * total energy  :   -58.7444156 Eh     change       -0.6504908E-05 Eh
 * total energy  :   -58.7444207 Eh     change       -0.5091584E-05 Eh
 * total energy  :   -58.7444251 Eh     change       -0.4383145E-05 Eh
   *** GEOMETRY OPTIMIZATION CONVERGED AFTER 102 ITERATIONS ***

 final structure:
================
45
 xtb: 6.7.1 (edcfbbe)
C            4.38658974914592        1.09571179653789        0.69717861684745
O            3.18482868305433        1.14868560760369       -0.03829465207171
C            3.20948222698159        2.10253815918908       -1.07820371395064
C            1.98525148924393        1.90862477834987       -1.97223890444759
O            0.78214439367977        2.42680052703077       -1.43709100269007
C            0.32668807367594        1.74887535973738       -0.28334602315176
C           -0.95792066143020        2.39325397026576        0.23637639726642
N           -2.16767660312593        2.27145759557123       -0.62960379759950
C           -2.42337053213968        0.86883256083593       -1.07178280115192
C           -2.42870759848904       -0.20431328533018        0.01627832079244
O           -3.52918332637973       -0.01657001983691        0.88337825774853
C           -3.62506032626680       -0.98536683150017        1.91031809620010
C           -3.94183511718904       -2.39747222706255        1.41913960829230
O           -2.77177643381270       -2.98129237952364        0.88812541537445
C           -2.90706502487339       -4.36008173894043        0.62622284566012
C           -3.33235981248362        2.77206680974929        0.12879783227855
C           -2.00301454359834        3.11337928588355       -1.83223577767903
H            4.25126824389524        0.32403038469906        1.45135026872144
H            4.59588103926327        2.05446952610518        1.18414693420492
H            5.23103919273601        0.83338081908069        0.05161165357959
H            3.21781238735592        3.12330230509890       -0.66729344691174
H            4.11152565425957        1.96938318012778       -1.69104857408100
H            2.12917888305759        2.45181506034600       -2.90731431965179
H            1.87055430461879        0.83638545462512       -2.17989810635476
H            0.20202304388714        0.68155653005927       -0.50902363487467
H            1.07333218600820        1.82136711728882        0.51706533073053
H           -1.19368881935058        1.95837847710236        1.20810191400755
H           -0.76390188768913        3.45964254910050        0.36846069822364
H           -3.40341036361019        0.85773565672411       -1.55310948757255
H           -1.66768682354423        0.60576240334495       -1.81251832227509
H           -2.50521951532499       -1.17629066951466       -0.48650727123131
H           -1.49873272101702       -0.21819704714261        0.59988786033413
H           -2.68867599983700       -1.01656064439195        2.48318972545623
H           -4.43626851694056       -0.63287424697147        2.54893146748521
H           -4.30497710346443       -2.98818670124683        2.27129981678290
H           -4.73645926444655       -2.36224105410562        0.65874288179959
H           -3.14501006245085       -4.91227357282925        1.54117331781991
H           -3.69069636761644       -4.54754083425006       -0.11602914914906
H           -1.94783085011764       -4.69446982406525        0.23810582493005
H           -3.11801549819995        3.75681474311983        0.53884825797735
H           -4.19458208885406        2.84709979475368       -0.53086008303063
H           -3.57765761340766        2.08056885746516        0.93246654642528
H           -1.97816510827547        4.16258664586251       -1.54457084537122
H           -1.06429442529405        2.87388629006883       -2.32788793682998
H           -2.83447654165406        2.95711883107093       -2.51639003889813

          :  Hamiltonian                  GFN2-xTB          :
         :: total energy             -58.744425078745 Eh    ::
         :: gradient norm              0.000162337184 Eh/a0 ::
         :: HOMO-LUMO gap              7.540089907805 eV    ::
         :: SCC energy               -59.350586582038 Eh    ::
         :: -> dispersion             -0.033243811338 Eh    ::
         :: repulsion energy           0.606161503293 Eh    ::

    * Orbital Energies and Occupations

         #    Occupation            Energy/Eh            Energy/eV
      -------------------------------------------------------------
         1        2.0000           -0.8506510             -23.1474
       ...           ...                  ...                  ...
        40        2.0000           -0.6006337             -16.3441
        41        2.0000           -0.5842270             -15.8976
        42        2.0000           -0.5801480             -15.7866
        43        2.0000           -0.5737970             -15.6138
        44        2.0000           -0.5730834             -15.5944
        45        2.0000           -0.5624821             -15.3059
        46        2.0000           -0.5614169             -15.2769
        47        2.0000           -0.5463125             -14.8659
        48        2.0000           -0.5462081             -14.8631
        49        2.0000           -0.5231222             -14.2349
        50        2.0000           -0.5200784             -14.1521
        51        2.0000           -0.4950488             -13.4710
        52        2.0000           -0.4950027             -13.4697 (HOMO)
        53                         -0.2179095              -5.9296 (LUMO)
        54                         -0.1587195              -4.3190
        55                         -0.1392258              -3.7885
        56                         -0.1318144              -3.5869
        57                         -0.1115433              -3.0352
        58                         -0.1071201              -2.9149
        59                         -0.0724571              -1.9717
        60                         -0.0695246              -1.8919
        61                         -0.0523954              -1.4258
        62                         -0.0359673              -0.9787
        63                         -0.0349508              -0.9511
       ...                                ...                  ...
        96                          0.1765429               4.8040
      -------------------------------------------------------------
                  HL-Gap            0.2770932 Eh            7.5401 eV

     #   Z          covCN         q      C6AA      α(0)
     1   6 C        3.651     0.034    20.316     6.473
     2   8 O        1.700    -0.324    19.412     5.949
     3   6 C        3.700     0.070    19.564     6.325
     4   6 C        3.696     0.065    19.656     6.342
     5   8 O        1.700    -0.319    19.326     5.935
     6   6 C        3.696     0.065    19.659     6.343
     7   6 C        3.760    -0.045    21.427     6.599
     8   7 N        3.621     0.138    18.888     6.455
     9   6 C        3.760    -0.045    21.427     6.599
    10   6 C        3.696     0.065    19.659     6.343
    11   8 O        1.700    -0.319    19.326     5.935
    12   6 C        3.696     0.065    19.656     6.342
    13   6 C        3.700     0.070    19.564     6.325
    14   8 O        1.700    -0.324    19.412     5.949
    15   6 C        3.651     0.034    20.316     6.473
    16   6 C        3.725    -0.106    22.644     6.795
    17   6 C        3.725    -0.106    22.644     6.795
    18   1 H        0.925     0.067     2.115     2.274
    19   1 H        0.924     0.037     2.491     2.468
    20   1 H        0.924     0.042     2.427     2.436
    21   1 H        0.923     0.040     2.455     2.451
    22   1 H        0.923     0.041     2.433     2.439
    23   1 H        0.924     0.070     2.087     2.259
    24   1 H        0.923     0.048     2.340     2.392
    25   1 H        0.923     0.048     2.351     2.398
    26   1 H        0.924     0.086     1.921     2.167
    27   1 H        0.924     0.095     1.831     2.116
    28   1 H        0.924     0.102     1.763     2.077
    29   1 H        0.924     0.102     1.763     2.077
    30   1 H        0.924     0.095     1.831     2.116
    31   1 H        0.924     0.086     1.920     2.167
    32   1 H        0.923     0.048     2.351     2.398
    33   1 H        0.923     0.048     2.340     2.392
    34   1 H        0.924     0.070     2.087     2.259
    35   1 H        0.923     0.041     2.433     2.439
    36   1 H        0.923     0.040     2.455     2.451
    37   1 H        0.924     0.042     2.427     2.436
    38   1 H        0.924     0.037     2.491     2.468
    39   1 H        0.925     0.067     2.115     2.274
    40   1 H        0.925     0.092     1.855     2.130
    41   1 H        0.925     0.099     1.798     2.097
    42   1 H        0.925     0.125     1.573     1.961
    43   1 H        0.925     0.099     1.798     2.097
    44   1 H        0.925     0.125     1.573     1.961
    45   1 H        0.925     0.092     1.855     2.130

Wiberg/Mayer (AO) data.
largest (>0.10) Wiberg bond orders for each atom

     #   Z sym  total        # sym  WBO       # sym  WBO       # sym  WBO
 ---------------------------------------------------------------------------
     1   6 C    3.943 --     2 O    0.986    18 H    0.979    19 H    0.979
                            20 H    0.977
     2   8 O    2.066 --     3 C    0.987     1 C    0.986
     3   6 C    3.958 --     4 C    0.995     2 O    0.987    21 H    0.965
                            22 H    0.965
     4   6 C    3.946 --     3 C    0.995     5 O    0.973    23 H    0.967
                            24 H    0.965
     5   8 O    2.077 --     6 C    0.986     4 C    0.973
     6   6 C    3.952 --     7 C    1.006     5 O    0.986    25 H    0.959
                            26 H    0.952
     7   6 C    3.938 --     6 C    1.006    27 H    0.965    28 H    0.963
                             8 N    0.934
     8   7 N    3.814 --    17 C    0.954    16 C    0.954     7 C    0.934
                             9 C    0.934
     9   6 C    3.938 --    10 C    1.006    30 H    0.965    29 H    0.963
                             8 N    0.934
    10   6 C    3.952 --     9 C    1.006    11 O    0.986    32 H    0.959
                            31 H    0.952
    11   8 O    2.077 --    10 C    0.986    12 C    0.973
    12   6 C    3.946 --    13 C    0.995    11 O    0.973    34 H    0.967
                            33 H    0.965
    13   6 C    3.958 --    12 C    0.995    14 O    0.987    36 H    0.965
                            35 H    0.965
    14   8 O    2.066 --    13 C    0.987    15 C    0.986
    15   6 C    3.943 --    14 O    0.986    39 H    0.979    38 H    0.979
                            37 H    0.977
    16   6 C    3.917 --    40 H    0.976    41 H    0.975    42 H    0.960
                             8 N    0.954
    17   6 C    3.917 --    45 H    0.976    43 H    0.975    44 H    0.960
                             8 N    0.954
    18   1 H    0.995 --     1 C    0.979
    19   1 H    0.999 --     1 C    0.979
    20   1 H    0.998 --     1 C    0.977
    21   1 H    0.998 --     3 C    0.965
    22   1 H    0.998 --     3 C    0.965
    23   1 H    0.995 --     4 C    0.967
    24   1 H    0.998 --     4 C    0.965
    25   1 H    0.998 --     6 C    0.959
    26   1 H    0.992 --     6 C    0.952
    27   1 H    0.991 --     7 C    0.965
    28   1 H    0.990 --     7 C    0.963
    29   1 H    0.990 --     9 C    0.963
    30   1 H    0.991 --     9 C    0.965
    31   1 H    0.992 --    10 C    0.952
    32   1 H    0.998 --    10 C    0.959
    33   1 H    0.998 --    12 C    0.965
    34   1 H    0.995 --    12 C    0.967
    35   1 H    0.998 --    13 C    0.965
    36   1 H    0.998 --    13 C    0.965
    37   1 H    0.998 --    15 C    0.977
    38   1 H    0.999 --    15 C    0.979
    39   1 H    0.995 --    15 C    0.979
    40   1 H    0.991 --    16 C    0.976
    41   1 H    0.990 --    16 C    0.975
    42   1 H    0.984 --    16 C    0.960
    43   1 H    0.990 --    17 C    0.975
    44   1 H    0.984 --    17 C    0.960
    45   1 H    0.991 --    17 C    0.976
 ---------------------------------------------------------------------------

molecular dipole:
                 x           y           z       tot (Debye)
 q only:       -3.209       3.100      -0.796
   full:       -3.040       2.874      -0.721      10.791

           -------------------------------------------------
          | TOTAL ENERGY              -58.744425078745 Eh   |
          | GRADIENT NORM               0.000162337184 Eh/α |
          | HOMO-LUMO GAP               7.540089907805 eV   |
           -------------------------------------------------

 * finished run on 2024/12/20 at 02:15:36.351
