   * xtb version 6.7.1 (edcfbbe) compiled by 'conda@3ef47c1a292c' on 2024-11-25

   ID    Z sym.   atoms
    1    6 C      1-18, 20, 21, 23, 24
    2    7 N      19, 22
    3    1 H      25-67

          program call               : xtb C0336.xyz --opt --namespace C0336 --charge +1
          :  Hamiltonian                  GFN2-xTB          :
 * total energy  :   -74.4509692 Eh     change       -0.1239613E-09 Eh
 * total energy  :   -74.4571494 Eh     change       -0.6180215E-02 Eh
 * total energy  :   -74.4582423 Eh     change       -0.1092917E-02 Eh
 * total energy  :   -74.4584974 Eh     change       -0.2550839E-03 Eh
 * total energy  :   -74.4586307 Eh     change       -0.1332771E-03 Eh
 * total energy  :   -74.4586901 Eh     change       -0.5942678E-04 Eh
 * total energy  :   -74.4587692 Eh     change       -0.7907500E-04 Eh
 * total energy  :   -74.4588748 Eh     change       -0.1055902E-03 Eh
 * total energy  :   -74.4590037 Eh     change       -0.1289047E-03 Eh
 * total energy  :   -74.4591268 Eh     change       -0.1231505E-03 Eh
 * total energy  :   -74.4600500 Eh     change       -0.3293522E-04 Eh
 * total energy  :   -74.4600675 Eh     change       -0.1749731E-04 Eh
 * total energy  :   -74.4600817 Eh     change       -0.1424923E-04 Eh
 * total energy  :   -74.4601032 Eh     change       -0.2147874E-04 Eh
 * total energy  :   -74.4601146 Eh     change       -0.1141524E-04 Eh
 * total energy  :   -74.4601431 Eh     change       -0.2847847E-04 Eh
 * total energy  :   -74.4601534 Eh     change       -0.1031247E-04 Eh
 * total energy  :   -74.4601596 Eh     change       -0.6162321E-05 Eh
 * total energy  :   -74.4601645 Eh     change       -0.4890985E-05 Eh
   *** GEOMETRY OPTIMIZATION CONVERGED AFTER 33 ITERATIONS ***

 final structure:
================
67
 xtb: 6.7.1 (edcfbbe)
C            1.22789502888398        0.47569211586153        0.20088036331431
C            1.07883113289567        1.01298100567990       -1.21762206652001
C            1.37341486054720       -0.03322948927472       -2.29365880727911
C            0.44317758918725       -1.24806846776746       -2.28599095956231
C           -1.04060266558051       -0.92888335230222       -2.47844016111365
C           -1.38279447358429       -0.20407563795654       -3.78192432575082
C           -0.95744253230721       -0.93030404396485       -5.05972018215083
C           -1.51635105727174       -2.35179019033754       -5.21237513495034
C           -3.00821600478274       -2.38231912236239       -5.28000071238109
C           -3.70442543911834       -2.80506722469103       -6.32156637696272
C           -5.20023347710699       -2.82726667278945       -6.38301706124091
C           -5.76511814687195       -1.82542452360191       -7.39946975122712
C           -5.33236975732124       -2.06906437202605       -8.84665421852618
C           -5.68380422254965       -3.44984276722056       -9.40422458773038
C           -7.17130795061044       -3.80787395461312       -9.35509418957882
C           -8.08833524838018       -2.83663852865703      -10.10291976043867
C           -7.79360073765240       -2.68368629885303      -11.59581656794543
C           -7.92580287151217       -3.97153803003113      -12.41530859067358
N           -9.26120145140203       -4.52731291303860      -12.40721869812385
C          -10.37068562992316       -3.94354680648333      -12.91054175811295
C          -11.49016933922634       -4.59493074122119      -12.57251028582001
N          -11.12752968045337       -5.78595363941913      -11.77561659975010
C           -9.65475612107833       -5.62755068367805      -11.55213240165874
C          -11.48106427999583       -7.03661997746329      -12.47943303493567
H            0.47747019422698       -0.28090245811457        0.41522141428433
H            1.11057306250494        1.28066613112895        0.92287636175221
H            2.21233898903900        0.03361623861079        0.33868913636526
H            0.07165351911510        1.41140074213219       -1.35204881264950
H            1.77630175786747        1.84325893827331       -1.35419357447695
H            1.32859416259034        0.45030640065248       -3.27181625134409
H            2.39704887709510       -0.39212226154057       -2.15736012674625
H            0.77049953460856       -1.93155188668954       -3.07261326887622
H            0.55691718651371       -1.77800931482794       -1.33815939958351
H           -1.60069777156881       -1.86566227300097       -2.42796261888636
H           -1.38511974209576       -0.31084364790317       -1.64690515096975
H           -2.46191767847891       -0.03509168377867       -3.80702617204367
H           -0.90816070388672        0.77924358746780       -3.77976792409306
H           -1.28456109831509       -0.33536758532249       -5.91675333957868
H            0.13190756584855       -0.98493225632621       -5.09787254931960
H           -1.10255526414815       -2.79168104053897       -6.12304368181445
H           -1.18402722114240       -2.95966616819660       -4.36781794525420
H           -3.52720576408658       -2.03118454550016       -4.39795048477696
H           -3.18760087008491       -3.16740934591820       -7.20104775801978
H           -5.53933999040658       -3.83604006483824       -6.63396331231987
H           -5.60311157396990       -2.57793183832207       -5.39901724963663
H           -6.85582631896653       -1.83594398510608       -7.33302081230257
H           -5.43288200436898       -0.82514632221841       -7.11373769324707
H           -5.78035118533092       -1.29524573710275       -9.47450400207357
H           -4.25073061738025       -1.94540175351228       -8.91587744765844
H           -5.32828863681605       -3.50635272312414      -10.43581205465501
H           -5.13929351393859       -4.20944419538495       -8.84111725104876
H           -7.28756759194169       -4.82109755938159       -9.75308584005888
H           -7.49303976208840       -3.83733450131020       -8.31286174924320
H           -9.13002816015361       -3.14479747910005       -9.96681911828536
H           -7.99551934831601       -1.85172339372331       -9.64549720545752
H           -8.47163406698811       -1.93334376529724      -12.00742137637393
H           -6.77812469518105       -2.31258517293872      -11.72816792648225
H           -7.65543301554529       -3.76057608675641      -13.45388869283534
H           -7.24546723843158       -4.73588645071298      -12.03931460852750
H          -10.30031294855547       -3.06331951972054      -13.52002163852213
H          -12.51018217923404       -4.43238413880815      -12.84027856616906
H          -11.62959951578993       -5.78214643470465      -10.88215091773722
H           -9.12882031619607       -6.54859486921347      -11.83120535991282
H           -9.44804139942154       -5.40743743860342      -10.49621216302000
H          -11.19461677596499       -7.90316833381751      -11.88575814131825
H          -12.55483213933347       -7.06680299444409      -12.65595734195149
H          -10.96893326607321       -7.06297849627228      -13.43961151601960

          :  Hamiltonian                  GFN2-xTB          :
         :: total energy             -74.460164474475 Eh    ::
         :: gradient norm              0.000518038855 Eh/a0 ::
         :: HOMO-LUMO gap              2.119556530147 eV    ::
         :: SCC energy               -75.575511318507 Eh    ::
         :: -> dispersion             -0.055898984619 Eh    ::
         :: repulsion energy           1.115346844032 Eh    ::

    * Orbital Energies and Occupations

         #    Occupation            Energy/Eh            Energy/eV
      -------------------------------------------------------------
         1        2.0000           -0.8781244             -23.8950
       ...           ...                  ...                  ...
        58        2.0000           -0.5000913             -13.6082
        59        2.0000           -0.4955056             -13.4834
        60        2.0000           -0.4902512             -13.3404
        61        2.0000           -0.4878727             -13.2757
        62        2.0000           -0.4801341             -13.0651
        63        2.0000           -0.4768854             -12.9767
        64        2.0000           -0.4699337             -12.7875
        65        2.0000           -0.4661412             -12.6843
        66        2.0000           -0.4620071             -12.5719
        67        2.0000           -0.4529426             -12.3252
        68        2.0000           -0.4485623             -12.2060
        69        2.0000           -0.4473935             -12.1742
        70        2.0000           -0.4350474             -11.8382 (HOMO)
        71                         -0.3571551              -9.7187 (LUMO)
        72                         -0.2455180              -6.6809
        73                         -0.2392929              -6.5115
        74                         -0.1749411              -4.7604
        75                         -0.1646280              -4.4798
        76                         -0.1342890              -3.6542
        77                         -0.1113427              -3.0298
        78                         -0.0600129              -1.6330
        79                         -0.0398696              -1.0849
        80                         -0.0288141              -0.7841
        81                         -0.0185758              -0.5055
       ...                                ...                  ...
       139                          0.5925676              16.1246
      -------------------------------------------------------------
                  HL-Gap            0.0778923 Eh            2.1196 eV

     #   Z          covCN         q      C6AA      α(0)
     1   6 C        3.751    -0.101    22.497     6.764
     2   6 C        3.799    -0.052    21.505     6.603
     3   6 C        3.800    -0.057    21.598     6.617
     4   6 C        3.800    -0.057    21.594     6.616
     5   6 C        3.800    -0.056    21.573     6.613
     6   6 C        3.800    -0.056    21.575     6.613
     7   6 C        3.801    -0.053    21.522     6.605
     8   6 C        3.805    -0.057    21.603     6.617
     9   6 C        2.890    -0.040    28.991     8.828
    10   6 C        2.890    -0.051    29.257     8.868
    11   6 C        3.805    -0.057    21.597     6.616
    12   6 C        3.801    -0.055    21.560     6.611
    13   6 C        3.800    -0.059    21.638     6.623
    14   6 C        3.800    -0.059    21.645     6.624
    15   6 C        3.799    -0.059    21.638     6.623
    16   6 C        3.800    -0.061    21.681     6.630
    17   6 C        3.800    -0.073    21.889     6.661
    18   6 C        3.738    -0.017    20.968     6.534
    19   7 N        2.785    -0.057    22.331     7.018
    20   6 C        2.916     0.029    27.360     8.577
    21   6 C        2.909    -0.082    30.049     8.989
    22   7 N        3.608     0.055    20.273     6.687
    23   6 C        3.768     0.031    20.083     6.387
    24   6 C        3.694    -0.092    22.450     6.779
    25   1 H        0.925     0.034     2.533     2.489
    26   1 H        0.925     0.031     2.568     2.506
    27   1 H        0.925     0.034     2.535     2.490
    28   1 H        0.924     0.030     2.587     2.515
    29   1 H        0.924     0.027     2.633     2.537
    30   1 H        0.924     0.028     2.614     2.529
    31   1 H        0.924     0.028     2.608     2.526
    32   1 H        0.924     0.028     2.620     2.531
    33   1 H        0.924     0.031     2.568     2.506
    34   1 H        0.924     0.027     2.633     2.538
    35   1 H        0.924     0.032     2.563     2.504
    36   1 H        0.924     0.026     2.639     2.540
    37   1 H        0.924     0.032     2.552     2.498
    38   1 H        0.924     0.025     2.654     2.548
    39   1 H        0.924     0.035     2.517     2.481
    40   1 H        0.924     0.028     2.608     2.526
    41   1 H        0.924     0.044     2.393     2.419
    42   1 H        0.925     0.033     2.544     2.494
    43   1 H        0.925     0.024     2.669     2.555
    44   1 H        0.924     0.029     2.595     2.519
    45   1 H        0.924     0.033     2.543     2.494
    46   1 H        0.924     0.024     2.671     2.556
    47   1 H        0.924     0.037     2.495     2.470
    48   1 H        0.924     0.027     2.630     2.536
    49   1 H        0.924     0.043     2.414     2.429
    50   1 H        0.924     0.026     2.640     2.541
    51   1 H        0.924     0.043     2.411     2.428
    52   1 H        0.924     0.010     2.898     2.662
    53   1 H        0.924     0.043     2.407     2.426
    54   1 H        0.924     0.013     2.842     2.636
    55   1 H        0.925     0.057     2.231     2.336
    56   1 H        0.924     0.045     2.379     2.412
    57   1 H        0.925     0.068     2.107     2.270
    58   1 H        0.924     0.070     2.081     2.256
    59   1 H        0.925     0.069     2.101     2.267
    60   1 H        0.926     0.102     1.770     2.080
    61   1 H        0.927     0.086     1.914     2.163
    62   1 H        0.859     0.222     0.999     1.566
    63   1 H        0.924     0.099     1.798     2.097
    64   1 H        0.923     0.095     1.832     2.117
    65   1 H        0.925     0.098     1.802     2.099
    66   1 H        0.925     0.108     1.712     2.046
    67   1 H        0.925     0.109     1.706     2.043

Wiberg/Mayer (AO) data.
largest (>0.10) Wiberg bond orders for each atom

     #   Z sym  total        # sym  WBO       # sym  WBO       # sym  WBO
 ---------------------------------------------------------------------------
     1   6 C    3.997 --     2 C    1.020    27 H    0.988    26 H    0.988
                            25 H    0.986
     2   6 C    3.998 --     1 C    1.020     3 C    1.008    29 H    0.978
                            28 H    0.976
     3   6 C    3.998 --     2 C    1.008     4 C    1.008    31 H    0.977
                            30 H    0.976
     4   6 C    3.997 --     5 C    1.008     3 C    1.008    33 H    0.975
                            32 H    0.975
     5   6 C    3.998 --     4 C    1.008     6 C    1.008    34 H    0.975
                            35 H    0.975
     6   6 C    3.997 --     7 C    1.008     5 C    1.008    36 H    0.976
                            37 H    0.975
     7   6 C    3.995 --     6 C    1.008     8 C    0.989    38 H    0.979
                            39 H    0.975
     8   6 C    3.998 --     9 C    1.029     7 C    0.989    40 H    0.976
                            41 H    0.959
     9   6 C    3.991 --    10 C    1.928     8 C    1.029    42 H    0.962
    10   6 C    3.989 --     9 C    1.928    11 C    1.023    43 H    0.963
    11   6 C    3.997 --    10 C    1.023    12 C    0.992    45 H    0.975
                            44 H    0.965
    12   6 C    3.995 --    13 C    1.008    11 C    0.992    47 H    0.978
                            46 H    0.975
    13   6 C    3.996 --    12 C    1.008    14 C    1.008    48 H    0.975
                            49 H    0.974
    14   6 C    3.996 --    13 C    1.008    15 C    1.007    50 H    0.975
                            51 H    0.973
    15   6 C    3.996 --    16 C    1.007    14 C    1.007    53 H    0.974
                            52 H    0.973
    16   6 C    3.995 --    17 C    1.008    15 C    1.007    54 H    0.976
                            55 H    0.971
    17   6 C    3.990 --    16 C    1.008    18 C    0.993    56 H    0.975
                            57 H    0.967
    18   6 C    3.953 --    17 C    0.993    19 N    0.974    59 H    0.968
                            58 H    0.965
    19   7 N    3.459 --    20 C    1.233    23 C    1.005    18 C    0.974
                            21 C    0.176
    20   6 C    3.972 --    21 C    1.705    19 N    1.233    60 H    0.954
    21   6 C    3.819 --    20 C    1.705    61 H    0.965    22 N    0.910
                            19 N    0.176
    22   7 N    3.773 --    24 C    0.954    23 C    0.944    62 H    0.920
                            21 C    0.910
    23   6 C    3.935 --    19 N    1.005    63 H    0.959    64 H    0.956
                            22 N    0.944
    24   6 C    3.919 --    67 H    0.976    65 H    0.976    66 H    0.974
                            22 N    0.954
    25   1 H    0.999 --     1 C    0.986
    26   1 H    0.999 --     1 C    0.988
    27   1 H    0.999 --     1 C    0.988
    28   1 H    0.999 --     2 C    0.976
    29   1 H    0.999 --     2 C    0.978
    30   1 H    0.999 --     3 C    0.976
    31   1 H    0.999 --     3 C    0.977
    32   1 H    0.999 --     4 C    0.975
    33   1 H    0.999 --     4 C    0.975
    34   1 H    0.999 --     5 C    0.975
    35   1 H    0.999 --     5 C    0.975
    36   1 H    0.999 --     6 C    0.976
    37   1 H    0.999 --     6 C    0.975
    38   1 H    0.999 --     7 C    0.979
    39   1 H    0.998 --     7 C    0.975
    40   1 H    0.999 --     8 C    0.976
    41   1 H    0.998 --     8 C    0.959
    42   1 H    0.999 --     9 C    0.962
    43   1 H    0.999 --    10 C    0.963
    44   1 H    0.999 --    11 C    0.965
    45   1 H    0.999 --    11 C    0.975
    46   1 H    0.999 --    12 C    0.975
    47   1 H    0.999 --    12 C    0.978
    48   1 H    0.999 --    13 C    0.975
    49   1 H    0.998 --    13 C    0.974
    50   1 H    0.999 --    14 C    0.975
    51   1 H    0.998 --    14 C    0.973
    52   1 H    1.000 --    15 C    0.973
    53   1 H    0.998 --    15 C    0.974
    54   1 H    1.000 --    16 C    0.976
    55   1 H    0.996 --    16 C    0.971
    56   1 H    0.998 --    17 C    0.975
    57   1 H    0.994 --    17 C    0.967
    58   1 H    0.995 --    18 C    0.965
    59   1 H    0.995 --    18 C    0.968
    60   1 H    0.990 --    20 C    0.954
    61   1 H    0.992 --    21 C    0.965
    62   1 H    0.951 --    22 N    0.920
    63   1 H    0.990 --    23 C    0.959
    64   1 H    0.991 --    23 C    0.956
    65   1 H    0.990 --    24 C    0.976
    66   1 H    0.988 --    24 C    0.974
    67   1 H    0.988 --    24 C    0.976
 ---------------------------------------------------------------------------

molecular dipole:
                 x           y           z       tot (Debye)
 q only:      -19.075     -10.092     -22.190
   full:      -19.253     -10.194     -22.022      78.735

           -------------------------------------------------
          | TOTAL ENERGY              -74.460164474475 Eh   |
          | GRADIENT NORM               0.000518038855 Eh/α |
          | HOMO-LUMO GAP               2.119556530147 eV   |
           -------------------------------------------------

 * finished run on 2024/12/20 at 02:15:39.350
