   * xtb version 6.7.1 (edcfbbe) compiled by 'conda@3ef47c1a292c' on 2024-11-25

   ID    Z sym.   atoms
    1    6 C      1-10, 12-23
    2    7 N      11
    3    1 H      24-71

          program call               : xtb C0334.xyz --opt --namespace C0334 --charge +1
          :  Hamiltonian                  GFN2-xTB          :
 * total energy  :   -74.1367988 Eh     change       -0.5691447E-10 Eh
 * total energy  :   -74.1438144 Eh     change       -0.7015571E-02 Eh
 * total energy  :   -74.1454125 Eh     change       -0.1598124E-02 Eh
 * total energy  :   -74.1455192 Eh     change       -0.1066688E-03 Eh
 * total energy  :   -74.1456587 Eh     change       -0.1395275E-03 Eh
 * total energy  :   -74.1457230 Eh     change       -0.6428235E-04 Eh
 * total energy  :   -74.1458514 Eh     change       -0.1283944E-03 Eh
 * total energy  :   -74.1459845 Eh     change       -0.1330734E-03 Eh
 * total energy  :   -74.1460393 Eh     change       -0.5482408E-04 Eh
 * total energy  :   -74.1461287 Eh     change       -0.8939201E-04 Eh
 * total energy  :   -74.1471414 Eh     change       -0.1759305E-04 Eh
 * total energy  :   -74.1471547 Eh     change       -0.1324095E-04 Eh
 * total energy  :   -74.1471658 Eh     change       -0.1108811E-04 Eh
 * total energy  :   -74.1471772 Eh     change       -0.1139953E-04 Eh
 * total energy  :   -74.1471894 Eh     change       -0.1220990E-04 Eh
 * total energy  :   -74.1472014 Eh     change       -0.1207002E-04 Eh
 * total energy  :   -74.1472108 Eh     change       -0.9407198E-05 Eh
 * total energy  :   -74.1472167 Eh     change       -0.5823618E-05 Eh
 * total energy  :   -74.1472201 Eh     change       -0.3395749E-05 Eh
   *** GEOMETRY OPTIMIZATION CONVERGED AFTER 43 ITERATIONS ***

 final structure:
================
71
 xtb: 6.7.1 (edcfbbe)
C            0.49208888536447        0.36271752435621       -0.86997470958959
C            0.60020251353881       -1.10764103089805       -0.48480524782597
C            1.21825001105077       -1.32455490382838        0.89732634695286
C            0.41828715812965       -0.73684530320249        2.06211891085707
C           -1.01274639332381       -1.26215396979961        2.19614037970489
C           -1.13222867797141       -2.78191587861441        2.32740103627988
C           -0.38283894443058       -3.38151158144974        3.51888293499770
C           -0.84026856790383       -2.88215555811123        4.89149998111515
C           -2.33362477969845       -3.06750785337978        5.19760224254224
C           -2.92141111803981       -4.46238413213630        4.96044407812788
N           -2.85781328810207       -5.44893934568538        6.08476206198654
C           -3.76286521146729       -5.06562239528492        7.21408757226074
C           -5.27470474800120       -5.15369582583230        6.98170678902052
C           -5.94618914083611       -6.50134590473141        7.28355912693170
C           -5.62314018782819       -7.10574813195266        8.65213983597643
C           -5.93453413694559       -6.20517595787749        9.84910796339679
C           -7.40674411156963       -5.81190254541007        9.98736639946439
C           -8.37855653042064       -6.98664387622392       10.11901506866725
C           -8.08709954651823       -7.94242266253085       11.27816329633647
C           -8.08082222368505       -7.29416327774201       12.66345838699655
C           -9.42971335974512       -6.70401752306398       13.05616567973558
C           -3.22617434716655       -6.77017261160080        5.54445525348593
C           -1.48750210619329       -5.54467202304517        6.61988939097804
H           -0.20820105643013        0.88933905781648       -0.22656267174082
H            0.14356534748927        0.45733109206340       -1.89550233792787
H            1.46259225949937        0.84748709044084       -0.79337554492787
H           -0.38781816106455       -1.56978359139474       -0.53056124816952
H            1.22943069105098       -1.61723778508833       -1.21816069778498
H            1.35918206090319       -2.39656540589056        1.05424699254284
H            2.20983187579006       -0.86620989572015        0.90823778896811
H            0.96714183005206       -0.93018443418826        2.98693966170186
H            0.36806806855017        0.34672264446157        1.94684204476291
H           -1.47554250210177       -0.78009923580731        3.06087863423078
H           -1.58664717859014       -0.95683316839705        1.32012477581812
H           -2.19279519482823       -3.04147031436054        2.38505118979316
H           -0.74206787471697       -3.24475986699727        1.42012498958347
H           -0.45818844858077       -4.47230280379229        3.46613384136346
H            0.67669874996679       -3.14499299915171        3.42160348054286
H           -0.21895607754666       -3.35580601933696        5.65257944563923
H           -0.63972558097157       -1.81220889101653        4.95241890283738
H           -2.52921280919097       -2.72601853743404        6.21503274146960
H           -2.88493237201053       -2.39423478873694        4.53971291715892
H           -3.97580211676349       -4.35708545624716        4.70147336236372
H           -2.41427793323088       -4.91187742499221        4.10608929092699
H           -3.50518291833959       -5.69773638736638        8.06448870989945
H           -3.50978251176514       -4.03770465918440        7.47720029981088
H           -5.72343003673352       -4.41271522186769        7.64476665951220
H           -5.53497188598517       -4.85051079260078        5.96663326895081
H           -7.02199502991611       -6.33348864460813        7.22716709062516
H           -5.70936064808742       -7.24128591538196        6.51804170226032
H           -6.19897643718431       -8.02632087591116        8.74691774868249
H           -4.56944153938599       -7.39854566144216        8.69982902544486
H           -5.62508848800494       -6.73171746582978       10.75276569381088
H           -5.33650141113657       -5.29150388939274        9.79384891003384
H           -7.50027908961806       -5.17332941570512       10.86683328556168
H           -7.70994333115254       -5.21068513424667        9.12658929882440
H           -9.38300963714813       -6.57868820092705       10.23974765230773
H           -8.38241801764997       -7.56403996319537        9.19137620829065
H           -8.84979433059393       -8.72446112261894       11.26606985229284
H           -7.12392435319724       -8.43184766834349       11.11553118042662
H           -7.80758606937085       -8.06083330884941       13.39214638233038
H           -7.31561453533680       -6.51691739837328       12.71036472219971
H          -10.21052103284931       -7.45705596006377       12.97858835413623
H           -9.39920231072090       -6.34889152306592       14.08333745810234
H           -9.69500334355332       -5.86511466859212       12.41774696802169
H           -2.46104239277963       -7.11458183144617        4.85016901145880
H           -3.31243397163326       -7.49211726744088        6.35393503236535
H           -4.17332058519644       -6.71367002618195        5.01417228966897
H           -0.78088764606212       -5.70003768016853        5.80720259668983
H           -1.22322778039584       -4.63545209332687        7.15370277599296
H           -1.41544539192815       -6.38422172176173        7.30984748475605

          :  Hamiltonian                  GFN2-xTB          :
         :: total energy             -74.147220068402 Eh    ::
         :: gradient norm              0.000167607711 Eh/a0 ::
         :: HOMO-LUMO gap              7.019850711114 eV    ::
         :: SCC energy               -75.229261248247 Eh    ::
         :: -> dispersion             -0.059511623281 Eh    ::
         :: repulsion energy           1.082041179845 Eh    ::

    * Orbital Energies and Occupations

         #    Occupation            Energy/Eh            Energy/eV
      -------------------------------------------------------------
         1        2.0000           -0.8561629             -23.2974
       ...           ...                  ...                  ...
        58        2.0000           -0.5287032             -14.3867
        59        2.0000           -0.5168600             -14.0645
        60        2.0000           -0.5168155             -14.0633
        61        2.0000           -0.5101800             -13.8827
        62        2.0000           -0.5101660             -13.8823
        63        2.0000           -0.5070333             -13.7971
        64        2.0000           -0.5070108             -13.7965
        65        2.0000           -0.4888096             -13.3012
        66        2.0000           -0.4888070             -13.3011
        67        2.0000           -0.4853183             -13.2062
        68        2.0000           -0.4853144             -13.2061
        69        2.0000           -0.4819834             -13.1154
        70        2.0000           -0.4819807             -13.1154 (HOMO)
        71                         -0.2240059              -6.0955 (LUMO)
        72                         -0.1635708              -4.4510
        73                         -0.1422841              -3.8717
        74                         -0.1370960              -3.7306
        75                         -0.0765551              -2.0832
        76                         -0.0748867              -2.0378
        77                         -0.0561777              -1.5287
        78                         -0.0316739              -0.8619
        79                         -0.0311157              -0.8467
        80                         -0.0296517              -0.8069
        81                         -0.0131275              -0.3572
       ...                                ...                  ...
       140                          0.2424247               6.5967
      -------------------------------------------------------------
                  HL-Gap            0.2579748 Eh            7.0199 eV

     #   Z          covCN         q      C6AA      α(0)
     1   6 C        3.751    -0.104    22.546     6.771
     2   6 C        3.799    -0.053    21.528     6.606
     3   6 C        3.800    -0.059    21.633     6.622
     4   6 C        3.800    -0.059    21.645     6.624
     5   6 C        3.800    -0.059    21.644     6.624
     6   6 C        3.800    -0.061    21.681     6.630
     7   6 C        3.800    -0.062    21.688     6.631
     8   6 C        3.799    -0.071    21.857     6.657
     9   6 C        3.798    -0.071    21.861     6.657
    10   6 C        3.759    -0.041    21.348     6.587
    11   7 N        3.620     0.129    19.041     6.481
    12   6 C        3.759    -0.041    21.348     6.587
    13   6 C        3.798    -0.071    21.861     6.657
    14   6 C        3.799    -0.071    21.857     6.657
    15   6 C        3.800    -0.062    21.688     6.631
    16   6 C        3.800    -0.061    21.681     6.630
    17   6 C        3.800    -0.059    21.644     6.624
    18   6 C        3.800    -0.059    21.645     6.624
    19   6 C        3.800    -0.059    21.633     6.622
    20   6 C        3.799    -0.053    21.528     6.606
    21   6 C        3.751    -0.104    22.546     6.771
    22   6 C        3.726    -0.091    22.348     6.750
    23   6 C        3.726    -0.091    22.348     6.750
    24   1 H        0.925     0.034     2.531     2.488
    25   1 H        0.925     0.036     2.500     2.473
    26   1 H        0.925     0.038     2.481     2.463
    27   1 H        0.924     0.028     2.614     2.528
    28   1 H        0.924     0.031     2.568     2.506
    29   1 H        0.924     0.025     2.659     2.550
    30   1 H        0.924     0.035     2.512     2.479
    31   1 H        0.924     0.026     2.648     2.545
    32   1 H        0.924     0.041     2.442     2.444
    33   1 H        0.924     0.024     2.671     2.556
    34   1 H        0.924     0.042     2.428     2.437
    35   1 H        0.924     0.020     2.738     2.588
    36   1 H        0.924     0.045     2.383     2.414
    37   1 H        0.924     0.014     2.828     2.630
    38   1 H        0.925     0.054     2.271     2.356
    39   1 H        0.924     0.033     2.545     2.495
    40   1 H        0.924     0.061     2.184     2.311
    41   1 H        0.924     0.047     2.361     2.403
    42   1 H        0.924     0.075     2.030     2.228
    43   1 H        0.924     0.078     1.999     2.211
    44   1 H        0.924     0.091     1.867     2.137
    45   1 H        0.924     0.091     1.867     2.137
    46   1 H        0.924     0.078     1.999     2.211
    47   1 H        0.924     0.075     2.030     2.228
    48   1 H        0.924     0.047     2.361     2.403
    49   1 H        0.924     0.061     2.184     2.311
    50   1 H        0.924     0.033     2.545     2.495
    51   1 H        0.925     0.054     2.271     2.356
    52   1 H        0.924     0.014     2.828     2.630
    53   1 H        0.924     0.045     2.383     2.414
    54   1 H        0.924     0.020     2.738     2.588
    55   1 H        0.924     0.042     2.428     2.437
    56   1 H        0.924     0.024     2.671     2.556
    57   1 H        0.924     0.041     2.442     2.444
    58   1 H        0.924     0.026     2.648     2.545
    59   1 H        0.924     0.035     2.512     2.479
    60   1 H        0.924     0.025     2.659     2.550
    61   1 H        0.924     0.031     2.568     2.506
    62   1 H        0.924     0.028     2.614     2.528
    63   1 H        0.925     0.038     2.481     2.463
    64   1 H        0.925     0.036     2.500     2.473
    65   1 H        0.925     0.034     2.531     2.488
    66   1 H        0.925     0.091     1.866     2.136
    67   1 H        0.925     0.099     1.793     2.094
    68   1 H        0.925     0.099     1.793     2.094
    69   1 H        0.925     0.099     1.793     2.094
    70   1 H        0.925     0.099     1.793     2.094
    71   1 H        0.925     0.091     1.866     2.136

Wiberg/Mayer (AO) data.
largest (>0.10) Wiberg bond orders for each atom

     #   Z sym  total        # sym  WBO       # sym  WBO       # sym  WBO
 ---------------------------------------------------------------------------
     1   6 C    3.996 --     2 C    1.020    26 H    0.987    25 H    0.987
                            24 H    0.986
     2   6 C    3.998 --     1 C    1.020     3 C    1.008    28 H    0.978
                            27 H    0.976
     3   6 C    3.997 --     2 C    1.008     4 C    1.008    30 H    0.976
                            29 H    0.976
     4   6 C    3.997 --     5 C    1.008     3 C    1.008    31 H    0.975
                            32 H    0.974
     5   6 C    3.997 --     4 C    1.008     6 C    1.007    33 H    0.975
                            34 H    0.974
     6   6 C    3.996 --     5 C    1.007     7 C    1.007    35 H    0.976
                            36 H    0.973
     7   6 C    3.995 --     8 C    1.008     6 C    1.007    37 H    0.972
                            38 H    0.971
     8   6 C    3.992 --     7 C    1.008     9 C    1.004    39 H    0.974
                            40 H    0.970
     9   6 C    3.984 --    10 C    1.005     8 C    1.004    41 H    0.966
                            42 H    0.965
    10   6 C    3.928 --     9 C    1.005    43 H    0.964    44 H    0.959
                            11 N    0.923
    11   7 N    3.808 --    22 C    0.961    23 C    0.961    10 C    0.923
                            12 C    0.923
    12   6 C    3.928 --    13 C    1.005    46 H    0.964    45 H    0.959
                            11 N    0.923
    13   6 C    3.984 --    12 C    1.005    14 C    1.004    48 H    0.966
                            47 H    0.965
    14   6 C    3.992 --    15 C    1.008    13 C    1.004    50 H    0.974
                            49 H    0.970
    15   6 C    3.995 --    14 C    1.008    16 C    1.007    52 H    0.972
                            51 H    0.971
    16   6 C    3.996 --    17 C    1.007    15 C    1.007    54 H    0.976
                            53 H    0.973
    17   6 C    3.997 --    18 C    1.008    16 C    1.007    56 H    0.975
                            55 H    0.974
    18   6 C    3.997 --    17 C    1.008    19 C    1.008    58 H    0.975
                            57 H    0.974
    19   6 C    3.997 --    20 C    1.008    18 C    1.008    59 H    0.976
                            60 H    0.976
    20   6 C    3.998 --    21 C    1.020    19 C    1.008    61 H    0.978
                            62 H    0.976
    21   6 C    3.996 --    20 C    1.020    63 H    0.987    64 H    0.987
                            65 H    0.986
    22   6 C    3.931 --    66 H    0.975    67 H    0.973    68 H    0.972
                            11 N    0.961
    23   6 C    3.931 --    71 H    0.975    69 H    0.973    70 H    0.972
                            11 N    0.961
    24   1 H    0.999 --     1 C    0.986
    25   1 H    0.999 --     1 C    0.987
    26   1 H    0.999 --     1 C    0.987
    27   1 H    0.999 --     2 C    0.976
    28   1 H    0.999 --     2 C    0.978
    29   1 H    0.999 --     3 C    0.976
    30   1 H    0.999 --     3 C    0.976
    31   1 H    0.999 --     4 C    0.975
    32   1 H    0.998 --     4 C    0.974
    33   1 H    0.999 --     5 C    0.975
    34   1 H    0.998 --     5 C    0.974
    35   1 H    1.000 --     6 C    0.976
    36   1 H    0.998 --     6 C    0.973
    37   1 H    1.000 --     7 C    0.972
    38   1 H    0.997 --     7 C    0.971
    39   1 H    0.999 --     8 C    0.974
    40   1 H    0.996 --     8 C    0.970
    41   1 H    0.998 --     9 C    0.966
    42   1 H    0.994 --     9 C    0.965
    43   1 H    0.994 --    10 C    0.964
    44   1 H    0.992 --    10 C    0.959
    45   1 H    0.992 --    12 C    0.959
    46   1 H    0.994 --    12 C    0.964
    47   1 H    0.994 --    13 C    0.965
    48   1 H    0.998 --    13 C    0.966
    49   1 H    0.996 --    14 C    0.970
    50   1 H    0.999 --    14 C    0.974
    51   1 H    0.997 --    15 C    0.971
    52   1 H    1.000 --    15 C    0.972
    53   1 H    0.998 --    16 C    0.973
    54   1 H    1.000 --    16 C    0.976
    55   1 H    0.998 --    17 C    0.974
    56   1 H    0.999 --    17 C    0.975
    57   1 H    0.998 --    18 C    0.974
    58   1 H    0.999 --    18 C    0.975
    59   1 H    0.999 --    19 C    0.976
    60   1 H    0.999 --    19 C    0.976
    61   1 H    0.999 --    20 C    0.978
    62   1 H    0.999 --    20 C    0.976
    63   1 H    0.999 --    21 C    0.987
    64   1 H    0.999 --    21 C    0.987
    65   1 H    0.999 --    21 C    0.986
    66   1 H    0.992 --    22 C    0.975
    67   1 H    0.990 --    22 C    0.973
    68   1 H    0.990 --    22 C    0.972
    69   1 H    0.990 --    23 C    0.973
    70   1 H    0.990 --    23 C    0.972
    71   1 H    0.992 --    23 C    0.975
 ---------------------------------------------------------------------------

molecular dipole:
                 x           y           z       tot (Debye)
 q only:       -5.680      -9.902      11.500
   full:       -5.649      -9.946      11.500      41.226

           -------------------------------------------------
          | TOTAL ENERGY              -74.147220068402 Eh   |
          | GRADIENT NORM               0.000167607711 Eh/α |
          | HOMO-LUMO GAP               7.019850711114 eV   |
           -------------------------------------------------

 * finished run on 2024/12/20 at 02:15:33.780
