   * xtb version 6.7.1 (edcfbbe) compiled by 'conda@3ef47c1a292c' on 2024-11-25

   ID    Z sym.   atoms
    1    6 C      1-8, 10-17
    2    7 N      9
    3    1 H      18-37

          program call               : xtb C0338.xyz --opt --namespace C0338 --charge +1
          :  Hamiltonian                  GFN2-xTB          :
 * total energy  :   -46.9489591 Eh     change       -0.1330491E-09 Eh
 * total energy  :   -46.9568384 Eh     change       -0.7879333E-02 Eh
 * total energy  :   -46.9586548 Eh     change       -0.1816320E-02 Eh
 * total energy  :   -46.9588430 Eh     change       -0.1882137E-03 Eh
 * total energy  :   -46.9589590 Eh     change       -0.1160517E-03 Eh
 * total energy  :   -46.9590166 Eh     change       -0.5752136E-04 Eh
 * total energy  :   -46.9590876 Eh     change       -0.7109100E-04 Eh
 * total energy  :   -46.9591707 Eh     change       -0.8308758E-04 Eh
 * total energy  :   -46.9592650 Eh     change       -0.9424014E-04 Eh
 * total energy  :   -46.9593710 Eh     change       -0.1060200E-03 Eh
 * total energy  :   -46.9643013 Eh     change       -0.6165536E-04 Eh
 * total energy  :   -46.9643354 Eh     change       -0.3412482E-04 Eh
 * total energy  :   -46.9643606 Eh     change       -0.2516994E-04 Eh
 * total energy  :   -46.9643810 Eh     change       -0.2045517E-04 Eh
 * total energy  :   -46.9643924 Eh     change       -0.1138068E-04 Eh
 * total energy  :   -46.9643986 Eh     change       -0.6163364E-05 Eh
 * total energy  :   -46.9644040 Eh     change       -0.5398812E-05 Eh
 * total energy  :   -46.9644097 Eh     change       -0.5736137E-05 Eh
 * total energy  :   -46.9644118 Eh     change       -0.2068593E-05 Eh
   *** GEOMETRY OPTIMIZATION CONVERGED AFTER 94 ITERATIONS ***

 final structure:
================
37
 xtb: 6.7.1 (edcfbbe)
C            1.46332526707160       -1.01859968430468       -0.81962557647267
C            0.38526561606111       -0.25323595474255       -0.10847777462555
C           -0.70464578382171       -0.97966656485167        0.36729683176342
C           -1.73380496734076       -0.38034082647179        1.06533947765096
C           -1.67971359015702        0.97792084697461        1.33132268031010
C           -0.61079697376675        1.71574830117974        0.86502943224278
C            0.41372511294855        1.12734546135768        0.12059109452351
C            1.54181946311912        2.01177614229421       -0.34550075726535
N            1.31801166789503        2.67103835883174       -1.68678962428542
C            2.53778662157627        3.45454220919135       -2.01464712022527
C            2.51305743055271        4.83494942263662       -2.14261204818347
C            3.67844659883287        5.52384655247647       -2.44671135838545
C            4.87194260451838        4.84961408437121       -2.62265838352164
C            4.89754379121134        3.47151009181160       -2.49297151779105
C            3.74001107403498        2.77691596957749       -2.19113852668622
C            0.10758011473531        3.50862470457047       -1.61403151141803
C            1.08952789277711        1.67002649089130       -2.74774938269651
H            1.54306455435790       -2.01115997386468       -0.38352531226208
H            1.21796237589822       -1.15285790549277       -1.87302493825011
H            2.44031168068965       -0.54932045193607       -0.74415303777341
H           -0.73317602442942       -2.04398123950540        0.18959627540178
H           -2.56255758244610       -0.97204780530250        1.41997282131439
H           -2.45729433113766        1.45645499818849        1.90471332304301
H           -0.55826517003381        2.76854067862075        1.10216116964291
H            1.69096072769160        2.82318842977773        0.37127193922431
H            2.46940801167507        1.44521596467066       -0.40568316577583
H            1.61168439968743        5.40888284806118       -2.01600527932252
H            3.64045492418854        6.59702026721480       -2.54441815502349
H            5.77400033059322        5.39045572687299       -2.85831646762541
H            5.81953802549372        2.92853816776199       -2.62609318307141
H            3.80277726277737        1.70390133581660       -2.09973971223558
H           -0.06418155134025        4.00375287213190       -2.56786667049043
H           -0.74845553439585        2.87423007985192       -1.38938461702897
H            0.20235375589188        4.25215496009128       -0.82576972371972
H            1.93265255268725        0.99133487540596       -2.83086239844298
H            0.19305732247892        1.09649415752203       -2.51946299069205
H            0.95863232939291        2.17923640832923       -3.70156581182365

          :  Hamiltonian                  GFN2-xTB          :
         :: total energy             -46.964411780750 Eh    ::
         :: gradient norm              0.000223128140 Eh/a0 ::
         :: HOMO-LUMO gap              3.781045383572 eV    ::
         :: SCC energy               -47.794266590086 Eh    ::
         :: -> dispersion             -0.037370883947 Eh    ::
         :: repulsion energy           0.829854809336 Eh    ::

    * Orbital Energies and Occupations

         #    Occupation            Energy/Eh            Energy/eV
      -------------------------------------------------------------
         1        2.0000           -0.8505979             -23.1459
       ...           ...                  ...                  ...
        32        2.0000           -0.6027403             -16.4014
        33        2.0000           -0.5952758             -16.1983
        34        2.0000           -0.5900593             -16.0563
        35        2.0000           -0.5827423             -15.8572
        36        2.0000           -0.5757591             -15.6672
        37        2.0000           -0.5697633             -15.5040
        38        2.0000           -0.5617068             -15.2848
        39        2.0000           -0.5513009             -15.0017
        40        2.0000           -0.5490121             -14.9394
        41        2.0000           -0.5387837             -14.6611
        42        2.0000           -0.5384902             -14.6531
        43        2.0000           -0.5224997             -14.2179
        44        2.0000           -0.5135192             -13.9736 (HOMO)
        45                         -0.3745683             -10.1925 (LUMO)
        46                         -0.3671669              -9.9911
        47                         -0.3498582              -9.5201
        48                         -0.3392584              -9.2317
        49                         -0.2408753              -6.5545
        50                         -0.2302807              -6.2663
        51                         -0.2012621              -5.4766
        52                         -0.1465689              -3.9883
        53                         -0.1277553              -3.4764
        54                         -0.1190130              -3.2385
        55                         -0.0597652              -1.6263
       ...                                ...                  ...
        88                          0.5378782              14.6364
      -------------------------------------------------------------
                  HL-Gap            0.1389509 Eh            3.7810 eV

     #   Z          covCN         q      C6AA      α(0)
     1   6 C        3.759    -0.120    22.844     6.814
     2   6 C        2.965     0.014    27.708     8.634
     3   6 C        2.928    -0.034    28.858     8.810
     4   6 C        2.918    -0.021    28.521     8.758
     5   6 C        2.918    -0.028    28.701     8.785
     6   6 C        2.925    -0.042    29.049     8.839
     7   6 C        2.968    -0.019    28.473     8.753
     8   6 C        3.764    -0.033    21.213     6.565
     9   7 N        3.622     0.121    19.175     6.504
    10   6 C        2.930     0.030    27.322     8.572
    11   6 C        2.920    -0.040    28.996     8.830
    12   6 C        2.922    -0.017    28.439     8.745
    13   6 C        2.918    -0.015    28.397     8.739
    14   6 C        2.921    -0.017    28.438     8.745
    15   6 C        2.922    -0.038    28.955     8.824
    16   6 C        3.722    -0.086    22.260     6.738
    17   6 C        3.724    -0.084    22.222     6.731
    18   1 H        0.925     0.068     2.103     2.268
    19   1 H        0.925     0.054     2.265     2.354
    20   1 H        0.925     0.039     2.457     2.451
    21   1 H        0.926     0.056     2.243     2.342
    22   1 H        0.926     0.059     2.205     2.322
    23   1 H        0.926     0.055     2.254     2.348
    24   1 H        0.926     0.038     2.479     2.462
    25   1 H        0.924     0.078     2.004     2.214
    26   1 H        0.925     0.083     1.948     2.182
    27   1 H        0.926     0.062     2.170     2.304
    28   1 H        0.926     0.072     2.064     2.246
    29   1 H        0.926     0.075     2.036     2.232
    30   1 H        0.926     0.071     2.073     2.251
    31   1 H        0.926     0.051     2.309     2.376
    32   1 H        0.925     0.093     1.853     2.129
    33   1 H        0.925     0.099     1.793     2.094
    34   1 H        0.925     0.093     1.848     2.126
    35   1 H        0.925     0.097     1.808     2.103
    36   1 H        0.925     0.096     1.819     2.109
    37   1 H        0.925     0.090     1.882     2.145

Wiberg/Mayer (AO) data.
largest (>0.10) Wiberg bond orders for each atom

     #   Z sym  total        # sym  WBO       # sym  WBO       # sym  WBO
 ---------------------------------------------------------------------------
     1   6 C    3.993 --     2 C    1.028    18 H    0.975    20 H    0.974
                            19 H    0.964
     2   6 C    3.988 --     3 C    1.402     7 C    1.388     1 C    1.028
                             5 C    0.105
     3   6 C    3.990 --     4 C    1.458     2 C    1.402    21 H    0.967
                             6 C    0.109
     4   6 C    3.989 --     3 C    1.458     5 C    1.421    22 H    0.968
                             7 C    0.104
     5   6 C    3.991 --     6 C    1.457     4 C    1.421    23 H    0.969
                             2 C    0.105
     6   6 C    3.990 --     5 C    1.457     7 C    1.394    24 H    0.967
                             3 C    0.109
     7   6 C    3.974 --     6 C    1.394     2 C    1.388     8 C    1.006
                             4 C    0.104
     8   6 C    3.927 --     7 C    1.006    25 H    0.966    26 H    0.955
                             9 N    0.900
     9   7 N    3.803 --    16 C    0.963    17 C    0.956    10 C    0.911
                             8 C    0.900
    10   6 C    3.926 --    11 C    1.426    15 C    1.405     9 N    0.911
                            13 C    0.108
    11   6 C    3.988 --    12 C    1.427    10 C    1.426    27 H    0.962
                            14 C    0.108
    12   6 C    3.987 --    13 C    1.448    11 C    1.427    28 H    0.967
                            15 C    0.112
    13   6 C    3.985 --    12 C    1.448    14 C    1.431    29 H    0.966
                            10 C    0.108
    14   6 C    3.988 --    15 C    1.447    13 C    1.431    30 H    0.967
                            11 C    0.108
    15   6 C    3.990 --    14 C    1.447    10 C    1.405    31 H    0.960
                            12 C    0.112
    16   6 C    3.932 --    32 H    0.974    34 H    0.974    33 H    0.968
                             9 N    0.963
    17   6 C    3.931 --    37 H    0.977    36 H    0.972    35 H    0.970
                             9 N    0.956
    18   1 H    0.995 --     1 C    0.975
    19   1 H    0.997 --     1 C    0.964
    20   1 H    0.998 --     1 C    0.974
    21   1 H    0.996 --     3 C    0.967
    22   1 H    0.996 --     4 C    0.968
    23   1 H    0.996 --     5 C    0.969
    24   1 H    0.998 --     6 C    0.967
    25   1 H    0.994 --     8 C    0.966
    26   1 H    0.993 --     8 C    0.955
    27   1 H    0.996 --    11 C    0.962
    28   1 H    0.994 --    12 C    0.967
    29   1 H    0.994 --    13 C    0.966
    30   1 H    0.994 --    14 C    0.967
    31   1 H    0.997 --    15 C    0.960
    32   1 H    0.991 --    16 C    0.974
    33   1 H    0.990 --    16 C    0.968
    34   1 H    0.991 --    16 C    0.974
    35   1 H    0.990 --    17 C    0.970
    36   1 H    0.990 --    17 C    0.972
    37   1 H    0.992 --    17 C    0.977
 ---------------------------------------------------------------------------

molecular dipole:
                 x           y           z       tot (Debye)
 q only:        2.754       4.754      -3.100
   full:        2.774       4.761      -3.084      16.050

           -------------------------------------------------
          | TOTAL ENERGY              -46.964411780750 Eh   |
          | GRADIENT NORM               0.000223128140 Eh/α |
          | HOMO-LUMO GAP               3.781045383572 eV   |
           -------------------------------------------------

 * finished run on 2024/12/20 at 02:17:00.507
