   * xtb version 6.7.1 (edcfbbe) compiled by 'conda@3ef47c1a292c' on 2024-11-25

   ID    Z sym.   atoms
    1    8 O      1, 18
    2    6 C      2-8, 10-12, 14, 15, 17, 19-24
    3    7 N      9, 13, 16
    4    1 H      25-44

          program call               : xtb C0331.xyz --opt --namespace C0331 --charge +1
          :  Hamiltonian                  GFN2-xTB          :
 * total energy  :   -67.3375752 Eh     change       -0.2476384E-09 Eh
 * total energy  :   -67.3483054 Eh     change       -0.1073014E-01 Eh
 * total energy  :   -67.3523626 Eh     change       -0.4057192E-02 Eh
 * total energy  :   -67.3532257 Eh     change       -0.8630926E-03 Eh
 * total energy  :   -67.3538562 Eh     change       -0.6305243E-03 Eh
 * total energy  :   -67.3542167 Eh     change       -0.3604825E-03 Eh
 * total energy  :   -67.3546606 Eh     change       -0.4439635E-03 Eh
 * total energy  :   -67.3550917 Eh     change       -0.4310720E-03 Eh
 * total energy  :   -67.3554374 Eh     change       -0.3456929E-03 Eh
 * total energy  :   -67.3557556 Eh     change       -0.3181707E-03 Eh
 * total energy  :   -67.3584684 Eh     change       -0.4170778E-04 Eh
 * total energy  :   -67.3584858 Eh     change       -0.1737916E-04 Eh
 * total energy  :   -67.3585009 Eh     change       -0.1506436E-04 Eh
 * total energy  :   -67.3585149 Eh     change       -0.1405497E-04 Eh
 * total energy  :   -67.3585269 Eh     change       -0.1201462E-04 Eh
 * total energy  :   -67.3585350 Eh     change       -0.8075865E-05 Eh
 * total energy  :   -67.3585441 Eh     change       -0.9040263E-05 Eh
 * total energy  :   -67.3585489 Eh     change       -0.4827714E-05 Eh
 * total energy  :   -67.3585523 Eh     change       -0.3455290E-05 Eh
   *** GEOMETRY OPTIMIZATION CONVERGED AFTER 44 ITERATIONS ***

 final structure:
================
44
 xtb: 6.7.1 (edcfbbe)
O            2.20508877589707        1.15949697937092        2.25083928122225
C            3.17839964890665        0.99989660344949        1.53480274222019
C            3.68967746504622        1.94369998388981        0.58833395843666
C            4.86711228659819        1.76672903784900       -0.16038099520161
C            5.29853598190229        2.72420557716241       -1.03625395877352
C            4.58251213892675        3.93013121830117       -1.23197985181848
C            3.40062532188963        4.10419121360485       -0.47338082223930
C            2.97707457724979        3.14625659526927        0.40178043356438
N            5.00899518916600        4.86779370394976       -2.09881888291680
C            6.16925399620936        4.64006813904085       -2.92947829302785
C            4.31403642866172        6.12857451520739       -2.22648835097230
C            3.95547382174823       -0.35753102667242        1.68469478467838
N            3.13128976124866       -1.22403342384755        2.46537539576419
C            2.48178555588831       -2.34634266440009        2.03761022815436
C            1.58107323458898       -2.69646538827041        2.99312826589059
N            1.69015250673122       -1.76398632626849        3.98178760132542
C            2.61972750198419       -0.86955331403977        3.64435602002044
O            0.93982787423823       -1.70022394112696        5.10467399154221
C            1.16402294998784       -2.69249178424014        6.07840547125888
C            0.22710149846296       -2.73105121070085        7.09966166541413
C            0.37915302112544       -3.65627202481006        8.11523466610716
C            1.45141614536492       -4.53504761636575        8.10526183925952
C            2.37632519090070       -4.48485582539591        7.07875606600901
C            2.24098189808525       -3.55963577634632        6.05435869322215
H            5.46360149827474        0.87487074443496       -0.04453448869517
H            6.21378865920534        2.54917884265236       -1.57563571234759
H            2.81160792639575        4.99811454678804       -0.58439031000431
H            2.07262550469102        3.29064009430168        0.97262195432466
H            6.06935166466725        3.70840959167048       -3.49011024793760
H            6.26919915760916        5.45171886509765       -3.64451796964799
H            7.08321231132004        4.59712336517161       -2.33073155726230
H            3.32417269873780        5.99192091769721       -2.67040875083222
H            4.20142985942775        6.60972337592801       -1.25307860033917
H            4.88555656744895        6.79557183269830       -2.86577978744665
H            4.14913834471337       -0.81301102454538        0.71488783605120
H            4.89853132770940       -0.14986800578268        2.19605221129757
H            2.70259226265400       -2.81560587842283        1.10057751650824
H            0.88824016912570       -3.51137857811414        3.04591435118356
H            2.91109528034418       -0.03569100947748        4.25120391837670
H           -0.59515526825261       -2.03510163279739        7.08304520181454
H           -0.34335084341090       -3.69019549024462        8.91518363219589
H            1.56622246452282       -5.25660589716778        8.89818804861139
H            3.21429450071516       -5.16383551569832        7.06668276138690
H            2.97416314328773       -3.52774238879748        5.26106004362214

          :  Hamiltonian                  GFN2-xTB          :
         :: total energy             -67.358552336933 Eh    ::
         :: gradient norm              0.000360499592 Eh/a0 ::
         :: HOMO-LUMO gap              2.080333279857 eV    ::
         :: SCC energy               -68.400881403452 Eh    ::
         :: -> dispersion             -0.043569532295 Eh    ::
         :: repulsion energy           1.042329066519 Eh    ::

    * Orbital Energies and Occupations

         #    Occupation            Energy/Eh            Energy/eV
      -------------------------------------------------------------
         1        2.0000           -0.8877022             -24.1556
       ...           ...                  ...                  ...
        49        2.0000           -0.5706725             -15.5288
        50        2.0000           -0.5655065             -15.3882
        51        2.0000           -0.5584434             -15.1960
        52        2.0000           -0.5519178             -15.0184
        53        2.0000           -0.5365128             -14.5993
        54        2.0000           -0.5279925             -14.3674
        55        2.0000           -0.5276412             -14.3578
        56        2.0000           -0.5180265             -14.0962
        57        2.0000           -0.5122722             -13.9396
        58        2.0000           -0.5094673             -13.8633
        59        2.0000           -0.5072829             -13.8039
        60        2.0000           -0.5014426             -13.6449
        61        2.0000           -0.4580594             -12.4644 (HOMO)
        62                         -0.3816085             -10.3841 (LUMO)
        63                         -0.3782816             -10.2936
        64                         -0.3519545              -9.5772
        65                         -0.3305750              -8.9954
        66                         -0.3259612              -8.8699
        67                         -0.3188411              -8.6761
        68                         -0.2809440              -7.6449
        69                         -0.2219790              -6.0404
        70                         -0.1964046              -5.3444
        71                         -0.1797123              -4.8902
        72                         -0.1202296              -3.2716
       ...                                ...                  ...
       116                          0.5765545              15.6888
      -------------------------------------------------------------
                  HL-Gap            0.0764508 Eh            2.0803 eV

     #   Z          covCN         q      C6AA      α(0)
     1   8 O        0.857    -0.391    21.501     6.217
     2   6 C        2.823     0.214    23.482     7.940
     3   6 C        2.968    -0.038    28.949     8.825
     4   6 C        2.916    -0.030    28.743     8.791
     5   6 C        2.919    -0.057    29.405     8.892
     6   6 C        2.916     0.078    26.254     8.402
     7   6 C        2.918    -0.057    29.407     8.893
     8   6 C        2.924    -0.013    28.333     8.729
     9   7 N        2.736    -0.033    21.891     6.949
    10   6 C        3.697    -0.061    21.853     6.686
    11   6 C        3.698    -0.062    21.865     6.688
    12   6 C        3.744    -0.050    21.536     6.620
    13   7 N        2.874     0.072    19.994     6.641
    14   6 C        3.073    -0.010    28.195     8.706
    15   6 C        3.033    -0.019    28.442     8.748
    16   7 N        2.911     0.201    17.916     6.286
    17   6 C        3.059     0.052    26.775     8.486
    18   8 O        1.771    -0.199    17.303     5.617
    19   6 C        2.863     0.127    25.218     8.231
    20   6 C        2.918    -0.041    29.006     8.832
    21   6 C        2.923    -0.018    28.457     8.748
    22   6 C        2.919    -0.027    28.664     8.780
    23   6 C        2.924    -0.023    28.573     8.766
    24   6 C        2.916    -0.058    29.436     8.897
    25   1 H        0.926     0.034     2.534     2.489
    26   1 H        0.926     0.050     2.323     2.384
    27   1 H        0.926     0.054     2.266     2.354
    28   1 H        0.926     0.067     2.116     2.275
    29   1 H        0.924     0.064     2.148     2.292
    30   1 H        0.925     0.072     2.064     2.246
    31   1 H        0.924     0.063     2.162     2.299
    32   1 H        0.924     0.065     2.145     2.291
    33   1 H        0.924     0.067     2.123     2.279
    34   1 H        0.925     0.072     2.067     2.248
    35   1 H        0.925     0.093     1.850     2.127
    36   1 H        0.924     0.093     1.847     2.125
    37   1 H        0.926     0.105     1.736     2.060
    38   1 H        0.926     0.114     1.664     2.017
    39   1 H        0.926     0.137     1.486     1.906
    40   1 H        0.926     0.072     2.061     2.245
    41   1 H        0.926     0.067     2.115     2.274
    42   1 H        0.926     0.064     2.158     2.297
    43   1 H        0.926     0.058     2.219     2.329
    44   1 H        0.926     0.030     2.590     2.517

Wiberg/Mayer (AO) data.
largest (>0.10) Wiberg bond orders for each atom

     #   Z sym  total        # sym  WBO       # sym  WBO       # sym  WBO
 ---------------------------------------------------------------------------
     1   8 O    2.063 --     2 C    1.720
     2   6 C    3.907 --     1 O    1.720     3 C    1.161    12 C    0.896
     3   6 C    3.975 --     4 C    1.294     8 C    1.281     2 C    1.161
     4   6 C    3.992 --     5 C    1.560     3 C    1.294    25 H    0.966
     5   6 C    3.987 --     4 C    1.560     6 C    1.257    26 H    0.965
     6   6 C    3.972 --     9 N    1.281     7 C    1.261     5 C    1.257
     7   6 C    3.986 --     8 C    1.561     6 C    1.261    27 H    0.963
     8   6 C    3.986 --     7 C    1.561     3 C    1.281    28 H    0.965
     9   7 N    3.487 --     6 C    1.281    10 C    1.003    11 C    1.002
    10   6 C    3.966 --     9 N    1.003    30 H    0.978    29 H    0.973
                            31 H    0.971
    11   6 C    3.965 --     9 N    1.002    34 H    0.978    33 H    0.972
                            32 H    0.970
    12   6 C    3.938 --    13 N    0.998    35 H    0.961    36 H    0.947
                             2 C    0.896
    13   7 N    3.702 --    17 C    1.338    14 C    1.207    12 C    0.998
    14   6 C    3.945 --    15 C    1.601    13 N    1.207    37 H    0.961
    15   6 C    3.943 --    14 C    1.601    16 N    1.198    38 H    0.960
    16   7 N    3.711 --    17 C    1.324    15 C    1.198    18 O    1.008
    17   6 C    3.937 --    13 N    1.338    16 N    1.324    39 H    0.949
    18   8 O    2.164 --    16 N    1.008    19 C    0.935
    19   6 C    3.892 --    24 C    1.409    20 C    1.379    18 O    0.935
                            22 C    0.101
    20   6 C    3.984 --    21 C    1.450    19 C    1.379    40 H    0.964
                            23 C    0.113
    21   6 C    3.987 --    20 C    1.450    22 C    1.429    41 H    0.967
                            24 C    0.109
    22   6 C    3.988 --    23 C    1.450    21 C    1.429    42 H    0.968
                            19 C    0.101
    23   6 C    3.990 --    22 C    1.450    24 C    1.426    43 H    0.969
                            20 C    0.113
    24   6 C    3.988 --    23 C    1.426    19 C    1.409    44 H    0.967
                            21 C    0.109
    25   1 H    0.998 --     4 C    0.966
    26   1 H    0.997 --     5 C    0.965
    27   1 H    0.996 --     7 C    0.963
    28   1 H    0.995 --     8 C    0.965
    29   1 H    0.993 --    10 C    0.973
    30   1 H    0.994 --    10 C    0.978
    31   1 H    0.993 --    10 C    0.971
    32   1 H    0.992 --    11 C    0.970
    33   1 H    0.993 --    11 C    0.972
    34   1 H    0.994 --    11 C    0.978
    35   1 H    0.990 --    12 C    0.961
    36   1 H    0.990 --    12 C    0.947
    37   1 H    0.989 --    14 C    0.961
    38   1 H    0.987 --    15 C    0.960
    39   1 H    0.981 --    17 C    0.949
    40   1 H    0.995 --    20 C    0.964
    41   1 H    0.995 --    21 C    0.967
    42   1 H    0.996 --    22 C    0.968
    43   1 H    0.996 --    23 C    0.969
    44   1 H    0.999 --    24 C    0.967
 ---------------------------------------------------------------------------

molecular dipole:
                 x           y           z       tot (Debye)
 q only:        6.756      -0.280       3.447
   full:        7.007      -0.333       3.261      19.663

           -------------------------------------------------
          | TOTAL ENERGY              -67.358552336933 Eh   |
          | GRADIENT NORM               0.000360499592 Eh/α |
          | HOMO-LUMO GAP               2.080333279857 eV   |
           -------------------------------------------------

 * finished run on 2024/12/20 at 02:15:24.314
