   * xtb version 6.7.1 (edcfbbe) compiled by 'conda@3ef47c1a292c' on 2024-11-25

   ID    Z sym.   atoms
    1    6 C      1-4, 6, 7, 9-12, 16, 17, 19, 20
    2    7 N      5, 8
    3   15 P      13
    4    8 O      14, 15, 18
    5    1 H      21-50

          program call               : xtb C0332.xyz --opt --namespace C0332 --charge +1
          :  Hamiltonian                  GFN2-xTB          :
 * total energy  :   -65.4171669 Eh     change       -0.1351737E-09 Eh
 * total energy  :   -65.4592048 Eh     change       -0.4203794E-01 Eh
 * total energy  :   -65.4892405 Eh     change       -0.3003567E-01 Eh
 * total energy  :   -65.4987420 Eh     change       -0.9501490E-02 Eh
 * total energy  :   -65.5126945 Eh     change       -0.1395249E-01 Eh
 * total energy  :   -65.5238737 Eh     change       -0.1117920E-01 Eh
 * total energy  :   -65.5303643 Eh     change       -0.6490672E-02 Eh
 * total energy  :   -65.5343195 Eh     change       -0.3955146E-02 Eh
 * total energy  :   -65.5374421 Eh     change       -0.3122670E-02 Eh
 * total energy  :   -65.5402671 Eh     change       -0.2824989E-02 Eh
 * total energy  :   -65.5594015 Eh     change       -0.4547143E-04 Eh
 * total energy  :   -65.5594261 Eh     change       -0.2456802E-04 Eh
 * total energy  :   -65.5594475 Eh     change       -0.2146295E-04 Eh
 * total energy  :   -65.5594677 Eh     change       -0.2014016E-04 Eh
 * total energy  :   -65.5594816 Eh     change       -0.1388936E-04 Eh
 * total energy  :   -65.5594934 Eh     change       -0.1183207E-04 Eh
 * total energy  :   -65.5595041 Eh     change       -0.1073492E-04 Eh
 * total energy  :   -65.5595104 Eh     change       -0.6284747E-05 Eh
 * total energy  :   -65.5595141 Eh     change       -0.3679078E-05 Eh
   *** GEOMETRY OPTIMIZATION CONVERGED AFTER 79 ITERATIONS ***

 final structure:
================
50
 xtb: 6.7.1 (edcfbbe)
C            2.19269169251045       -1.09903135826352       -0.34926820500159
C            1.77933302689974       -1.23909489521813        1.11054609035269
C            1.21323066680804        0.05346221618761        1.70880919366685
C           -0.08561722673149        0.47021180725019        1.02804917750601
N           -0.71392381057158        1.64681669586130        1.69755023911688
C           -1.79675164972738        2.23263124671344        0.87997212355505
C           -2.96484122930360        2.04634254110514        1.50662413835470
N           -2.80855152264548        1.42965740788509        2.70007442003598
C           -1.39376785024991        1.31538784775834        2.98665982988314
C           -3.81081809764084        1.24393060941589        3.71823364172893
C           -3.95263291245060        2.42241327500325        4.68446337669486
C           -4.50975270154165        3.66867532720127        4.01184585380681
P           -6.22339730159950        3.31919498269363        3.42738492340039
O           -6.91019933848777        2.23412646233983        4.11407144992620
O           -7.09282883450805        4.65149833052048        3.48276278028090
C           -6.83926801919695        5.83263005341100        2.72599239567841
C           -6.08943805387101        6.87638209004417        3.53770295728009
O           -5.93353224243173        3.06980155123437        1.83812457107066
C           -7.04564020979355        2.59278306036826        1.07367317542352
C           -7.08430631944761        1.07516827655737        1.04157701014526
H            1.33329686494074       -0.95536362657740       -0.99911874174885
H            2.70289605714838       -2.00155300458328       -0.67233324931812
H            2.87597256342474       -0.26293413684982       -0.47809485975117
H            1.04172848274747       -2.03731605271727        1.20839780187800
H            2.65226462241280       -1.52398304942395        1.69850149412313
H            1.04482477113829       -0.10574133317577        2.77604221459669
H            1.95491041821345        0.84846911623523        1.59920941205108
H            0.11229057976399        0.75024429411048       -0.00760834546141
H           -0.81363411785054       -0.34310356676431        1.03085069092366
H            0.03570020270681        2.32897892023128        1.84910087582440
H           -1.56984809032796        2.62737332519531       -0.08528022523221
H           -3.94578279522257        2.32261253914373        1.16555894864812
H           -1.08494250506521        2.02178700670591        3.76986165100407
H           -1.14169149305210        0.29929618023148        3.30871844782911
H           -4.77015785600847        1.08893313379320        3.22400145055562
H           -3.56042016071986        0.33852746180417        4.27763923279213
H           -4.65849661343675        2.11489147040003        5.45661055404657
H           -2.99675306282394        2.64550201615655        5.16551423584590
H           -4.57971801273731        4.47047866358848        4.74675094833421
H           -3.88605223068137        4.00536091433924        3.18381307195434
H           -6.28856766331730        5.57974062661923        1.81412776204966
H           -7.82597547739515        6.21512493566085        2.44997621889045
H           -6.58644400514763        7.02536380784753        4.49248597169061
H           -5.06129110336046        6.57307285413794        3.71873430948645
H           -6.08379193540961        7.81807149964718        2.99584273734867
H           -7.97498155978794        2.97755181224498        1.50366635308069
H           -6.91752746300635        3.00667680109099        0.06859947250968
H           -7.22108656459727        0.69412033202943        2.05006405961436
H           -7.91764564441342        0.74853711169283        0.42649816126602
H           -6.16203427420543        0.67430241908833        0.62519020221945

          :  Hamiltonian                  GFN2-xTB          :
         :: total energy             -65.559514084772 Eh    ::
         :: gradient norm              0.000413248194 Eh/a0 ::
         :: HOMO-LUMO gap              4.137679741982 eV    ::
         :: SCC energy               -66.355786577292 Eh    ::
         :: -> dispersion             -0.045063825546 Eh    ::
         :: repulsion energy           0.796272492520 Eh    ::

    * Orbital Energies and Occupations

         #    Occupation            Energy/Eh            Energy/eV
      -------------------------------------------------------------
         1        2.0000           -0.8694471             -23.6589
       ...           ...                  ...                  ...
        47        2.0000           -0.5641607             -15.3516
        48        2.0000           -0.5620562             -15.2943
        49        2.0000           -0.5538154             -15.0701
        50        2.0000           -0.5531251             -15.0513
        51        2.0000           -0.5488399             -14.9347
        52        2.0000           -0.5455901             -14.8463
        53        2.0000           -0.5415262             -14.7357
        54        2.0000           -0.5362069             -14.5909
        55        2.0000           -0.5298974             -14.4192
        56        2.0000           -0.5261519             -14.3173
        57        2.0000           -0.5129318             -13.9576
        58        2.0000           -0.5099989             -13.8778
        59        2.0000           -0.5022201             -13.6661 (HOMO)
        60                         -0.3501631              -9.5284 (LUMO)
        61                         -0.2325755              -6.3287
        62                         -0.1788565              -4.8669
        63                         -0.1663152              -4.5257
        64                         -0.1572258              -4.2783
        65                         -0.1532441              -4.1700
        66                         -0.1362360              -3.7072
        67                         -0.1351167              -3.6767
        68                         -0.1032314              -2.8091
        69                         -0.0966730              -2.6306
        70                         -0.0544013              -1.4803
       ...                                ...                  ...
       115                          1.1879059              32.3246
      -------------------------------------------------------------
                  HL-Gap            0.1520569 Eh            4.1377 eV

     #   Z          covCN         q      C6AA      α(0)
     1   6 C        3.752    -0.117    22.793     6.808
     2   6 C        3.801    -0.061    21.669     6.628
     3   6 C        3.801    -0.074    21.910     6.664
     4   6 C        3.742    -0.035    21.284     6.582
     5   7 N        3.608     0.042    20.507     6.726
     6   6 C        2.913    -0.082    30.061     8.991
     7   6 C        2.915     0.021    27.545     8.606
     8   7 N        2.788    -0.058    22.360     7.023
     9   6 C        3.772     0.034    20.027     6.377
    10   6 C        3.740    -0.026    21.109     6.555
    11   6 C        3.906    -0.072    21.812     6.638
    12   6 C        3.752    -0.093    22.343     6.741
    13  15 P        3.892     0.484   140.488    21.292
    14   8 O        0.808    -0.433    22.376     6.341
    15   8 O        1.656    -0.262    18.360     5.784
    16   6 C        3.837     0.077    19.277     6.246
    17   6 C        3.750    -0.122    22.906     6.825
    18   8 O        1.655    -0.331    19.552     5.969
    19   6 C        3.939     0.087    19.076     6.207
    20   6 C        3.751    -0.124    22.937     6.830
    21   1 H        0.925     0.038     2.478     2.462
    22   1 H        0.925     0.060     2.193     2.316
    23   1 H        0.925     0.047     2.362     2.403
    24   1 H        0.924     0.047     2.355     2.400
    25   1 H        0.924     0.061     2.187     2.313
    26   1 H        0.924     0.046     2.364     2.405
    27   1 H        0.924     0.054     2.269     2.356
    28   1 H        0.924     0.096     1.818     2.109
    29   1 H        0.924     0.091     1.872     2.139
    30   1 H        0.859     0.219     1.015     1.578
    31   1 H        0.927     0.081     1.973     2.197
    32   1 H        0.926     0.119     1.624     1.993
    33   1 H        0.923     0.082     1.954     2.186
    34   1 H        0.924     0.099     1.790     2.092
    35   1 H        0.925     0.103     1.760     2.075
    36   1 H        0.924     0.068     2.108     2.271
    37   1 H        0.924     0.086     1.917     2.165
    38   1 H        0.924     0.042     2.417     2.431
    39   1 H        0.927     0.074     2.043     2.235
    40   1 H        0.925     0.057     2.231     2.336
    41   1 H        0.924     0.044     2.390     2.418
    42   1 H        0.924     0.069     2.093     2.263
    43   1 H        0.925     0.069     2.097     2.264
    44   1 H        0.925     0.045     2.381     2.413
    45   1 H        0.925     0.063     2.161     2.299
    46   1 H        0.924     0.053     2.288     2.365
    47   1 H        0.924     0.048     2.343     2.394
    48   1 H        0.925     0.074     2.047     2.237
    49   1 H        0.925     0.063     2.159     2.298
    50   1 H        0.925     0.044     2.393     2.419

Wiberg/Mayer (AO) data.
largest (>0.10) Wiberg bond orders for each atom

     #   Z sym  total        # sym  WBO       # sym  WBO       # sym  WBO
 ---------------------------------------------------------------------------
     1   6 C    3.993 --     2 C    1.021    23 H    0.986    21 H    0.986
                            22 H    0.984
     2   6 C    3.989 --     1 C    1.021     3 C    0.998    24 H    0.977
                            25 H    0.974
     3   6 C    3.987 --     4 C    1.007     2 C    0.998    27 H    0.973
                            26 H    0.973
     4   6 C    3.920 --     3 C    1.007    29 H    0.968    28 H    0.963
                             5 N    0.921
     5   7 N    3.766 --     9 C    0.950     4 C    0.921    30 H    0.918
                             6 C    0.912
     6   6 C    3.820 --     7 C    1.707    31 H    0.966     5 N    0.912
                             8 N    0.170
     7   6 C    3.964 --     6 C    1.707     8 N    1.226    32 H    0.941
     8   7 N    3.456 --     7 C    1.226     9 C    1.002    10 C    0.984
                             6 C    0.170
     9   6 C    3.941 --     8 N    1.002    33 H    0.960    34 H    0.957
                             5 N    0.950
    10   6 C    3.954 --    11 C    0.995     8 N    0.984    36 H    0.967
                            35 H    0.951
    11   6 C    3.991 --    12 C    1.009    10 C    0.995    38 H    0.973
                            37 H    0.964
    12   6 C    3.996 --    11 C    1.009    40 H    0.959    39 H    0.953
                            13 P    0.910
    13  15 P    5.408 --    14 O    1.949    15 O    1.266    18 O    1.128
                            12 C    0.910
    14   8 O    2.170 --    13 P    1.949
    15   8 O    2.381 --    13 P    1.266    16 C    0.922
    16   6 C    3.921 --    17 C    1.017    41 H    0.971    42 H    0.969
                            15 O    0.922
    17   6 C    3.990 --    16 C    1.017    44 H    0.984    43 H    0.983
                            45 H    0.981
    18   8 O    2.272 --    13 P    1.128    19 C    0.922
    19   6 C    3.925 --    20 C    1.019    47 H    0.972    46 H    0.966
                            18 O    0.922
    20   6 C    3.990 --    19 C    1.019    50 H    0.986    49 H    0.981
                            48 H    0.979
    21   1 H    0.999 --     1 C    0.986
    22   1 H    0.996 --     1 C    0.984
    23   1 H    0.998 --     1 C    0.986
    24   1 H    0.998 --     2 C    0.977
    25   1 H    0.996 --     2 C    0.974
    26   1 H    0.998 --     3 C    0.973
    27   1 H    0.997 --     3 C    0.973
    28   1 H    0.990 --     4 C    0.963
    29   1 H    0.992 --     4 C    0.968
    30   1 H    0.952 --     5 N    0.918
    31   1 H    0.993 --     6 C    0.966
    32   1 H    0.985 --     7 C    0.941
    33   1 H    0.993 --     9 C    0.960
    34   1 H    0.990 --     9 C    0.957
    35   1 H    0.989 --    10 C    0.951
    36   1 H    0.995 --    10 C    0.967
    37   1 H    0.991 --    11 C    0.964
    38   1 H    0.998 --    11 C    0.973
    39   1 H    0.994 --    12 C    0.953
    40   1 H    0.997 --    12 C    0.959
    41   1 H    0.998 --    16 C    0.971
    42   1 H    0.995 --    16 C    0.969
    43   1 H    0.995 --    17 C    0.983
    44   1 H    0.998 --    17 C    0.984
    45   1 H    0.995 --    17 C    0.981
    46   1 H    0.997 --    19 C    0.966
    47   1 H    0.997 --    19 C    0.972
    48   1 H    0.995 --    20 C    0.979
    49   1 H    0.995 --    20 C    0.981
    50   1 H    0.998 --    20 C    0.986
 ---------------------------------------------------------------------------

molecular dipole:
                 x           y           z       tot (Debye)
 q only:       -2.086       3.629       3.161
   full:       -1.794       4.088       3.119      13.842

           -------------------------------------------------
          | TOTAL ENERGY              -65.559514084772 Eh   |
          | GRADIENT NORM               0.000413248194 Eh/α |
          | HOMO-LUMO GAP               4.137679741982 eV   |
           -------------------------------------------------

 * finished run on 2024/12/20 at 02:15:27.514
