   * xtb version 6.7.1 (edcfbbe) compiled by 'conda@3ef47c1a292c' on 2024-11-25

   ID    Z sym.   atoms
    1    6 C      1-9, 11-16
    2    7 N      10
    3    1 H      17-42

          program call               : xtb C0339.xyz --opt --namespace C0339 --charge +1
          :  Hamiltonian                  GFN2-xTB          :
 * total energy  :   -47.9199029 Eh     change       -0.7549872E-09 Eh
 * total energy  :   -47.9227705 Eh     change       -0.2867588E-02 Eh
 * total energy  :   -47.9232872 Eh     change       -0.5167072E-03 Eh
 * total energy  :   -47.9233924 Eh     change       -0.1052187E-03 Eh
 * total energy  :   -47.9235052 Eh     change       -0.1127657E-03 Eh
 * total energy  :   -47.9235767 Eh     change       -0.7147284E-04 Eh
 * total energy  :   -47.9236593 Eh     change       -0.8261240E-04 Eh
 * total energy  :   -47.9237475 Eh     change       -0.8819034E-04 Eh
 * total energy  :   -47.9238166 Eh     change       -0.6909050E-04 Eh
 * total energy  :   -47.9238907 Eh     change       -0.7416269E-04 Eh
 * total energy  :   -47.9242103 Eh     change       -0.3230172E-04 Eh
 * total energy  :   -47.9242493 Eh     change       -0.3897688E-04 Eh
 * total energy  :   -47.9242815 Eh     change       -0.3227749E-04 Eh
 * total energy  :   -47.9242964 Eh     change       -0.1485734E-04 Eh
 * total energy  :   -47.9243068 Eh     change       -0.1037082E-04 Eh
 * total energy  :   -47.9243203 Eh     change       -0.1352363E-04 Eh
 * total energy  :   -47.9243320 Eh     change       -0.1167738E-04 Eh
 * total energy  :   -47.9243373 Eh     change       -0.5274707E-05 Eh
 * total energy  :   -47.9243422 Eh     change       -0.4959093E-05 Eh
   *** GEOMETRY OPTIMIZATION CONVERGED AFTER 26 ITERATIONS ***

 final structure:
================
42
 xtb: 6.7.1 (edcfbbe)
C            1.23030998156577       -0.01891386820106        0.23984415804846
C            1.21749982366343        1.31641373647033       -0.49420331419554
C            1.37100562708012        1.17482798224261       -2.00984297198271
C            0.26023348101300        0.38035989473852       -2.70058636913559
C           -1.14938606442043        0.94481107662965       -2.51353374694250
C           -1.34108319290387        2.38162325540407       -3.00554948918522
C           -1.01697962370250        2.60686709668704       -4.48517698099910
C           -1.82303177762205        1.75090336340908       -5.46144535668931
C           -3.33136529403924        2.04279675118405       -5.45881476182722
N           -3.59638232679870        3.36873810584425       -5.98597318523050
C           -3.70438923846031        3.54191798480097       -7.30669007276753
C           -3.87789436578240        4.80266546652333       -7.84116157849154
C           -3.92985394429562        5.89939678853366       -6.99647944802294
C           -3.81347346904570        5.71497920241877       -5.61656710535241
C           -3.64768785214203        4.41624658014539       -5.15717542198346
C           -3.87546513720545        6.86108873264566       -4.67124475723728
H            0.36357919492986       -0.62203546904963       -0.01880168973913
H            1.21711883080108        0.14488547705136        1.31444581693690
H            2.12791272149640       -0.58011934856354       -0.00866633750232
H            0.29673620666363        1.85371960856102       -0.25767339870406
H            2.04813492107995        1.92482263798457       -0.12920654058870
H            1.43732716610310        2.17261846230737       -2.45032218250799
H            2.31781408804584        0.67038646644122       -2.21518259567631
H            0.49378249690390        0.31734102313457       -3.76614996412111
H            0.26488146919868       -0.64027777519830       -2.31625206302672
H           -1.85762541258278        0.28355464234233       -3.01937334779793
H           -1.40172208552058        0.92094570691434       -1.45273704354932
H           -2.37268099029277        2.67636503702973       -2.79097949760190
H           -0.69913972209645        3.04237134861593       -2.42209815561886
H           -1.15087898918596        3.66721791393539       -4.72307984955774
H            0.03731538911031        2.38225135502005       -4.64568205335119
H           -1.43567227822194        1.89896760422523       -6.47208617849214
H           -1.69373364907048        0.69906554114959       -5.21064102356166
H           -3.84501775097589        1.30858169851005       -6.08184222564961
H           -3.72141000358565        1.97432419893297       -4.44313153430621
H           -3.65385017324546        2.66198522947971       -7.92983014244585
H           -3.97023500825733        4.92044216940753       -8.90866738505592
H           -4.06297731676971        6.89240352482619       -7.39711260055154
H           -3.56415245509164        4.21241615746515       -4.09980839664011
H           -3.21808409731140        7.66272290439339       -5.00144685503460
H           -4.88753629022902        7.26475072352678       -4.64573153962538
H           -3.59758288879172        6.56531101207874       -3.66391281423986

          :  Hamiltonian                  GFN2-xTB          :
         :: total energy             -47.924342212654 Eh    ::
         :: gradient norm              0.000363814996 Eh/a0 ::
         :: HOMO-LUMO gap              1.132108066404 eV    ::
         :: SCC energy               -48.691933510852 Eh    ::
         :: -> dispersion             -0.034360436075 Eh    ::
         :: repulsion energy           0.767591298198 Eh    ::

    * Orbital Energies and Occupations

         #    Occupation            Energy/Eh            Energy/eV
      -------------------------------------------------------------
         1        2.0000           -0.8703681             -23.6839
       ...           ...                  ...                  ...
        33        2.0000           -0.5840828             -15.8937
        34        2.0000           -0.5749016             -15.6439
        35        2.0000           -0.5723923             -15.5756
        36        2.0000           -0.5647179             -15.3668
        37        2.0000           -0.5559414             -15.1279
        38        2.0000           -0.5469175             -14.8824
        39        2.0000           -0.5421350             -14.7522
        40        2.0000           -0.5277782             -14.3616
        41        2.0000           -0.5207393             -14.1700
        42        2.0000           -0.5168579             -14.0644
        43        2.0000           -0.4973342             -13.5332
        44        2.0000           -0.4936245             -13.4322
        45        2.0000           -0.4898361             -13.3291 (HOMO)
        46                         -0.4482319             -12.1970 (LUMO)
        47                         -0.4151420             -11.2966
        48                         -0.2984671              -8.1217
        49                         -0.1626995              -4.4273
        50                         -0.0789947              -2.1496
        51                         -0.0605773              -1.6484
        52                         -0.0473285              -1.2879
        53                         -0.0359074              -0.9771
        54                         -0.0325447              -0.8856
        55                         -0.0128914              -0.3508
        56                         -0.0082865              -0.2255
       ...                                ...                  ...
        90                          0.4464240              12.1478
      -------------------------------------------------------------
                  HL-Gap            0.0416042 Eh            1.1321 eV

     #   Z          covCN         q      C6AA      α(0)
     1   6 C        3.751    -0.105    22.562     6.774
     2   6 C        3.799    -0.053    21.535     6.607
     3   6 C        3.800    -0.060    21.647     6.624
     4   6 C        3.800    -0.061    21.676     6.629
     5   6 C        3.800    -0.062    21.684     6.630
     6   6 C        3.800    -0.061    21.672     6.628
     7   6 C        3.800    -0.066    21.761     6.642
     8   6 C        3.801    -0.068    21.811     6.649
     9   6 C        3.760    -0.035    21.238     6.570
    10   7 N        2.749     0.109    19.370     6.537
    11   6 C        2.894     0.025    27.441     8.589
    12   6 C        2.913    -0.015    28.376     8.735
    13   6 C        2.930    -0.004    28.115     8.696
    14   6 C        2.961     0.048    26.928     8.512
    15   6 C        2.899     0.018    27.599     8.614
    16   6 C        3.759    -0.133    23.105     6.853
    17   1 H        0.925     0.034     2.530     2.487
    18   1 H        0.925     0.038     2.478     2.462
    19   1 H        0.925     0.039     2.465     2.455
    20   1 H        0.924     0.027     2.628     2.535
    21   1 H        0.924     0.033     2.541     2.493
    22   1 H        0.924     0.025     2.666     2.553
    23   1 H        0.924     0.038     2.480     2.463
    24   1 H        0.924     0.026     2.649     2.545
    25   1 H        0.924     0.044     2.395     2.420
    26   1 H        0.924     0.024     2.667     2.554
    27   1 H        0.924     0.047     2.356     2.400
    28   1 H        0.924     0.015     2.804     2.619
    29   1 H        0.924     0.051     2.312     2.378
    30   1 H        0.924     0.023     2.687     2.564
    31   1 H        0.925     0.066     2.132     2.283
    32   1 H        0.924     0.050     2.322     2.383
    33   1 H        0.925     0.083     1.946     2.181
    34   1 H        0.924     0.086     1.921     2.168
    35   1 H        0.925     0.095     1.834     2.118
    36   1 H        0.926     0.103     1.757     2.073
    37   1 H        0.926     0.102     1.764     2.077
    38   1 H        0.926     0.100     1.789     2.091
    39   1 H        0.926     0.105     1.740     2.063
    40   1 H        0.925     0.093     1.849     2.126
    41   1 H        0.925     0.097     1.810     2.104
    42   1 H        0.925     0.078     2.005     2.214

Wiberg/Mayer (AO) data.
largest (>0.10) Wiberg bond orders for each atom

     #   Z sym  total        # sym  WBO       # sym  WBO       # sym  WBO
 ---------------------------------------------------------------------------
     1   6 C    3.996 --     2 C    1.020    19 H    0.987    18 H    0.987
                            17 H    0.986
     2   6 C    3.998 --     1 C    1.020     3 C    1.008    21 H    0.978
                            20 H    0.976
     3   6 C    3.997 --     2 C    1.008     4 C    1.008    23 H    0.976
                            22 H    0.976
     4   6 C    3.996 --     5 C    1.008     3 C    1.008    24 H    0.975
                            25 H    0.974
     5   6 C    3.995 --     4 C    1.008     6 C    1.007    26 H    0.975
                            27 H    0.973
     6   6 C    3.995 --     5 C    1.007     7 C    1.007    29 H    0.973
                            28 H    0.972
     7   6 C    3.993 --     8 C    1.010     6 C    1.007    30 H    0.972
                            31 H    0.966
     8   6 C    3.981 --     7 C    1.010    32 H    0.974     9 C    0.973
                            33 H    0.960
     9   6 C    3.934 --     8 C    0.973    10 N    0.965    34 H    0.964
                            35 H    0.959
    10   7 N    3.766 --    11 C    1.327    15 C    1.325     9 C    0.965
    11   6 C    3.960 --    12 C    1.449    10 N    1.327    36 H    0.956
    12   6 C    3.983 --    11 C    1.449    13 C    1.441    37 H    0.960
    13   6 C    3.975 --    12 C    1.441    14 C    1.376    38 H    0.962
    14   6 C    3.981 --    15 C    1.412    13 C    1.376    16 C    1.046
    15   6 C    3.958 --    14 C    1.412    10 N    1.325    39 H    0.950
    16   6 C    3.983 --    14 C    1.046    42 H    0.980    40 H    0.959
                            41 H    0.947
    17   1 H    0.999 --     1 C    0.986
    18   1 H    0.999 --     1 C    0.987
    19   1 H    0.998 --     1 C    0.987
    20   1 H    0.999 --     2 C    0.976
    21   1 H    0.999 --     2 C    0.978
    22   1 H    0.999 --     3 C    0.976
    23   1 H    0.999 --     3 C    0.976
    24   1 H    0.999 --     4 C    0.975
    25   1 H    0.998 --     4 C    0.974
    26   1 H    0.999 --     5 C    0.975
    27   1 H    0.998 --     5 C    0.973
    28   1 H    1.000 --     6 C    0.972
    29   1 H    0.997 --     6 C    0.973
    30   1 H    0.999 --     7 C    0.972
    31   1 H    0.995 --     7 C    0.966
    32   1 H    0.997 --     8 C    0.974
    33   1 H    0.991 --     8 C    0.960
    34   1 H    0.992 --     9 C    0.964
    35   1 H    0.991 --     9 C    0.959
    36   1 H    0.989 --    11 C    0.956
    37   1 H    0.989 --    12 C    0.960
    38   1 H    0.990 --    13 C    0.962
    39   1 H    0.989 --    15 C    0.950
    40   1 H    0.991 --    16 C    0.959
    41   1 H    0.990 --    16 C    0.947
    42   1 H    0.994 --    16 C    0.980
 ---------------------------------------------------------------------------

molecular dipole:
                 x           y           z       tot (Debye)
 q only:       -6.301       7.539     -10.924
   full:       -6.394       7.518     -11.039      37.636

           -------------------------------------------------
          | TOTAL ENERGY              -47.924342212654 Eh   |
          | GRADIENT NORM               0.000363814996 Eh/α |
          | HOMO-LUMO GAP               1.132108066404 eV   |
           -------------------------------------------------

 * finished run on 2024/12/20 at 02:17:01.921
