   * xtb version 6.7.1 (edcfbbe) compiled by 'conda@3ef47c1a292c' on 2024-11-25

   ID    Z sym.   atoms
    1    6 C      1-4, 6-10
    2    7 N      5
    3    1 H      11-32

          program call               : xtb C0330.xyz --opt --namespace C0330 --charge +1
          :  Hamiltonian                  GFN2-xTB          :
 * total energy  :   -33.0120269 Eh     change       -0.4148859E-10 Eh
 * total energy  :   -33.0180323 Eh     change       -0.6005433E-02 Eh
 * total energy  :   -33.0194238 Eh     change       -0.1391504E-02 Eh
 * total energy  :   -33.0194694 Eh     change       -0.4562316E-04 Eh
 * total energy  :   -33.0194889 Eh     change       -0.1946661E-04 Eh
 * total energy  :   -33.0194998 Eh     change       -0.1089596E-04 Eh
 * total energy  :   -33.0195118 Eh     change       -0.1198178E-04 Eh
 * total energy  :   -33.0195155 Eh     change       -0.3747187E-05 Eh
   *** GEOMETRY OPTIMIZATION CONVERGED AFTER 8 ITERATIONS ***

 final structure:
================
32
 xtb: 6.7.1 (edcfbbe)
C            1.36764876514414       -0.21202395821352        0.29630562667213
C            0.79344790458697        0.59377600561939        1.45561763274774
C            0.91566970015537        2.11028561472419        1.26974904453881
C            0.29854049086849        2.72305855472064        0.00847595496731
N           -1.18041613699364        2.95751466022535       -0.03214693571479
C           -1.66804681450604        3.69048292007811        1.17895649996753
C           -1.03522270637008        5.04844450018082        1.43942713690680
C           -1.50202331686762        3.77521432421353       -1.24678739516757
C           -1.24293679732559        3.10486409154537       -2.58741610926971
C           -1.92088440956408        1.68343328948901       -0.10084838141257
H            0.77004195019989       -0.12003694109539       -0.60807916458749
H            1.39649066831730       -1.26481965324601        0.56112938015224
H            2.38325175799521        0.10669304902385        0.07555322875694
H           -0.23687691787496        0.28896754570843        1.64013236581987
H            1.35631833796287        0.34472811387180        2.35668995124179
H            0.56053223179310        2.61352628896790        2.16843213645198
H            1.98305565713580        2.33260006269104        1.19406854072459
H            0.76862898192802        3.69386339678156       -0.15545696080426
H            0.54896821267523        2.08433982077480       -0.83760373446063
H           -2.74733549496107        3.81441388920116        1.06630336129541
H           -1.49825986023614        3.04529484010364        2.04178848120482
H           -1.26214407197911        5.77062381525569        0.66110085729091
H           -1.45177040166717        5.43392500353041        2.36692691784508
H            0.04111922678470        4.98622675889297        1.56745501338128
H           -2.55931924517835        4.04179337618492       -1.18456681237243
H           -0.91512281456245        4.69246365764609       -1.19612622300490
H           -1.85673900032742        2.22227578582509       -2.73836546872231
H           -1.50565694901187        3.81732007491409       -3.36575266149644
H           -0.19811881016823        2.84566344157309       -2.72920942519551
H           -1.48440632016846        1.02821467346301       -0.84949790414768
H           -1.89231066486492        1.17746209084993        0.86014078436325
H           -2.96177315291971        1.87265090649899       -0.35841573797263

          :  Hamiltonian                  GFN2-xTB          :
         :: total energy             -33.019515537576 Eh    ::
         :: gradient norm              0.000485786188 Eh/a0 ::
         :: HOMO-LUMO gap              8.673620066622 eV    ::
         :: SCC energy               -33.497328077086 Eh    ::
         :: -> dispersion             -0.023116145752 Eh    ::
         :: repulsion energy           0.477812539511 Eh    ::

    * Orbital Energies and Occupations

         #    Occupation            Energy/Eh            Energy/eV
      -------------------------------------------------------------
         1        2.0000           -0.8576615             -23.3382
       ...           ...                  ...                  ...
        19        2.0000           -0.6403753             -17.4255
        20        2.0000           -0.6350659             -17.2810
        21        2.0000           -0.6288511             -17.1119
        22        2.0000           -0.6233711             -16.9628
        23        2.0000           -0.6133247             -16.6894
        24        2.0000           -0.6107811             -16.6202
        25        2.0000           -0.6049263             -16.4609
        26        2.0000           -0.6021097             -16.3842
        27        2.0000           -0.5947283             -16.1834
        28        2.0000           -0.5930245             -16.1370
        29        2.0000           -0.5690287             -15.4841
        30        2.0000           -0.5599002             -15.2357
        31        2.0000           -0.5525873             -15.0367 (HOMO)
        32                         -0.2338376              -6.3630 (LUMO)
        33                         -0.1687697              -4.5925
        34                         -0.1618131              -4.4032
        35                         -0.1432513              -3.8981
        36                         -0.0732723              -1.9938
        37                         -0.0635602              -1.7296
        38                         -0.0545865              -1.4854
        39                         -0.0428081              -1.1649
        40                         -0.0308287              -0.8389
        41                         -0.0300004              -0.8164
        42                         -0.0029394              -0.0800
       ...                                ...                  ...
        62                          0.1899192               5.1680
      -------------------------------------------------------------
                  HL-Gap            0.3187497 Eh            8.6736 eV

     #   Z          covCN         q      C6AA      α(0)
     1   6 C        3.751    -0.114    22.739     6.800
     2   6 C        3.799    -0.064    21.730     6.637
     3   6 C        3.799    -0.075    21.929     6.668
     4   6 C        3.751    -0.039    21.336     6.587
     5   7 N        3.618     0.115    19.263     6.519
     6   6 C        3.762    -0.032    21.195     6.563
     7   6 C        3.751    -0.129    23.047     6.846
     8   6 C        3.762    -0.033    21.212     6.565
     9   6 C        3.751    -0.130    23.059     6.848
    10   6 C        3.719    -0.090    22.333     6.750
    11   1 H        0.925     0.029     2.597     2.520
    12   1 H        0.925     0.058     2.227     2.334
    13   1 H        0.925     0.049     2.329     2.387
    14   1 H        0.925     0.035     2.522     2.483
    15   1 H        0.924     0.059     2.213     2.327
    16   1 H        0.925     0.055     2.260     2.351
    17   1 H        0.924     0.073     2.053     2.241
    18   1 H        0.924     0.080     1.974     2.197
    19   1 H        0.925     0.092     1.856     2.131
    20   1 H        0.924     0.081     1.969     2.195
    21   1 H        0.924     0.087     1.904     2.158
    22   1 H        0.925     0.065     2.144     2.290
    23   1 H        0.925     0.085     1.930     2.173
    24   1 H        0.925     0.068     2.107     2.270
    25   1 H        0.924     0.082     1.956     2.187
    26   1 H        0.925     0.086     1.914     2.164
    27   1 H        0.925     0.068     2.109     2.271
    28   1 H        0.925     0.085     1.926     2.170
    29   1 H        0.925     0.065     2.141     2.288
    30   1 H        0.925     0.100     1.783     2.088
    31   1 H        0.925     0.097     1.810     2.104
    32   1 H        0.925     0.091     1.874     2.140

Wiberg/Mayer (AO) data.
largest (>0.10) Wiberg bond orders for each atom

     #   Z sym  total        # sym  WBO       # sym  WBO       # sym  WBO
 ---------------------------------------------------------------------------
     1   6 C    3.993 --     2 C    1.021    13 H    0.986    12 H    0.984
                            11 H    0.984
     2   6 C    3.993 --     1 C    1.021     3 C    1.006    15 H    0.973
                            14 H    0.971
     3   6 C    3.985 --     2 C    1.006     4 C    1.005    16 H    0.968
                            17 H    0.965
     4   6 C    3.929 --     3 C    1.005    18 H    0.966    19 H    0.958
                             5 N    0.925
     5   7 N    3.803 --    10 C    0.962     6 C    0.929     8 C    0.927
                             4 C    0.925
     6   6 C    3.936 --     7 C    1.023    20 H    0.967    21 H    0.963
                             5 N    0.929
     7   6 C    3.982 --     6 C    1.023    22 H    0.981    24 H    0.980
                            23 H    0.973
     8   6 C    3.935 --     9 C    1.023    25 H    0.967    26 H    0.965
                             5 N    0.927
     9   6 C    3.982 --     8 C    1.023    27 H    0.981    29 H    0.980
                            28 H    0.972
    10   6 C    3.931 --    32 H    0.976    30 H    0.971    31 H    0.967
                             5 N    0.962
    11   1 H    0.999 --     1 C    0.984
    12   1 H    0.997 --     1 C    0.984
    13   1 H    0.998 --     1 C    0.986
    14   1 H    0.999 --     2 C    0.971
    15   1 H    0.996 --     2 C    0.973
    16   1 H    0.997 --     3 C    0.968
    17   1 H    0.994 --     3 C    0.965
    18   1 H    0.994 --     4 C    0.966
    19   1 H    0.991 --     4 C    0.958
    20   1 H    0.993 --     6 C    0.967
    21   1 H    0.992 --     6 C    0.963
    22   1 H    0.996 --     7 C    0.981
    23   1 H    0.992 --     7 C    0.973
    24   1 H    0.995 --     7 C    0.980
    25   1 H    0.993 --     8 C    0.967
    26   1 H    0.993 --     8 C    0.965
    27   1 H    0.995 --     9 C    0.981
    28   1 H    0.992 --     9 C    0.972
    29   1 H    0.996 --     9 C    0.980
    30   1 H    0.990 --    10 C    0.971
    31   1 H    0.991 --    10 C    0.967
    32   1 H    0.992 --    10 C    0.976
 ---------------------------------------------------------------------------

molecular dipole:
                 x           y           z       tot (Debye)
 q only:       -1.860       5.495      -0.006
   full:       -1.929       5.531      -0.004      14.888

           -------------------------------------------------
          | TOTAL ENERGY              -33.019515537576 Eh   |
          | GRADIENT NORM               0.000485786188 Eh/α |
          | HOMO-LUMO GAP               8.673620066622 eV   |
           -------------------------------------------------

 * finished run on 2024/12/20 at 02:15:22.288
