   * xtb version 6.7.1 (edcfbbe) compiled by 'conda@3ef47c1a292c' on 2024-11-25

   ID    Z sym.   atoms
    1    8 O      1, 3
    2    6 C      2, 4, 5, 7-11
    3    7 N      6
    4    1 H      12-19

          program call               : xtb C0344.xyz --opt --namespace C0344 --charge +1
          :  Hamiltonian                  GFN2-xTB          :
 * total energy  :   -31.8151508 Eh     change       -0.4642899E-09 Eh
 * total energy  :   -31.8179060 Eh     change       -0.2755224E-02 Eh
 * total energy  :   -31.8185835 Eh     change       -0.6775017E-03 Eh
 * total energy  :   -31.8187131 Eh     change       -0.1295673E-03 Eh
 * total energy  :   -31.8187575 Eh     change       -0.4441683E-04 Eh
 * total energy  :   -31.8187651 Eh     change       -0.7648054E-05 Eh
 * total energy  :   -31.8187711 Eh     change       -0.5914027E-05 Eh
 * total energy  :   -31.8187791 Eh     change       -0.8045232E-05 Eh
 * total energy  :   -31.8187902 Eh     change       -0.1109664E-04 Eh
 * total energy  :   -31.8188071 Eh     change       -0.1693303E-04 Eh
 * total energy  :   -31.8189064 Eh     change       -0.1660833E-04 Eh
 * total energy  :   -31.8189207 Eh     change       -0.1433608E-04 Eh
 * total energy  :   -31.8189358 Eh     change       -0.1506463E-04 Eh
 * total energy  :   -31.8189441 Eh     change       -0.8326931E-05 Eh
 * total energy  :   -31.8189559 Eh     change       -0.1172604E-04 Eh
 * total energy  :   -31.8188721 Eh     change        0.8378098E-04 Eh
 * total energy  :   -31.8189878 Eh     change       -0.1157245E-03 Eh
 * total energy  :   -31.8189927 Eh     change       -0.4917524E-05 Eh
 * total energy  :   -31.8189948 Eh     change       -0.2083916E-05 Eh
   *** GEOMETRY OPTIMIZATION CONVERGED AFTER 22 ITERATIONS ***

 final structure:
================
19
 xtb: 6.7.1 (edcfbbe)
O            0.79517721250629        0.11699036096486       -0.21302170566557
C            0.36403999115882       -1.06667833936433        0.21211019906809
O            1.06758088921523       -1.97090172303191        0.55386308943242
C           -1.13057435965864       -1.16435356835444        0.23225853022074
C           -1.90679193053739       -0.11631399272208       -0.02429319497737
N           -3.31856732897258       -0.12476745563382       -0.01698270406889
C           -4.01174414915643       -1.02757247244343        0.69887339124436
C           -5.38957624515186       -1.04029789062425        0.68579555899085
C           -6.07644682170237       -0.10099088205427       -0.07483058375483
C           -5.34406217749148        0.83409230994940       -0.79742047833466
C           -3.96788006436168        0.80085257911671       -0.74675297768827
H            1.76683173626954        0.15236203789973       -0.21345542975056
H           -1.48904836093684       -2.15557559625498        0.46868962115426
H           -1.46447041811339        0.83259081705599       -0.29647916625741
H           -3.44757903019425       -1.72647398998629        1.29698522952520
H           -5.91858006962957       -1.77516156631129        1.27173063806957
H           -7.15497659359032       -0.09277104979484       -0.09738533460088
H           -5.83590730926596        1.58552242068115       -1.39454548501332
H           -3.36462497038715        1.50834800090829       -1.29742919759378

          :  Hamiltonian                  GFN2-xTB          :
         :: total energy             -31.818994809144 Eh    ::
         :: gradient norm              0.000485741708 Eh/a0 ::
         :: HOMO-LUMO gap              2.043426929439 eV    ::
         :: SCC energy               -32.285881609957 Eh    ::
         :: -> dispersion             -0.014056361296 Eh    ::
         :: repulsion energy           0.466886800813 Eh    ::

    * Orbital Energies and Occupations

         #    Occupation            Energy/Eh            Energy/eV
      -------------------------------------------------------------
         1        2.0000           -0.8962503             -24.3882
       ...           ...                  ...                  ...
        16        2.0000           -0.7121795             -19.3794
        17        2.0000           -0.7002614             -19.0551
        18        2.0000           -0.6941836             -18.8897
        19        2.0000           -0.6858197             -18.6621
        20        2.0000           -0.6569709             -17.8771
        21        2.0000           -0.6437863             -17.5183
        22        2.0000           -0.6386074             -17.3774
        23        2.0000           -0.6341124             -17.2551
        24        2.0000           -0.6321383             -17.2014
        25        2.0000           -0.6284660             -17.1014
        26        2.0000           -0.6126997             -16.6724
        27        2.0000           -0.6033721             -16.4186
        28        2.0000           -0.5627131             -15.3122 (HOMO)
        29                         -0.4876185             -13.2688 (LUMO)
        30                         -0.4411581             -12.0045
        31                         -0.4204050             -11.4398
        32                         -0.3277145              -8.9176
        33                         -0.3093655              -8.4183
        34                         -0.1798216              -4.8932
        35                         -0.0978619              -2.6630
        36                         -0.0701989              -1.9102
        37                         -0.0614904              -1.6732
        38                         -0.0402170              -1.0944
        39                         -0.0258518              -0.7035
       ...                                ...                  ...
        52                          0.5791869              15.7605
      -------------------------------------------------------------
                  HL-Gap            0.0750946 Eh            2.0434 eV

     #   Z          covCN         q      C6AA      α(0)
     1   8 O        1.660    -0.362    20.118     6.055
     2   6 C        2.693     0.366    20.787     7.462
     3   8 O        0.857    -0.342    20.552     6.078
     4   6 C        2.889    -0.042    29.043     8.836
     5   6 C        2.861     0.009    27.823     8.646
     6   7 N        2.751     0.125    19.103     6.491
     7   6 C        2.889     0.033    27.260     8.560
     8   6 C        2.915    -0.006    28.172     8.704
     9   6 C        2.924     0.018    27.599     8.615
    10   6 C        2.914    -0.006    28.174     8.704
    11   6 C        2.898     0.034    27.250     8.559
    12   1 H        0.804     0.359     0.567     1.183
    13   1 H        0.926     0.110     1.696     2.037
    14   1 H        0.925     0.123     1.590     1.972
    15   1 H        0.926     0.117     1.640     2.003
    16   1 H        0.926     0.116     1.646     2.006
    17   1 H        0.926     0.115     1.654     2.011
    18   1 H        0.926     0.116     1.646     2.007
    19   1 H        0.926     0.116     1.642     2.004

Wiberg/Mayer (AO) data.
largest (>0.10) Wiberg bond orders for each atom

     #   Z sym  total        # sym  WBO       # sym  WBO       # sym  WBO
 ---------------------------------------------------------------------------
     1   8 O    2.220 --     2 C    1.151    12 H    0.847     3 O    0.191
     2   6 C    3.936 --     3 O    1.779     1 O    1.151     4 C    0.980
     3   8 O    2.090 --     2 C    1.779     1 O    0.191
     4   6 C    3.976 --     5 C    1.839     2 C    0.980    13 H    0.952
     5   6 C    3.943 --     4 C    1.839     6 N    1.036    14 H    0.942
     6   7 N    3.776 --     7 C    1.293    11 C    1.292     5 C    1.036
     7   6 C    3.954 --     8 C    1.475     6 N    1.293    15 H    0.950
     8   6 C    3.979 --     7 C    1.475     9 C    1.413    16 H    0.957
     9   6 C    3.962 --     8 C    1.413    10 C    1.412    17 H    0.960
    10   6 C    3.978 --    11 C    1.476     9 C    1.412    18 H    0.957
    11   6 C    3.949 --    10 C    1.476     6 N    1.292    19 H    0.953
    12   1 H    0.871 --     1 O    0.847
    13   1 H    0.988 --     4 C    0.952
    14   1 H    0.984 --     5 C    0.942
    15   1 H    0.986 --     7 C    0.950
    16   1 H    0.986 --     8 C    0.957
    17   1 H    0.987 --     9 C    0.960
    18   1 H    0.986 --    10 C    0.957
    19   1 H    0.986 --    11 C    0.953
 ---------------------------------------------------------------------------

molecular dipole:
                 x           y           z       tot (Debye)
 q only:       -7.380       0.239      -0.257
   full:       -7.306       0.310      -0.283      18.601

           -------------------------------------------------
          | TOTAL ENERGY              -31.818994809144 Eh   |
          | GRADIENT NORM               0.000485741708 Eh/α |
          | HOMO-LUMO GAP               2.043426929439 eV   |
           -------------------------------------------------

 * finished run on 2024/12/20 at 06:41:14.980
