   * xtb version 6.7.1 (edcfbbe) compiled by 'conda@3ef47c1a292c' on 2024-11-25

   ID    Z sym.   atoms
    1    8 O      1, 3
    2    6 C      2, 4-7, 9-19, 21-26, 28, 30-36
    3    7 N      8, 20, 27, 29
    4    1 H      37-81

          program call               : xtb C0348.xyz --opt --namespace C0348 --charge +1
          :  Hamiltonian                  GFN2-xTB          :
 * total energy  :  -106.7200018 Eh     change       -0.5889262E-09 Eh
 * total energy  :  -106.7288791 Eh     change       -0.8877299E-02 Eh
 * total energy  :  -106.7307694 Eh     change       -0.1890251E-02 Eh
 * total energy  :  -106.7314564 Eh     change       -0.6869788E-03 Eh
 * total energy  :  -106.7320313 Eh     change       -0.5749305E-03 Eh
 * total energy  :  -106.7323638 Eh     change       -0.3324854E-03 Eh
 * total energy  :  -106.7326538 Eh     change       -0.2900321E-03 Eh
 * total energy  :  -106.7328987 Eh     change       -0.2449012E-03 Eh
 * total energy  :  -106.7331093 Eh     change       -0.2105823E-03 Eh
 * total energy  :  -106.7332978 Eh     change       -0.1884596E-03 Eh
 * total energy  :  -106.7344487 Eh     change       -0.2468551E-04 Eh
 * total energy  :  -106.7344751 Eh     change       -0.2642014E-04 Eh
 * total energy  :  -106.7345065 Eh     change       -0.3140675E-04 Eh
 * total energy  :  -106.7345364 Eh     change       -0.2991878E-04 Eh
 * total energy  :  -106.7345613 Eh     change       -0.2484658E-04 Eh
 * total energy  :  -106.7345812 Eh     change       -0.1996307E-04 Eh
 * total energy  :  -106.7345981 Eh     change       -0.1687623E-04 Eh
 * total energy  :  -106.7346138 Eh     change       -0.1572251E-04 Eh
 * total energy  :  -106.7346180 Eh     change       -0.4166614E-05 Eh
   *** GEOMETRY OPTIMIZATION CONVERGED AFTER 44 ITERATIONS ***

 final structure:
================
81
 xtb: 6.7.1 (edcfbbe)
O            0.85118693263113        0.20293447324736        0.73803320447010
C            2.00809557591498        0.05691159358597        0.43852427103197
O            2.78943881243705       -0.72672363677012        1.20320300872071
C            4.22649316934732       -0.72533729254711        1.28102213551792
C            4.88684451056890       -1.32704205610107        0.02806057291463
C            4.75574620251013        0.67966778404180        1.57971121399185
C            4.50381888655824       -1.64234079040275        2.47748118311472
N            2.56489335995042        0.63167738622108       -0.66125839509042
C            1.79064497779022        1.46240261713298       -1.55320553296239
C            2.36750255778385        2.87592473455953       -1.66461100967551
C            3.80437890311031        2.92962872565453       -2.18994868935335
C            4.00621002037724        2.32565182601512       -3.58125502304842
C            3.22443322936393        3.02002742582500       -4.69819706229126
C            3.54441986706183        4.50526401400424       -4.88674901296484
C            5.02563567671884        4.83009337566145       -5.09244500814088
C            5.65768388261649        4.16648940067502       -6.31946924181093
C            5.22066596763402        4.79962758723436       -7.64457582445312
C            5.97803502544628        6.08333283691105       -7.98940599433456
C            7.43807825630406        5.85406889013833       -8.39399061215455
N            7.55668601538318        5.13587345252437       -9.64480273069035
C            7.52987775065128        5.72841247139734      -10.90238883599182
C            7.40473973943288        7.05083931949924      -11.29250367453945
C            7.42623303233797        7.31052119982576      -12.65107839301629
C            7.56518719140438        6.28861152580268      -13.58660333451981
C            7.68813040672754        4.96510089866693      -13.20295274621720
C            7.66873205263154        4.69837083796371      -11.84455361517705
N            7.76153295487456        3.51179202296745      -11.12758875370793
C            7.68444035268088        3.80918359563370       -9.81771849320196
N            7.70138376580104        2.89397256423709       -8.84500572158823
C            7.88332941008921        2.17287235028580      -11.67494462123077
C            9.02333146896138        1.41269658601002      -11.04043574557983
C            8.79633241716102        0.19788633561385      -10.40170444305723
C            9.84859599180576       -0.49266801257760       -9.82229589484240
C           11.12932469779877        0.03125359529666       -9.86673447024033
C           11.35976233677267        1.24387454705801      -10.49709947158536
C           10.31256451551548        1.93225412623580      -11.08311167057655
H            5.14189634647799       -0.57641782765822       -0.71935165705085
H            5.81109356498088       -1.82328650650697        0.31294685367659
H            4.22724706453530       -2.06880778783764       -0.41670459819439
H            4.31487750043559        1.04618995782639        2.50332045011499
H            5.83599374281351        0.64511104598176        1.69618157735714
H            4.51055943012759        1.38205686581171        0.78659554754578
H            3.95625321870534       -1.28499095514247        3.34441852074502
H            4.16589146277623       -2.65005100390864        2.25386694747127
H            5.56547102440199       -1.65969967116238        2.70665822764761
H            3.47725733921763        0.34906811445523       -0.96988416830538
H            1.72942110632769        0.99228892057263       -2.54083681557274
H            0.78446816939484        1.50986687101080       -1.13146913344226
H            1.71340318576580        3.46212771240986       -2.31051150101258
H            2.34819309866544        3.33364154614941       -0.67386631432612
H            4.12715449008623        3.97228655600428       -2.19784066944695
H            4.46049726909621        2.40434703580304       -1.49112012914046
H            5.07366540859902        2.34996505665590       -3.81503785955614
H            3.71094486269923        1.27448950979757       -3.56622541367318
H            3.41101113288689        2.48460874424060       -5.63268235301651
H            2.15653617241671        2.93016449193185       -4.49514372642059
H            2.96612649150253        4.87067957410624       -5.73825498379465
H            3.20035601374386        5.05779122180157       -4.01164552782576
H            5.13216063090847        5.91390896169456       -5.17389304050166
H            5.58157593169688        4.52103001140955       -4.20652620332548
H            6.74495090308551        4.23195218616576       -6.21135371395403
H            5.39374744793710        3.10862783658440       -6.32321576423969
H            5.33281644734076        4.08232106778760       -8.46136146725800
H            4.15925319792248        5.03736588567707       -7.58107901483051
H            5.46824091865207        6.59132854684157       -8.80992404450246
H            5.97100906150116        6.75253761814082       -7.12912596796723
H            7.93593409513362        6.81693958346670       -8.52689728539454
H            7.97886248812746        5.30633446086933       -7.61933698961100
H            7.29287453836579        7.84742859358218      -10.57570339041799
H            7.33130867785806        8.32818659828891      -12.99376064402905
H            7.57523327632275        6.53424308555221      -14.63620480637406
H            7.79177130256239        4.18402925731715      -13.93815881880301
H            7.64138347431112        3.17886129777083       -7.88199486381448
H            8.00807416626256        1.95559213854705       -9.05965780835956
H            6.93928549562832        1.63562803382117      -11.53208507716729
H            8.05736029443984        2.27864394697345      -12.74739091641563
H            7.79982950624217       -0.22122895325976      -10.37857246171438
H            9.66550428471480       -1.44025086923707       -9.34031862175651
H           11.94853585963876       -0.50807954895894       -9.41831038907317
H           12.35843795910345        1.64920872882627      -10.54108546415024
H           10.49526203234368        2.87186574819086      -11.58470808780408

          :  Hamiltonian                  GFN2-xTB          :
         :: total energy            -106.734617997657 Eh    ::
         :: gradient norm              0.000301430937 Eh/a0 ::
         :: HOMO-LUMO gap              1.738996494941 eV    ::
         :: SCC energy              -108.332682387084 Eh    ::
         :: -> dispersion             -0.082162052765 Eh    ::
         :: repulsion energy           1.598064389426 Eh    ::

    * Orbital Energies and Occupations

         #    Occupation            Energy/Eh            Energy/eV
      -------------------------------------------------------------
         1        2.0000           -0.8691676             -23.6513
       ...           ...                  ...                  ...
        86        2.0000           -0.5164016             -14.0520
        87        2.0000           -0.5142673             -13.9939
        88        2.0000           -0.5124007             -13.9431
        89        2.0000           -0.5113831             -13.9154
        90        2.0000           -0.5045044             -13.7283
        91        2.0000           -0.5017055             -13.6521
        92        2.0000           -0.4951492             -13.4737
        93        2.0000           -0.4913576             -13.3705
        94        2.0000           -0.4898225             -13.3287
        95        2.0000           -0.4879217             -13.2770
        96        2.0000           -0.4701076             -12.7923
        97        2.0000           -0.4461649             -12.1408
        98        2.0000           -0.4410503             -12.0016 (HOMO)
        99                         -0.3771434             -10.2626 (LUMO)
       100                         -0.3478176              -9.4646
       101                         -0.3452155              -9.3938
       102                         -0.3424688              -9.3191
       103                         -0.3321617              -9.0386
       104                         -0.2246892              -6.1141
       105                         -0.2200685              -5.9884
       106                         -0.2181057              -5.9350
       107                         -0.1777590              -4.8371
       108                         -0.1315070              -3.5785
       109                         -0.1224338              -3.3316
       ...                                ...                  ...
       189                          0.6232253              16.9588
      -------------------------------------------------------------
                  HL-Gap            0.0639069 Eh            1.7390 eV

     #   Z          covCN         q      C6AA      α(0)
     1   8 O        0.859    -0.441    22.511     6.361
     2   6 C        2.632     0.406    20.158     7.344
     3   8 O        1.704    -0.301    19.014     5.887
     4   6 C        3.773     0.150    18.192     6.077
     5   6 C        3.754    -0.120    22.866     6.819
     6   6 C        3.755    -0.121    22.868     6.819
     7   6 C        3.759    -0.121    22.862     6.816
     8   7 N        2.684    -0.223    25.860     7.553
     9   6 C        3.740     0.005    20.567     6.471
    10   6 C        3.801    -0.068    21.806     6.649
    11   6 C        3.800    -0.057    21.606     6.618
    12   6 C        3.800    -0.058    21.617     6.620
    13   6 C        3.800    -0.060    21.652     6.625
    14   6 C        3.800    -0.061    21.677     6.629
    15   6 C        3.800    -0.061    21.675     6.629
    16   6 C        3.800    -0.061    21.673     6.628
    17   6 C        3.801    -0.067    21.790     6.646
    18   6 C        3.801    -0.071    21.861     6.657
    19   6 C        3.739    -0.012    20.866     6.518
    20   7 N        2.817    -0.029    21.802     6.935
    21   6 C        3.092     0.037    27.061     8.526
    22   6 C        2.910    -0.037    28.926     8.819
    23   6 C        2.926    -0.024    28.596     8.770
    24   6 C        2.926    -0.023    28.585     8.768
    25   6 C        2.910    -0.037    28.921     8.818
    26   6 C        3.084     0.038    27.064     8.528
    27   7 N        2.822    -0.031    21.847     6.942
    28   6 C        2.996     0.197    23.801     8.003
    29   7 N        2.638    -0.251    26.541     7.651
    30   6 C        3.745    -0.018    20.961     6.531
    31   6 C        2.970    -0.007    28.202     8.711
    32   6 C        2.922    -0.046    29.132     8.851
    33   6 C        2.918    -0.025    28.630     8.774
    34   6 C        2.920    -0.023    28.568     8.765
    35   6 C        2.919    -0.023    28.583     8.767
    36   6 C        2.922    -0.038    28.933     8.821
    37   1 H        0.925     0.030     2.587     2.515
    38   1 H        0.925     0.054     2.276     2.359
    39   1 H        0.925     0.053     2.277     2.360
    40   1 H        0.925     0.058     2.222     2.331
    41   1 H        0.925     0.047     2.358     2.401
    42   1 H        0.925     0.039     2.458     2.452
    43   1 H        0.925     0.065     2.136     2.286
    44   1 H        0.925     0.061     2.192     2.315
    45   1 H        0.925     0.048     2.348     2.396
    46   1 H        0.861     0.174     1.250     1.751
    47   1 H        0.924     0.035     2.513     2.479
    48   1 H        0.924     0.080     1.983     2.202
    49   1 H        0.924     0.044     2.401     2.423
    50   1 H        0.924     0.047     2.361     2.403
    51   1 H        0.924     0.036     2.503     2.474
    52   1 H        0.924     0.026     2.648     2.545
    53   1 H        0.924     0.024     2.671     2.556
    54   1 H        0.924     0.031     2.576     2.510
    55   1 H        0.924     0.024     2.669     2.555
    56   1 H        0.924     0.041     2.430     2.438
    57   1 H        0.924     0.030     2.582     2.513
    58   1 H        0.924     0.043     2.407     2.426
    59   1 H        0.924     0.033     2.544     2.494
    60   1 H        0.924     0.041     2.432     2.439
    61   1 H        0.924     0.013     2.843     2.637
    62   1 H        0.924     0.042     2.429     2.437
    63   1 H        0.924     0.023     2.693     2.566
    64   1 H        0.925     0.060     2.193     2.316
    65   1 H        0.924     0.053     2.285     2.364
    66   1 H        0.925     0.067     2.115     2.274
    67   1 H        0.924     0.078     1.997     2.210
    68   1 H        0.924     0.062     2.177     2.307
    69   1 H        0.926     0.064     2.157     2.297
    70   1 H        0.926     0.072     2.059     2.244
    71   1 H        0.926     0.073     2.057     2.243
    72   1 H        0.926     0.062     2.176     2.307
    73   1 H        0.860     0.221     1.006     1.571
    74   1 H        0.860     0.222     1.001     1.567
    75   1 H        0.924     0.070     2.085     2.258
    76   1 H        0.924     0.089     1.890     2.150
    77   1 H        0.925     0.041     2.441     2.443
    78   1 H        0.926     0.055     2.254     2.348
    79   1 H        0.926     0.058     2.223     2.332
    80   1 H        0.926     0.055     2.260     2.351
    81   1 H        0.926     0.038     2.477     2.461

Wiberg/Mayer (AO) data.
largest (>0.10) Wiberg bond orders for each atom

     #   Z sym  total        # sym  WBO       # sym  WBO       # sym  WBO
 ---------------------------------------------------------------------------
     1   8 O    1.999 --     2 C    1.650     8 N    0.165     3 O    0.121
     2   6 C    3.940 --     1 O    1.650     8 N    1.180     3 O    1.063
     3   8 O    2.244 --     2 C    1.063     4 C    0.916     1 O    0.121
     4   6 C    3.929 --     6 C    0.994     7 C    0.993     5 C    0.988
                             3 O    0.916
     5   6 C    3.995 --     4 C    0.988    39 H    0.985    38 H    0.982
                            37 H    0.976
     6   6 C    3.994 --     4 C    0.994    41 H    0.984    40 H    0.984
                            42 H    0.980
     7   6 C    3.990 --     4 C    0.993    45 H    0.984    44 H    0.984
                            43 H    0.983
     8   7 N    3.377 --     2 C    1.180     9 C    0.996    46 H    0.925
                             1 O    0.165
     9   6 C    3.966 --    10 C    0.998     8 N    0.996    47 H    0.966
                            48 H    0.964
    10   6 C    3.996 --    11 C    1.007     9 C    0.998    50 H    0.976
                            49 H    0.973
    11   6 C    3.997 --    12 C    1.008    10 C    1.007    51 H    0.974
                            52 H    0.974
    12   6 C    3.998 --    13 C    1.008    11 C    1.008    53 H    0.975
                            54 H    0.974
    13   6 C    3.997 --    12 C    1.008    14 C    1.008    55 H    0.975
                            56 H    0.974
    14   6 C    3.996 --    15 C    1.008    13 C    1.008    58 H    0.974
                            57 H    0.974
    15   6 C    3.996 --    14 C    1.008    16 C    1.006    59 H    0.974
                            60 H    0.974
    16   6 C    3.997 --    17 C    1.007    15 C    1.006    62 H    0.973
                            61 H    0.968
    17   6 C    3.994 --    18 C    1.008    16 C    1.007    63 H    0.976
                            64 H    0.969
    18   6 C    3.987 --    17 C    1.008    19 C    0.991    65 H    0.975
                            66 H    0.967
    19   6 C    3.947 --    18 C    0.991    20 N    0.970    67 H    0.964
                            68 H    0.960
    20   7 N    3.599 --    28 C    1.266    21 C    1.088    19 C    0.970
    21   6 C    3.950 --    22 C    1.368    26 C    1.286    20 N    1.088
    22   6 C    3.986 --    23 C    1.464    21 C    1.368    69 H    0.964
                            25 C    0.114
    23   6 C    3.982 --    22 C    1.464    24 C    1.408    70 H    0.967
    24   6 C    3.982 --    25 C    1.464    23 C    1.408    71 H    0.967
    25   6 C    3.986 --    24 C    1.464    26 C    1.367    72 H    0.963
                            22 C    0.114
    26   6 C    3.950 --    25 C    1.367    21 C    1.286    27 N    1.089
    27   7 N    3.594 --    28 C    1.261    26 C    1.089    30 C    0.963
    28   6 C    3.972 --    29 N    1.276    20 N    1.266    27 N    1.261
    29   7 N    3.358 --    28 C    1.276    73 H    0.918    74 H    0.906
    30   6 C    3.947 --    31 C    0.993    27 N    0.963    75 H    0.960
                            76 H    0.955
    31   6 C    3.983 --    36 C    1.408    32 C    1.406    30 C    0.993
                            34 C    0.109
    32   6 C    3.990 --    33 C    1.436    31 C    1.406    77 H    0.967
                            35 C    0.109
    33   6 C    3.990 --    34 C    1.443    32 C    1.436    78 H    0.969
                            36 C    0.112
    34   6 C    3.989 --    33 C    1.443    35 C    1.434    79 H    0.969
                            31 C    0.109
    35   6 C    3.990 --    36 C    1.449    34 C    1.434    80 H    0.969
                            32 C    0.109
    36   6 C    3.992 --    35 C    1.449    31 C    1.408    81 H    0.969
                            33 C    0.112
    37   1 H    0.999 --     5 C    0.976
    38   1 H    0.997 --     5 C    0.982
    39   1 H    0.997 --     5 C    0.985
    40   1 H    0.997 --     6 C    0.984
    41   1 H    0.998 --     6 C    0.984
    42   1 H    0.998 --     6 C    0.980
    43   1 H    0.996 --     7 C    0.983
    44   1 H    0.996 --     7 C    0.984
    45   1 H    0.997 --     7 C    0.984
    46   1 H    0.970 --     8 N    0.925
    47   1 H    0.999 --     9 C    0.966
    48   1 H    0.994 --     9 C    0.964
    49   1 H    0.998 --    10 C    0.973
    50   1 H    0.998 --    10 C    0.976
    51   1 H    0.999 --    11 C    0.974
    52   1 H    0.999 --    11 C    0.974
    53   1 H    0.999 --    12 C    0.975
    54   1 H    0.999 --    12 C    0.974
    55   1 H    0.999 --    13 C    0.975
    56   1 H    0.998 --    13 C    0.974
    57   1 H    0.999 --    14 C    0.974
    58   1 H    0.998 --    14 C    0.974
    59   1 H    0.999 --    15 C    0.974
    60   1 H    0.998 --    15 C    0.974
    61   1 H    1.000 --    16 C    0.968
    62   1 H    0.998 --    16 C    0.973
    63   1 H    0.999 --    17 C    0.976
    64   1 H    0.996 --    17 C    0.969
    65   1 H    0.997 --    18 C    0.975
    66   1 H    0.995 --    18 C    0.967
    67   1 H    0.993 --    19 C    0.964
    68   1 H    0.996 --    19 C    0.960
    69   1 H    0.995 --    22 C    0.964
    70   1 H    0.994 --    23 C    0.967
    71   1 H    0.994 --    24 C    0.967
    72   1 H    0.996 --    25 C    0.963
    73   1 H    0.951 --    29 N    0.918
    74   1 H    0.950 --    29 N    0.906
    75   1 H    0.994 --    30 C    0.960
    76   1 H    0.992 --    30 C    0.955
    77   1 H    0.998 --    32 C    0.967
    78   1 H    0.997 --    33 C    0.969
    79   1 H    0.996 --    34 C    0.969
    80   1 H    0.997 --    35 C    0.969
    81   1 H    0.999 --    36 C    0.969
 ---------------------------------------------------------------------------

molecular dipole:
                 x           y           z       tot (Debye)
 q only:       16.319       7.680     -19.271
   full:       16.762       7.522     -19.432      67.972

           -------------------------------------------------
          | TOTAL ENERGY             -106.734617997657 Eh   |
          | GRADIENT NORM               0.000301430937 Eh/α |
          | HOMO-LUMO GAP               1.738996494941 eV   |
           -------------------------------------------------

 * finished run on 2024/12/20 at 06:41:23.010
