   * xtb version 6.7.1 (edcfbbe) compiled by 'conda@3ef47c1a292c' on 2024-11-25

   ID    Z sym.   atoms
    1    6 C      1-10, 12-25
    2    7 N      11
    3    1 H      26-77

          program call               : xtb C0341.xyz --opt --namespace C0341 --charge +1
          :  Hamiltonian                  GFN2-xTB          :
 * total energy  :   -80.4545086 Eh     change       -0.1519993E-09 Eh
 * total energy  :   -80.4627743 Eh     change       -0.8265691E-02 Eh
 * total energy  :   -80.4648598 Eh     change       -0.2085544E-02 Eh
 * total energy  :   -80.4650492 Eh     change       -0.1893259E-03 Eh
 * total energy  :   -80.4652974 Eh     change       -0.2482779E-03 Eh
 * total energy  :   -80.4655011 Eh     change       -0.2036432E-03 Eh
 * total energy  :   -80.4657925 Eh     change       -0.2914568E-03 Eh
 * total energy  :   -80.4661126 Eh     change       -0.3200997E-03 Eh
 * total energy  :   -80.4664025 Eh     change       -0.2898701E-03 Eh
 * total energy  :   -80.4666829 Eh     change       -0.2803801E-03 Eh
 * total energy  :   -80.4735833 Eh     change       -0.2352596E-04 Eh
 * total energy  :   -80.4736100 Eh     change       -0.2676144E-04 Eh
 * total energy  :   -80.4736262 Eh     change       -0.1619218E-04 Eh
 * total energy  :   -80.4736437 Eh     change       -0.1744596E-04 Eh
 * total energy  :   -80.4736510 Eh     change       -0.7367587E-05 Eh
 * total energy  :   -80.4736603 Eh     change       -0.9217572E-05 Eh
 * total energy  :   -80.4736696 Eh     change       -0.9323761E-05 Eh
 * total energy  :   -80.4736753 Eh     change       -0.5756804E-05 Eh
 * total energy  :   -80.4736796 Eh     change       -0.4281552E-05 Eh
   *** GEOMETRY OPTIMIZATION CONVERGED AFTER 76 ITERATIONS ***

 final structure:
================
77
 xtb: 6.7.1 (edcfbbe)
C           -0.29839284420445       -0.20671279745226        1.25776281755907
C           -0.38007551393316        0.26651755427417       -0.18839657303769
C            0.47428661137226       -0.56761167235973       -1.14399635385742
C            0.06453919589168       -2.03741510293707       -1.25967721468682
C           -1.36419387025888       -2.27457184643537       -1.75403500587287
C           -1.68847072284935       -1.65156489457678       -3.11359321938179
C           -0.76707544191922       -2.08163976388326       -4.25669053105365
C           -0.74896657992562       -3.58482354754999       -4.54478674002992
C           -2.08451262287816       -4.16199683996134       -5.03180854864220
C           -2.55935922533481       -3.62181028840870       -6.38842091140953
N           -2.33227013090410       -4.49395402776297       -7.57732687015660
C           -2.98830407933753       -5.84157926924095       -7.41941908060854
C           -4.37858898815332       -5.92666005484649       -6.77983762620405
C           -5.59451813874725       -5.49402623774555       -7.60644464993952
C           -5.75744698411227       -6.20984753650545       -8.95080419195906
C           -5.86882154012824       -7.73377924818115       -8.85989910485976
C           -7.04989887774833       -8.24739340130922       -8.03431364342703
C           -8.42545413071155       -7.78864303582419       -8.52291618634620
C           -8.74890306896081       -8.14472793315313       -9.97580823974894
C           -8.69608712153087       -9.63815505122299      -10.30229747451662
C           -9.70818742665938      -10.46192894416754       -9.51563439501771
C           -2.89873263063781       -3.84704917505890       -8.81287713111650
C           -2.89181615285461       -2.32578748063582       -8.89550137672895
C           -0.87436278408768       -4.78116022105818       -7.76764307905863
C            0.00976536091762       -3.61261619676527       -8.17258504534665
H           -0.73492894163266       -1.19531134068980        1.37521236309882
H           -0.83707599820652        0.47826090142846        1.90787837806205
H            0.73763730201972       -0.24567931395326        1.58653303260701
H           -1.42145999376769        0.26145780570017       -0.51561460514647
H           -0.03018748030039        1.30016825470279       -0.23972632530593
H            0.45022453496238       -0.10251167648990       -2.13217086803903
H            1.51042316248807       -0.53510518346366       -0.79877964545381
H            0.76991765324108       -2.53831126489130       -1.92721341475247
H            0.16536493731423       -2.51157830029361       -0.28239250508540
H           -1.54058531719087       -3.35255305442097       -1.79169650889870
H           -2.06551185907269       -1.86734292337425       -1.02452550255064
H           -2.72556809366627       -1.88804034434938       -3.36539580481092
H           -1.62597830651407       -0.56610653811885       -3.02788344074567
H           -1.05660245399794       -1.52614593104911       -5.15362228492112
H            0.25240389213613       -1.77847539777299       -4.01758976658317
H            0.04317433288321       -3.78650825210754       -5.26780889957152
H           -0.47968396568054       -4.10839109404928       -3.62761386718955
H           -2.01386391287870       -5.24917606920122       -5.04134657334081
H           -2.84211900040584       -3.90936942917325       -4.28949126415630
H           -3.62991748334200       -3.42056828765445       -6.35485842402371
H           -2.05175757493021       -2.67786082863568       -6.57578168021169
H           -3.02151061088394       -6.29726276930851       -8.41041885772994
H           -2.32132061508523       -6.44947114714551       -6.80588793100276
H           -4.50970452662337       -6.98489833137978       -6.54531866008389
H           -4.39385553043387       -5.40050937187412       -5.82608886269165
H           -6.47527352721436       -5.70701053171262       -6.99958372486860
H           -5.59514167697693       -4.41281288875668       -7.76829516985709
H           -6.65812705034229       -5.82011882313226       -9.42581997516454
H           -4.92447083229310       -5.97136954861856       -9.61900856504113
H           -5.95545945114465       -8.12065566962733       -9.87595352904141
H           -4.94760287332549       -8.14857222917303       -8.44194776923691
H           -7.01475569809461       -9.33758560484571       -8.04516873494613
H           -6.93394790381813       -7.93869182053190       -6.99236742927631
H           -9.17852311459137       -8.23543848034939       -7.87241889348461
H           -8.51222895065897       -6.70541361656661       -8.40822909938515
H           -9.75496185044567       -7.77847167681791      -10.19328166843761
H           -8.06411797346206       -7.61612817716689      -10.64321887103043
H           -8.90073755679138       -9.75602268555557      -11.36897543478238
H           -7.69168140128566      -10.02617159500640      -10.12172930974079
H          -10.71188335937626      -10.06839136674427       -9.65909012927340
H           -9.69511223120193      -11.49493869571632       -9.85451939601815
H           -9.48325614219117      -10.45379016792633       -8.45209370380842
H           -2.35066906889682       -4.25891863126515       -9.66242263144390
H           -3.93447303647402       -4.16653039817705       -8.89747882631615
H           -1.90809189012871       -1.88600420917127       -8.77704420832623
H           -3.25004796821644       -2.06007176942141       -9.88778334139032
H           -3.57049109504201       -1.87397042822929       -8.17789608495883
H           -0.50375511948544       -5.19775137512322       -6.83062807439694
H           -0.79598806185389       -5.55626950140944       -8.53395186893392
H           -0.04203929393149       -2.78618827763598       -7.47018368958919
H            1.03765601494322       -3.96860641900941       -8.17849142909468
H           -0.21223533197783       -3.25429851216265       -9.17289614662174

          :  Hamiltonian                  GFN2-xTB          :
         :: total energy             -80.473679622186 Eh    ::
         :: gradient norm              0.000262887044 Eh/a0 ::
         :: HOMO-LUMO gap              6.755636760844 eV    ::
         :: SCC energy               -81.649154265996 Eh    ::
         :: -> dispersion             -0.067068026935 Eh    ::
         :: repulsion energy           1.175474643810 Eh    ::

    * Orbital Energies and Occupations

         #    Occupation            Energy/Eh            Energy/eV
      -------------------------------------------------------------
         1        2.0000           -0.8425607             -22.9272
       ...           ...                  ...                  ...
        64        2.0000           -0.5247097             -14.2781
        65        2.0000           -0.5161735             -14.0458
        66        2.0000           -0.5131542             -13.9636
        67        2.0000           -0.5098170             -13.8728
        68        2.0000           -0.5069946             -13.7960
        69        2.0000           -0.5064128             -13.7802
        70        2.0000           -0.5033654             -13.6973
        71        2.0000           -0.4883887             -13.2897
        72        2.0000           -0.4863845             -13.2352
        73        2.0000           -0.4849045             -13.1949
        74        2.0000           -0.4826361             -13.1332
        75        2.0000           -0.4816088             -13.1052
        76        2.0000           -0.4793108             -13.0427 (HOMO)
        77                         -0.2310457              -6.2871 (LUMO)
        78                         -0.1691376              -4.6025
        79                         -0.1525884              -4.1521
        80                         -0.1468236              -3.9953
        81                         -0.0730286              -1.9872
        82                         -0.0604310              -1.6444
        83                         -0.0524742              -1.4279
        84                         -0.0434947              -1.1836
        85                         -0.0329387              -0.8963
        86                         -0.0313169              -0.8522
        87                         -0.0274828              -0.7478
       ...                                ...                  ...
       152                          0.2453378               6.6760
      -------------------------------------------------------------
                  HL-Gap            0.2482651 Eh            6.7556 eV

     #   Z          covCN         q      C6AA      α(0)
     1   6 C        3.751    -0.104    22.542     6.771
     2   6 C        3.799    -0.053    21.529     6.606
     3   6 C        3.801    -0.059    21.629     6.621
     4   6 C        3.800    -0.059    21.639     6.623
     5   6 C        3.800    -0.059    21.641     6.624
     6   6 C        3.800    -0.061    21.668     6.628
     7   6 C        3.800    -0.061    21.680     6.630
     8   6 C        3.800    -0.069    21.818     6.651
     9   6 C        3.799    -0.071    21.869     6.658
    10   6 C        3.748    -0.036    21.280     6.580
    11   7 N        3.615     0.100    19.516     6.561
    12   6 C        3.761    -0.035    21.244     6.571
    13   6 C        3.799    -0.074    21.924     6.667
    14   6 C        3.799    -0.066    21.776     6.644
    15   6 C        3.799    -0.063    21.706     6.633
    16   6 C        3.800    -0.061    21.675     6.629
    17   6 C        3.800    -0.060    21.648     6.625
    18   6 C        3.800    -0.059    21.641     6.624
    19   6 C        3.800    -0.059    21.630     6.622
    20   6 C        3.799    -0.053    21.528     6.606
    21   6 C        3.751    -0.104    22.545     6.771
    22   6 C        3.752    -0.034    21.244     6.573
    23   6 C        3.750    -0.128    23.017     6.842
    24   6 C        3.760    -0.028    21.112     6.550
    25   6 C        3.751    -0.124    22.940     6.831
    26   1 H        0.925     0.034     2.532     2.488
    27   1 H        0.925     0.036     2.502     2.473
    28   1 H        0.925     0.037     2.491     2.468
    29   1 H        0.924     0.029     2.600     2.522
    30   1 H        0.924     0.031     2.572     2.508
    31   1 H        0.924     0.025     2.652     2.547
    32   1 H        0.924     0.034     2.530     2.487
    33   1 H        0.924     0.025     2.663     2.552
    34   1 H        0.924     0.039     2.456     2.451
    35   1 H        0.924     0.024     2.678     2.559
    36   1 H        0.924     0.041     2.431     2.438
    37   1 H        0.924     0.022     2.700     2.570
    38   1 H        0.924     0.044     2.391     2.418
    39   1 H        0.924     0.017     2.772     2.604
    40   1 H        0.925     0.050     2.315     2.380
    41   1 H        0.924     0.032     2.554     2.499
    42   1 H        0.925     0.058     2.224     2.332
    43   1 H        0.925     0.046     2.366     2.405
    44   1 H        0.924     0.068     2.107     2.270
    45   1 H        0.925     0.079     1.995     2.209
    46   1 H        0.925     0.094     1.839     2.121
    47   1 H        0.924     0.081     1.973     2.196
    48   1 H        0.924     0.073     2.054     2.241
    49   1 H        0.924     0.075     2.030     2.228
    50   1 H        0.925     0.056     2.246     2.344
    51   1 H        0.924     0.061     2.183     2.310
    52   1 H        0.924     0.027     2.632     2.537
    53   1 H        0.924     0.052     2.300     2.372
    54   1 H        0.924     0.016     2.795     2.615
    55   1 H        0.924     0.045     2.379     2.412
    56   1 H        0.924     0.021     2.721     2.580
    57   1 H        0.924     0.042     2.420     2.433
    58   1 H        0.924     0.024     2.669     2.555
    59   1 H        0.924     0.040     2.445     2.445
    60   1 H        0.924     0.025     2.656     2.549
    61   1 H        0.924     0.035     2.516     2.481
    62   1 H        0.924     0.025     2.661     2.551
    63   1 H        0.924     0.031     2.567     2.506
    64   1 H        0.924     0.028     2.611     2.527
    65   1 H        0.925     0.037     2.483     2.464
    66   1 H        0.925     0.036     2.500     2.472
    67   1 H        0.925     0.034     2.530     2.487
    68   1 H        0.924     0.076     2.019     2.222
    69   1 H        0.925     0.096     1.823     2.111
    70   1 H        0.925     0.067     2.123     2.279
    71   1 H        0.925     0.079     1.991     2.207
    72   1 H        0.925     0.062     2.172     2.305
    73   1 H        0.924     0.084     1.934     2.175
    74   1 H        0.924     0.073     2.053     2.241
    75   1 H        0.925     0.066     2.132     2.283
    76   1 H        0.925     0.078     2.003     2.213
    77   1 H        0.925     0.066     2.131     2.283

Wiberg/Mayer (AO) data.
largest (>0.10) Wiberg bond orders for each atom

     #   Z sym  total        # sym  WBO       # sym  WBO       # sym  WBO
 ---------------------------------------------------------------------------
     1   6 C    3.997 --     2 C    1.020    28 H    0.987    27 H    0.987
                            26 H    0.986
     2   6 C    3.998 --     1 C    1.020     3 C    1.008    30 H    0.978
                            29 H    0.976
     3   6 C    3.997 --     2 C    1.008     4 C    1.008    32 H    0.977
                            31 H    0.975
     4   6 C    3.997 --     3 C    1.008     5 C    1.008    33 H    0.975
                            34 H    0.974
     5   6 C    3.997 --     4 C    1.008     6 C    1.007    35 H    0.975
                            36 H    0.974
     6   6 C    3.996 --     5 C    1.007     7 C    1.007    37 H    0.975
                            38 H    0.973
     7   6 C    3.995 --     8 C    1.008     6 C    1.007    40 H    0.972
                            39 H    0.971
     8   6 C    3.993 --     7 C    1.008     9 C    1.005    41 H    0.972
                            42 H    0.970
     9   6 C    3.987 --     8 C    1.005    10 C    1.002    43 H    0.968
                            44 H    0.967
    10   6 C    3.930 --     9 C    1.002    45 H    0.967    46 H    0.953
                            11 N    0.933
    11   7 N    3.796 --    24 C    0.934    10 C    0.933    22 C    0.926
                            12 C    0.925
    12   6 C    3.934 --    13 C    1.005    48 H    0.966    47 H    0.964
                            11 N    0.925
    13   6 C    3.983 --    14 C    1.006    12 C    1.005    50 H    0.969
                            49 H    0.961
    14   6 C    3.993 --    15 C    1.007    13 C    1.006    52 H    0.970
                            51 H    0.969
    15   6 C    3.995 --    16 C    1.007    14 C    1.007    53 H    0.972
                            54 H    0.971
    16   6 C    3.996 --    17 C    1.007    15 C    1.007    56 H    0.975
                            55 H    0.973
    17   6 C    3.996 --    18 C    1.008    16 C    1.007    58 H    0.975
                            57 H    0.974
    18   6 C    3.997 --    17 C    1.008    19 C    1.008    60 H    0.975
                            59 H    0.975
    19   6 C    3.997 --    20 C    1.008    18 C    1.008    61 H    0.977
                            62 H    0.976
    20   6 C    3.998 --    21 C    1.020    19 C    1.008    63 H    0.978
                            64 H    0.976
    21   6 C    3.997 --    20 C    1.020    65 H    0.987    66 H    0.987
                            67 H    0.986
    22   6 C    3.934 --    23 C    1.022    68 H    0.969    69 H    0.956
                            11 N    0.926
    23   6 C    3.983 --    22 C    1.022    72 H    0.983    70 H    0.978
                            71 H    0.973
    24   6 C    3.940 --    25 C    1.022    74 H    0.969    73 H    0.962
                            11 N    0.934
    25   6 C    3.983 --    24 C    1.022    77 H    0.980    75 H    0.977
                            76 H    0.974
    26   1 H    0.999 --     1 C    0.986
    27   1 H    0.999 --     1 C    0.987
    28   1 H    0.999 --     1 C    0.987
    29   1 H    0.999 --     2 C    0.976
    30   1 H    0.999 --     2 C    0.978
    31   1 H    0.999 --     3 C    0.975
    32   1 H    0.999 --     3 C    0.977
    33   1 H    0.999 --     4 C    0.975
    34   1 H    0.998 --     4 C    0.974
    35   1 H    0.999 --     5 C    0.975
    36   1 H    0.998 --     5 C    0.974
    37   1 H    0.999 --     6 C    0.975
    38   1 H    0.998 --     6 C    0.973
    39   1 H    1.000 --     7 C    0.971
    40   1 H    0.997 --     7 C    0.972
    41   1 H    0.999 --     8 C    0.972
    42   1 H    0.996 --     8 C    0.970
    43   1 H    0.998 --     9 C    0.968
    44   1 H    0.995 --     9 C    0.967
    45   1 H    0.994 --    10 C    0.967
    46   1 H    0.991 --    10 C    0.953
    47   1 H    0.993 --    12 C    0.964
    48   1 H    0.994 --    12 C    0.966
    49   1 H    0.994 --    13 C    0.961
    50   1 H    0.997 --    13 C    0.969
    51   1 H    0.996 --    14 C    0.969
    52   1 H    0.999 --    14 C    0.970
    53   1 H    0.997 --    15 C    0.972
    54   1 H    1.000 --    15 C    0.971
    55   1 H    0.998 --    16 C    0.973
    56   1 H    1.000 --    16 C    0.975
    57   1 H    0.998 --    17 C    0.974
    58   1 H    0.999 --    17 C    0.975
    59   1 H    0.998 --    18 C    0.975
    60   1 H    0.999 --    18 C    0.975
    61   1 H    0.999 --    19 C    0.977
    62   1 H    0.999 --    19 C    0.976
    63   1 H    0.999 --    20 C    0.978
    64   1 H    0.999 --    20 C    0.976
    65   1 H    0.999 --    21 C    0.987
    66   1 H    0.999 --    21 C    0.987
    67   1 H    0.999 --    21 C    0.986
    68   1 H    0.994 --    22 C    0.969
    69   1 H    0.991 --    22 C    0.956
    70   1 H    0.995 --    23 C    0.978
    71   1 H    0.993 --    23 C    0.973
    72   1 H    0.996 --    23 C    0.983
    73   1 H    0.993 --    24 C    0.962
    74   1 H    0.995 --    24 C    0.969
    75   1 H    0.996 --    25 C    0.977
    76   1 H    0.994 --    25 C    0.974
    77   1 H    0.996 --    25 C    0.980
 ---------------------------------------------------------------------------

molecular dipole:
                 x           y           z       tot (Debye)
 q only:       -4.742      -8.339     -13.858
   full:       -4.697      -8.431     -13.938      43.090

           -------------------------------------------------
          | TOTAL ENERGY              -80.473679622186 Eh   |
          | GRADIENT NORM               0.000262887044 Eh/α |
          | HOMO-LUMO GAP               6.755636760844 eV   |
           -------------------------------------------------

 * finished run on 2024/12/20 at 06:41:11.248
