   * xtb version 6.7.1 (edcfbbe) compiled by 'conda@3ef47c1a292c' on 2024-11-25

   ID    Z sym.   atoms
    1    6 C      1-5, 7, 8, 10-15
    2    7 N      6, 9
    3    1 H      16-32

          program call               : xtb C0345.xyz --opt --namespace C0345 --charge +1
          :  Hamiltonian                  GFN2-xTB          :
 * total energy  :   -41.7840842 Eh     change       -0.8472583E-09 Eh
 * total energy  :   -41.8352569 Eh     change       -0.5117272E-01 Eh
 * total energy  :   -41.8426497 Eh     change       -0.7392808E-02 Eh
 * total energy  :   -41.8443690 Eh     change       -0.1719288E-02 Eh
 * total energy  :   -41.8451607 Eh     change       -0.7916686E-03 Eh
 * total energy  :   -41.8462845 Eh     change       -0.1123826E-02 Eh
 * total energy  :   -41.8469717 Eh     change       -0.6872447E-03 Eh
 * total energy  :   -41.8473556 Eh     change       -0.3838275E-03 Eh
 * total energy  :   -41.8478815 Eh     change       -0.5259141E-03 Eh
 * total energy  :   -41.8482885 Eh     change       -0.4069876E-03 Eh
 * total energy  :   -41.8539767 Eh     change       -0.3164153E-04 Eh
 * total energy  :   -41.8539879 Eh     change       -0.1121374E-04 Eh
 * total energy  :   -41.8540067 Eh     change       -0.1882428E-04 Eh
 * total energy  :   -41.8539784 Eh     change        0.2826226E-04 Eh
 * total energy  :   -41.8540102 Eh     change       -0.3178226E-04 Eh
 * total energy  :   -41.8540121 Eh     change       -0.1845114E-05 Eh
 * total energy  :   -41.8540181 Eh     change       -0.6009813E-05 Eh
 * total energy  :   -41.8540180 Eh     change        0.2489951E-07 Eh
 * total energy  :   -41.8540202 Eh     change       -0.2167708E-05 Eh
   *** GEOMETRY OPTIMIZATION CONVERGED AFTER 73 ITERATIONS ***

 final structure:
================
32
 xtb: 6.7.1 (edcfbbe)
C           -0.76465650696862        1.18003276931380        0.17475283815492
C           -1.38019803583784        0.15397879527275        0.18610298534221
C           -2.10756501693897       -1.09951332770814        0.25847507001682
C           -1.23844407393065       -2.23279844566599        0.81844162766077
C           -0.56978820652324       -1.86443969125443        2.14810013797344
N           -1.54469534238679       -1.57903675210034        3.17532434410450
C           -2.11047321554548       -0.36334989760487        3.41406341772847
C           -3.01147114316291       -0.52839200554790        4.42260241073167
N           -2.97835270825674       -1.84041262862827        4.78479956340438
C           -2.08885509081986       -2.45814143285789        4.01197627173443
C           -3.81110309451156       -2.47336067038851        5.78099145091683
C           -5.13314702173709       -2.96470564228012        5.17931203975980
C           -4.92690423866085       -3.97373937687049        4.04248476389563
C           -4.03830340508105       -5.05497028239457        4.42518237461515
C           -3.27885288063095       -5.92126397434750        4.74961878357146
H           -0.23444155341226        2.08321093583342        0.11067631036685
H           -3.00352674264615       -0.95803158209637        0.87194572227536
H           -2.43719647016834       -1.36921990579064       -0.74732272509712
H           -1.84625244395785       -3.13125897961822        0.94212284997629
H           -0.44195339384407       -2.45827310928935        0.10910454473919
H            0.06266624095244       -2.68709808476964        2.48618310186595
H            0.04309118902674       -0.97194207011716        2.00392382193599
H           -1.83586841881825        0.51152969955947        2.85871861425121
H           -3.65138074089693        0.18589809479021        4.89896570220431
H           -1.85642999315630       -3.50536869321332        4.06672497708129
H           -3.26575777015590       -3.32459326966987        6.19434769801387
H           -4.00933799494006       -1.75233747311304        6.57580846726168
H           -5.69788822849570       -3.43634168463906        5.98350615624221
H           -5.71359350450893       -2.11856246996861        4.80776813626350
H           -5.89416060889639       -4.40060918269433        3.76838519094249
H           -4.52574481967968       -3.47540024265910        3.15339989864597
H           -2.64937476541979       -6.71193941948981        5.03244345341052

          :  Hamiltonian                  GFN2-xTB          :
         :: total energy             -41.854020217264 Eh    ::
         :: gradient norm              0.000743716244 Eh/a0 ::
         :: HOMO-LUMO gap              3.114893294870 eV    ::
         :: SCC energy               -42.643048590284 Eh    ::
         :: -> dispersion             -0.027889242768 Eh    ::
         :: repulsion energy           0.789028373020 Eh    ::

    * Orbital Energies and Occupations

         #    Occupation            Energy/Eh            Energy/eV
      -------------------------------------------------------------
         1        2.0000           -0.8915149             -24.2594
       ...           ...                  ...                  ...
        27        2.0000           -0.6069329             -16.5155
        28        2.0000           -0.6015910             -16.3701
        29        2.0000           -0.5975757             -16.2609
        30        2.0000           -0.5946170             -16.1804
        31        2.0000           -0.5881545             -16.0045
        32        2.0000           -0.5847875             -15.9129
        33        2.0000           -0.5779783             -15.7276
        34        2.0000           -0.5736690             -15.6103
        35        2.0000           -0.5698648             -15.5068
        36        2.0000           -0.5271739             -14.3451
        37        2.0000           -0.5236860             -14.2502
        38        2.0000           -0.5203576             -14.1597
        39        2.0000           -0.5166453             -14.0586 (HOMO)
        40                         -0.4021751             -10.9437 (LUMO)
        41                         -0.3659196              -9.9572
        42                         -0.2693982              -7.3307
        43                         -0.2643401              -7.1931
        44                         -0.2623303              -7.1384
        45                         -0.2567459              -6.9864
        46                         -0.1799323              -4.8962
        47                         -0.1263953              -3.4394
        48                         -0.0617716              -1.6809
        49                         -0.0577058              -1.5703
        50                         -0.0565558              -1.5390
       ...                                ...                  ...
        77                          1.3252909              36.0630
      -------------------------------------------------------------
                  HL-Gap            0.1144702 Eh            3.1149 eV

     #   Z          covCN         q      C6AA      α(0)
     1   6 C        1.909    -0.105    34.025     9.420
     2   6 C        1.966    -0.033    31.937     9.126
     3   6 C        3.803    -0.047    21.413     6.588
     4   6 C        3.805    -0.064    21.723     6.635
     5   6 C        3.742    -0.028    21.155     6.562
     6   7 N        2.870     0.069    20.045     6.650
     7   6 C        3.070    -0.007    28.122     8.695
     8   6 C        3.071    -0.008    28.150     8.699
     9   7 N        2.869     0.068    20.053     6.651
    10   6 C        3.096     0.046    26.864     8.494
    11   6 C        3.742    -0.027    21.138     6.559
    12   6 C        3.805    -0.065    21.742     6.638
    13   6 C        3.803    -0.047    21.419     6.589
    14   6 C        1.966    -0.034    31.987     9.133
    15   6 C        1.909    -0.108    34.099     9.431
    16   1 H        0.928     0.094     1.844     2.124
    17   1 H        0.924     0.047     2.363     2.404
    18   1 H        0.924     0.079     1.988     2.205
    19   1 H        0.924     0.051     2.302     2.372
    20   1 H        0.925     0.077     2.007     2.215
    21   1 H        0.924     0.082     1.961     2.190
    22   1 H        0.924     0.098     1.807     2.102
    23   1 H        0.926     0.112     1.678     2.025
    24   1 H        0.926     0.104     1.745     2.066
    25   1 H        0.926     0.116     1.649     2.008
    26   1 H        0.924     0.090     1.876     2.142
    27   1 H        0.924     0.088     1.897     2.154
    28   1 H        0.925     0.078     2.000     2.211
    29   1 H        0.924     0.057     2.232     2.336
    30   1 H        0.924     0.082     1.961     2.190
    31   1 H        0.924     0.044     2.402     2.424
    32   1 H        0.928     0.093     1.846     2.125

Wiberg/Mayer (AO) data.
largest (>0.10) Wiberg bond orders for each atom

     #   Z sym  total        # sym  WBO       # sym  WBO       # sym  WBO
 ---------------------------------------------------------------------------
     1   6 C    3.972 --     2 C    2.897    16 H    0.968
     2   6 C    3.979 --     1 C    2.897     3 C    1.050
     3   6 C    3.995 --     2 C    1.050     4 C    0.990    17 H    0.957
                            18 H    0.950
     4   6 C    3.986 --     3 C    0.990     5 C    0.984    19 H    0.975
                            20 H    0.968
     5   6 C    3.938 --     4 C    0.984     6 N    0.969    21 H    0.966
                            22 H    0.959
     6   7 N    3.718 --    10 C    1.362     7 C    1.228     5 C    0.969
     7   6 C    3.948 --     8 C    1.589     6 N    1.228    23 H    0.957
     8   6 C    3.950 --     7 C    1.589     9 N    1.228    24 H    0.962
     9   7 N    3.717 --    10 C    1.361     8 C    1.228    11 C    0.970
    10   6 C    3.947 --     6 N    1.362     9 N    1.361    25 H    0.950
    11   6 C    3.938 --    12 C    0.984     9 N    0.970    27 H    0.964
                            26 H    0.962
    12   6 C    3.986 --    13 C    0.990    11 C    0.984    29 H    0.975
                            28 H    0.968
    13   6 C    3.995 --    14 C    1.051    12 C    0.990    31 H    0.957
                            30 H    0.949
    14   6 C    3.979 --    15 C    2.896    13 C    1.051
    15   6 C    3.972 --    14 C    2.896    32 H    0.968
    16   1 H    0.991 --     1 C    0.968
    17   1 H    0.998 --     3 C    0.957
    18   1 H    0.994 --     3 C    0.950
    19   1 H    0.997 --     4 C    0.975
    20   1 H    0.993 --     4 C    0.968
    21   1 H    0.993 --     5 C    0.966
    22   1 H    0.990 --     5 C    0.959
    23   1 H    0.987 --     7 C    0.957
    24   1 H    0.989 --     8 C    0.962
    25   1 H    0.987 --    10 C    0.950
    26   1 H    0.992 --    11 C    0.962
    27   1 H    0.992 --    11 C    0.964
    28   1 H    0.993 --    12 C    0.968
    29   1 H    0.996 --    12 C    0.975
    30   1 H    0.993 --    13 C    0.949
    31   1 H    0.998 --    13 C    0.957
    32   1 H    0.991 --    15 C    0.968
 ---------------------------------------------------------------------------

molecular dipole:
                 x           y           z       tot (Debye)
 q only:       -4.732      -3.579       7.014
   full:       -4.691      -3.625       7.079      23.469

           -------------------------------------------------
          | TOTAL ENERGY              -41.854020217264 Eh   |
          | GRADIENT NORM               0.000743716244 Eh/α |
          | HOMO-LUMO GAP               3.114893294870 eV   |
           -------------------------------------------------

 * finished run on 2024/12/20 at 06:41:16.430
