   * xtb version 6.7.1 (edcfbbe) compiled by 'conda@3ef47c1a292c' on 2024-11-25

   ID    Z sym.   atoms
    1    6 C      1, 3-7
    2    7 N      2
    3    1 H      8-15

          program call               : xtb C0340.xyz --opt --namespace C0340 --charge +1
          :  Hamiltonian                  GFN2-xTB          :
 * total energy  :   -19.4250975 Eh     change       -0.7870327E-10 Eh
 * total energy  :   -19.4266646 Eh     change       -0.1567051E-02 Eh
 * total energy  :   -19.4268312 Eh     change       -0.1666533E-03 Eh
 * total energy  :   -19.4268421 Eh     change       -0.1083616E-04 Eh
 * total energy  :   -19.4268438 Eh     change       -0.1741773E-05 Eh
   *** GEOMETRY OPTIMIZATION CONVERGED AFTER 5 ITERATIONS ***

 final structure:
================
15
 xtb: 6.7.1 (edcfbbe)
C           -2.37593033740359       -0.00840970509380        0.04807631004582
N           -0.93097760174044        0.01362220610630        0.03161325633567
C           -0.26689583987662       -1.15000159918020        0.02861888679348
C            1.11124306801603       -1.18638318444690        0.01678302592759
C            1.82188078255969        0.00854684153460        0.00792350428237
C            1.11516427852275        1.20344974931437        0.01180706995911
C           -0.26574018983807        1.17252298427003        0.02383290903773
H           -2.75387941836658       -0.57419871557978       -0.80456021450672
H           -2.73404382814788       -0.48748713486974        0.96087865321662
H           -2.77661961240134        1.00176339414502        0.00362579423767
H           -0.85817656530314       -2.05446464011169        0.03594077395689
H            1.62000287793741       -2.13719079300379        0.01436656902242
H            2.90061990138053        0.00685523142636       -0.00160980618616
H            1.62585290655212        2.15322720571179        0.00543814462187
H           -0.84731042189087        2.08295815977743        0.02725512325566

          :  Hamiltonian                  GFN2-xTB          :
         :: total energy             -19.426843793873 Eh    ::
         :: gradient norm              0.000780296027 Eh/a0 ::
         :: HOMO-LUMO gap              4.243711508435 eV    ::
         :: SCC energy               -19.771294168407 Eh    ::
         :: -> dispersion             -0.009182341551 Eh    ::
         :: repulsion energy           0.344450374533 Eh    ::

    * Orbital Energies and Occupations

         #    Occupation            Energy/Eh            Energy/eV
      -------------------------------------------------------------
         1        2.0000           -0.8928227             -24.2949
       ...           ...                  ...                  ...
         6        2.0000           -0.7828474             -21.3024
         7        2.0000           -0.7567567             -20.5924
         8        2.0000           -0.7396168             -20.1260
         9        2.0000           -0.7302602             -19.8714
        10        2.0000           -0.7078954             -19.2628
        11        2.0000           -0.6905646             -18.7912
        12        2.0000           -0.6891905             -18.7538
        13        2.0000           -0.6696935             -18.2233
        14        2.0000           -0.6595368             -17.9469
        15        2.0000           -0.6324562             -17.2100
        16        2.0000           -0.6319162             -17.1953
        17        2.0000           -0.6296600             -17.1339
        18        2.0000           -0.6252714             -17.0145 (HOMO)
        19                         -0.4693179             -12.7708 (LUMO)
        20                         -0.4385883             -11.9346
        21                         -0.3176077              -8.6425
        22                         -0.1791935              -4.8761
        23                         -0.0856934              -2.3318
        24                         -0.0490932              -1.3359
        25                         -0.0370699              -1.0087
        26                         -0.0217895              -0.5929
        27                         -0.0165937              -0.4515
        28                         -0.0042049              -0.1144
        29                          0.0309567               0.8424
       ...                                ...                  ...
        36                          0.4376912              11.9102
      -------------------------------------------------------------
                  HL-Gap            0.1559535 Eh            4.2437 eV

     #   Z          covCN         q      C6AA      α(0)
     1   6 C        3.711    -0.099    22.538     6.784
     2   7 N        2.748     0.127    19.077     6.487
     3   6 C        2.895     0.030    27.329     8.571
     4   6 C        2.915    -0.007    28.205     8.709
     5   6 C        2.924     0.016    27.658     8.624
     6   6 C        2.915    -0.008    28.215     8.710
     7   6 C        2.891     0.032    27.280     8.563
     8   1 H        0.924     0.116     1.648     2.008
     9   1 H        0.924     0.116     1.643     2.004
    10   1 H        0.925     0.109     1.702     2.040
    11   1 H        0.926     0.115     1.656     2.013
    12   1 H        0.926     0.114     1.667     2.019
    13   1 H        0.926     0.112     1.676     2.025
    14   1 H        0.926     0.113     1.667     2.019
    15   1 H        0.926     0.114     1.664     2.017

Wiberg/Mayer (AO) data.
largest (>0.10) Wiberg bond orders for each atom

     #   Z sym  total        # sym  WBO       # sym  WBO       # sym  WBO
 ---------------------------------------------------------------------------
     1   6 C    3.928 --     2 N    0.985    10 H    0.973     8 H    0.958
                             9 H    0.956
     2   7 N    3.775 --     7 C    1.335     3 C    1.321     1 C    0.985
     3   6 C    3.956 --     4 C    1.471     2 N    1.321    11 H    0.954
     4   6 C    3.980 --     3 C    1.471     5 C    1.415    12 H    0.958
     5   6 C    3.969 --     6 C    1.428     4 C    1.415    13 H    0.960
     6   6 C    3.980 --     7 C    1.455     5 C    1.428    14 H    0.958
     7   6 C    3.956 --     6 C    1.455     2 N    1.335    15 H    0.953
     8   1 H    0.987 --     1 C    0.958
     9   1 H    0.986 --     1 C    0.956
    10   1 H    0.988 --     1 C    0.973
    11   1 H    0.987 --     3 C    0.954
    12   1 H    0.987 --     4 C    0.958
    13   1 H    0.987 --     5 C    0.960
    14   1 H    0.987 --     6 C    0.958
    15   1 H    0.987 --     7 C    0.953
 ---------------------------------------------------------------------------

molecular dipole:
                 x           y           z       tot (Debye)
 q only:       -0.621      -0.009       0.055
   full:       -0.649      -0.010       0.057       1.655

           -------------------------------------------------
          | TOTAL ENERGY              -19.426843793873 Eh   |
          | GRADIENT NORM               0.000780296027 Eh/α |
          | HOMO-LUMO GAP               4.243711508435 eV   |
           -------------------------------------------------

 * finished run on 2024/12/20 at 06:41:05.489
