   * xtb version 6.7.1 (edcfbbe) compiled by 'conda@3ef47c1a292c' on 2024-11-25

   ID    Z sym.   atoms
    1    6 C      1-3, 5-10
    2    7 N      4, 12
    3    8 O      11
    4    1 H      13-25

          program call               : xtb C0347.xyz --opt --namespace C0347 --charge +1
          :  Hamiltonian                  GFN2-xTB          :
 * total energy  :   -35.4030274 Eh     change       -0.6667804E-09 Eh
 * total energy  :   -35.4063416 Eh     change       -0.3314206E-02 Eh
 * total energy  :   -35.4072158 Eh     change       -0.8742087E-03 Eh
 * total energy  :   -35.4074243 Eh     change       -0.2085128E-03 Eh
 * total energy  :   -35.4075704 Eh     change       -0.1460136E-03 Eh
 * total energy  :   -35.4076347 Eh     change       -0.6434936E-04 Eh
 * total energy  :   -35.4076999 Eh     change       -0.6518604E-04 Eh
 * total energy  :   -35.4077450 Eh     change       -0.4506576E-04 Eh
 * total energy  :   -35.4077757 Eh     change       -0.3077280E-04 Eh
 * total energy  :   -35.4078017 Eh     change       -0.2594675E-04 Eh
 * total energy  :   -35.4078237 Eh     change       -0.2198382E-04 Eh
 * total energy  :   -35.4078476 Eh     change       -0.2393750E-04 Eh
 * total energy  :   -35.4078670 Eh     change       -0.1937277E-04 Eh
 * total energy  :   -35.4078923 Eh     change       -0.2530310E-04 Eh
 * total energy  :   -35.4079034 Eh     change       -0.1114413E-04 Eh
 * total energy  :   -35.4079091 Eh     change       -0.5674336E-05 Eh
 * total energy  :   -35.4079127 Eh     change       -0.3605144E-05 Eh
 * total energy  :   -35.4079182 Eh     change       -0.5454136E-05 Eh
 * total energy  :   -35.4079202 Eh     change       -0.2008358E-05 Eh
   *** GEOMETRY OPTIMIZATION CONVERGED AFTER 19 ITERATIONS ***

 final structure:
================
25
 xtb: 6.7.1 (edcfbbe)
C            1.88575477594268        0.32101806313035        0.36303867431406
C            0.60052060837396       -0.24621688351772        0.94959867010254
C            0.27379958330186        0.32934709732723        2.33619045884389
N            0.00655451865496        1.75404812154415        2.24611514496875
C           -1.19854518278580        2.16896441345634        1.83945328018136
C           -1.46039339835694        3.50752831435467        1.62939778774724
C           -0.44846237446901        4.43438006660010        1.83190400861157
C            0.79357789816992        3.99146617037183        2.28649808578780
C            0.98666790428385        2.63469791303998        2.47859136172652
C            1.92378972889025        4.99851465130606        2.40359461800482
O            2.04579280346043        5.84610155540146        1.55874868111881
N            2.74700512820155        4.82891101437769        3.45419513551527
H            1.81226828583365        1.39263982583430        0.18524756757679
H            2.09033676423610       -0.15622138267482       -0.59068007011318
H            2.73145339219914        0.12827693736262        1.01876746189437
H           -0.23262479459405       -0.05708627416286        0.27039224915923
H            0.69961068067501       -1.32576864258315        1.06241029052094
H           -0.60567540106910       -0.17092672734630        2.74602229101492
H            1.11736540584874        0.16581437448742        3.00875225647028
H           -1.95112742216702        1.41185131687709        1.67444679233062
H           -2.43828980085559        3.81602411198393        1.29609945164405
H           -0.59492326203534        5.48619406500323        1.63681657389474
H            1.94094416664470        2.24020277239290        2.79709408968874
H            2.54019718337143        4.22270775949470        4.22839276290394
H            3.48676280824522        5.50473136593846        3.57434237609146

          :  Hamiltonian                  GFN2-xTB          :
         :: total energy             -35.407920162530 Eh    ::
         :: gradient norm              0.000885140624 Eh/a0 ::
         :: HOMO-LUMO gap              2.172606091682 eV    ::
         :: SCC energy               -35.942890301638 Eh    ::
         :: -> dispersion             -0.019743818996 Eh    ::
         :: repulsion energy           0.534970139108 Eh    ::

    * Orbital Energies and Occupations

         #    Occupation            Energy/Eh            Energy/eV
      -------------------------------------------------------------
         1        2.0000           -0.8858301             -24.1047
       ...           ...                  ...                  ...
        20        2.0000           -0.6677379             -18.1701
        21        2.0000           -0.6527010             -17.7609
        22        2.0000           -0.6494589             -17.6727
        23        2.0000           -0.6356965             -17.2982
        24        2.0000           -0.6275915             -17.0776
        25        2.0000           -0.6256622             -17.0251
        26        2.0000           -0.6230346             -16.9536
        27        2.0000           -0.6173380             -16.7986
        28        2.0000           -0.6005033             -16.3405
        29        2.0000           -0.5852022             -15.9242
        30        2.0000           -0.5801752             -15.7874
        31        2.0000           -0.5622392             -15.2993
        32        2.0000           -0.5439352             -14.8012 (HOMO)
        33                         -0.4640934             -12.6286 (LUMO)
        34                         -0.4390327             -11.9467
        35                         -0.3528600              -9.6018
        36                         -0.2986031              -8.1254
        37                         -0.1787277              -4.8634
        38                         -0.1257274              -3.4212
        39                         -0.0893214              -2.4306
        40                         -0.0679876              -1.8500
        41                         -0.0624512              -1.6994
        42                         -0.0447759              -1.2184
        43                         -0.0216468              -0.5890
       ...                                ...                  ...
        61                          0.5393381              14.6761
      -------------------------------------------------------------
                  HL-Gap            0.0798418 Eh            2.1726 eV

     #   Z          covCN         q      C6AA      α(0)
     1   6 C        3.752    -0.119    22.837     6.815
     2   6 C        3.801    -0.065    21.749     6.640
     3   6 C        3.760    -0.037    21.291     6.578
     4   7 N        2.749     0.114    19.294     6.524
     5   6 C        2.893     0.032    27.276     8.563
     6   6 C        2.914    -0.010    28.255     8.716
     7   6 C        2.928     0.018    27.615     8.618
     8   6 C        2.968     0.006    27.888     8.662
     9   6 C        2.892     0.026    27.428     8.587
    10   6 C        2.747     0.287    22.141     7.705
    11   8 O        0.859    -0.366    21.016     6.146
    12   7 N        2.637    -0.255    26.624     7.663
    13   1 H        0.925     0.038     2.477     2.461
    14   1 H        0.925     0.074     2.041     2.234
    15   1 H        0.925     0.054     2.271     2.356
    16   1 H        0.924     0.059     2.207     2.323
    17   1 H        0.925     0.083     1.950     2.184
    18   1 H        0.924     0.093     1.853     2.129
    19   1 H        0.924     0.093     1.854     2.129
    20   1 H        0.926     0.112     1.681     2.027
    21   1 H        0.926     0.113     1.671     2.022
    22   1 H        0.926     0.122     1.598     1.977
    23   1 H        0.926     0.107     1.720     2.051
    24   1 H        0.860     0.195     1.133     1.667
    25   1 H        0.860     0.228     0.975     1.547

Wiberg/Mayer (AO) data.
largest (>0.10) Wiberg bond orders for each atom

     #   Z sym  total        # sym  WBO       # sym  WBO       # sym  WBO
 ---------------------------------------------------------------------------
     1   6 C    3.990 --     2 C    1.023    15 H    0.985    13 H    0.984
                            14 H    0.978
     2   6 C    3.981 --     1 C    1.023    16 H    0.974     3 C    0.973
                            17 H    0.965
     3   6 C    3.932 --     2 C    0.973    19 H    0.964     4 N    0.963
                            18 H    0.961
     4   7 N    3.767 --     5 C    1.326     9 C    1.325     3 C    0.963
     5   6 C    3.958 --     6 C    1.459     4 N    1.326    20 H    0.954
     6   6 C    3.979 --     5 C    1.459     7 C    1.426    21 H    0.957
     7   6 C    3.963 --     6 C    1.426     8 C    1.387    22 H    0.956
     8   6 C    3.977 --     9 C    1.429     7 C    1.387    10 C    0.938
     9   6 C    3.959 --     8 C    1.429     4 N    1.325    23 H    0.952
    10   6 C    3.962 --    11 O    1.724    12 N    1.269     8 C    0.938
    11   8 O    2.080 --    10 C    1.724    12 N    0.224
    12   7 N    3.399 --    10 C    1.269    24 H    0.943    25 H    0.927
                            11 O    0.224
    13   1 H    0.999 --     1 C    0.984
    14   1 H    0.994 --     1 C    0.978
    15   1 H    0.997 --     1 C    0.985
    16   1 H    0.996 --     2 C    0.974
    17   1 H    0.991 --     2 C    0.965
    18   1 H    0.991 --     3 C    0.961
    19   1 H    0.991 --     3 C    0.964
    20   1 H    0.987 --     5 C    0.954
    21   1 H    0.986 --     6 C    0.957
    22   1 H    0.985 --     7 C    0.956
    23   1 H    0.988 --     9 C    0.952
    24   1 H    0.962 --    12 N    0.943
    25   1 H    0.947 --    12 N    0.927
 ---------------------------------------------------------------------------

molecular dipole:
                 x           y           z       tot (Debye)
 q only:        0.417       3.670       4.877
   full:        0.350       3.531       5.165      15.927

           -------------------------------------------------
          | TOTAL ENERGY              -35.407920162530 Eh   |
          | GRADIENT NORM               0.000885140624 Eh/α |
          | HOMO-LUMO GAP               2.172606091682 eV   |
           -------------------------------------------------

 * finished run on 2024/12/20 at 06:41:17.304
