   * xtb version 6.7.1 (edcfbbe) compiled by 'conda@3ef47c1a292c' on 2024-11-25

   ID    Z sym.   atoms
    1    6 C      1, 3-9, 11, 13, 14, 16, 18-21
    2    8 O      2, 10
    3    7 N      12, 15
    4   16 S      17
    5    1 H      22-42

          program call               : xtb C0343.xyz --opt --namespace C0343 --charge +1
          :  Hamiltonian                  GFN2-xTB          :
 * total energy  :   -61.7838786 Eh     change       -0.4054925E-09 Eh
 * total energy  :   -61.7924939 Eh     change       -0.8615296E-02 Eh
 * total energy  :   -61.7953963 Eh     change       -0.2902367E-02 Eh
 * total energy  :   -61.7962745 Eh     change       -0.8781751E-03 Eh
 * total energy  :   -61.7970880 Eh     change       -0.8135877E-03 Eh
 * total energy  :   -61.7976451 Eh     change       -0.5570131E-03 Eh
 * total energy  :   -61.7982494 Eh     change       -0.6043181E-03 Eh
 * total energy  :   -61.7989352 Eh     change       -0.6857762E-03 Eh
 * total energy  :   -61.7995833 Eh     change       -0.6481698E-03 Eh
 * total energy  :   -61.8002334 Eh     change       -0.6501175E-03 Eh
 * total energy  :   -61.8113493 Eh     change       -0.1634932E-04 Eh
 * total energy  :   -61.8113577 Eh     change       -0.8396342E-05 Eh
 * total energy  :   -61.8113714 Eh     change       -0.1370319E-04 Eh
 * total energy  :   -61.8113779 Eh     change       -0.6491859E-05 Eh
 * total energy  :   -61.8113851 Eh     change       -0.7161666E-05 Eh
 * total energy  :   -61.8113947 Eh     change       -0.9572439E-05 Eh
 * total energy  :   -61.8113948 Eh     change       -0.1085221E-06 Eh
 * total energy  :   -61.8114039 Eh     change       -0.9126627E-05 Eh
 * total energy  :   -61.8114081 Eh     change       -0.4247683E-05 Eh
   *** GEOMETRY OPTIMIZATION CONVERGED AFTER 69 ITERATIONS ***

 final structure:
================
42
 xtb: 6.7.1 (edcfbbe)
C            1.08398693239595       -0.93061288987759        0.18125275317526
O            0.40464509949834       -0.89188745525390       -1.05161421391076
C            1.10726759996444       -0.97665980442017       -2.20289576914554
C            0.34542680829984       -1.05172609538897       -3.37672097608393
C            0.95998951911806       -1.15894540195116       -4.60594924590831
C            2.34071392263199       -1.17929526198864       -4.69494931128267
C            3.11335822714115       -1.07502099593348       -3.53896355274254
C            2.49321928756751       -0.97930134749567       -2.28812151986882
C            4.57178339057035       -1.06551158688127       -3.70478403671115
O            5.15316202604980       -1.48073026468868       -4.67403932609741
C            5.40559292667235       -0.47048516918369       -2.53743605920455
N            4.93215740516595        0.81950148302139       -2.10510874538792
C            4.81411741197783        1.22009981593130       -0.80826390094439
C            4.28580417962779        2.47386004522188       -0.81290835496358
N            4.08789158483349        2.82582661941955       -2.11186468691019
C            4.49855055481988        1.81579261054247       -2.89668264169613
S            4.29727085172672        1.76754535388270       -4.63396189471715
C            5.93855696710086        2.35679148743567       -5.30183560072684
C            6.25310362929829        3.75896170955784       -4.82411648635306
C            7.04541674024170        1.36306595218607       -5.02157018395069
C            3.50535821411837        4.06379824661819       -2.55334986427613
H            0.30762496220734       -0.91450928426986        0.94352594527375
H            1.73368970790718       -0.05738375245103        0.31210509444883
H            1.67149764446877       -1.84748150356722        0.28708517757000
H           -0.72845446403209       -1.04128685446381       -3.28333106848630
H            0.36168041363913       -1.23350484808002       -5.49990097016703
H            2.83987062364174       -1.26369312994363       -5.64687159806050
H            3.08336674614894       -0.95790830947876       -1.38602298933395
H            5.37525515130215       -1.16049204984263       -1.69152457713325
H            6.44157221406539       -0.40309323236823       -2.88238042948726
H            5.11472219148132        0.60283349401812        0.01417289940935
H            4.04124380487001        3.12455554880302        0.00207414737660
H            5.70160156998778        2.36267274920382       -6.36808786686092
H            6.46126553178646        3.77474302064597       -3.75509848735845
H            7.14095700484461        4.11368688554639       -5.34341366027158
H            5.43879572709604        4.44512605747689       -5.04445423390527
H            6.73125959662624        0.34887047650284       -5.25776147495951
H            7.90106299895740        1.60276259794904       -5.65063016903797
H            7.36776759782979        1.42215003705800       -3.98321506126246
H            4.18612615485462        4.89429132698928       -2.36181848903611
H            3.29739296297645        4.00000535927144       -3.61979408733280
H            2.57450858052158        4.24329836024083       -2.01644448371598

          :  Hamiltonian                  GFN2-xTB          :
         :: total energy             -61.811408140773 Eh    ::
         :: gradient norm              0.000884794375 Eh/a0 ::
         :: HOMO-LUMO gap              1.975504036590 eV    ::
         :: SCC energy               -62.671283437377 Eh    ::
         :: -> dispersion             -0.047411066321 Eh    ::
         :: repulsion energy           0.859875296604 Eh    ::

    * Orbital Energies and Occupations

         #    Occupation            Energy/Eh            Energy/eV
      -------------------------------------------------------------
         1        2.0000           -0.8938702             -24.3234
       ...           ...                  ...                  ...
        44        2.0000           -0.5927555             -16.1297
        45        2.0000           -0.5920858             -16.1115
        46        2.0000           -0.5758471             -15.6696
        47        2.0000           -0.5717163             -15.5572
        48        2.0000           -0.5669883             -15.4285
        49        2.0000           -0.5610005             -15.2656
        50        2.0000           -0.5567132             -15.1489
        51        2.0000           -0.5482402             -14.9184
        52        2.0000           -0.5446157             -14.8197
        53        2.0000           -0.5247361             -14.2788
        54        2.0000           -0.5188489             -14.1186
        55        2.0000           -0.5150103             -14.0141
        56        2.0000           -0.4932485             -13.4220 (HOMO)
        57                         -0.4206501             -11.4465 (LUMO)
        58                         -0.4000845             -10.8869
        59                         -0.3722227             -10.1287
        60                         -0.3318153              -9.0292
        61                         -0.3296577              -8.9704
        62                         -0.3113206              -8.4715
        63                         -0.2962437              -8.0612
        64                         -0.2016584              -5.4874
        65                         -0.1804721              -4.9109
        66                         -0.1701745              -4.6307
        67                         -0.1414094              -3.8479
       ...                                ...                  ...
       110                          0.5655362              15.3890
      -------------------------------------------------------------
                  HL-Gap            0.0725984 Eh            1.9755 eV

     #   Z          covCN         q      C6AA      α(0)
     1   6 C        3.643     0.032    20.383     6.490
     2   8 O        1.706    -0.250    18.145     5.751
     3   6 C        2.862     0.152    24.711     8.148
     4   6 C        2.921    -0.038    28.952     8.824
     5   6 C        2.916    -0.020    28.507     8.755
     6   6 C        2.926    -0.023    28.589     8.769
     7   6 C        2.971    -0.021    28.524     8.761
     8   6 C        2.917    -0.076    29.903     8.967
     9   6 C        2.822     0.231    23.168     7.887
    10   8 O        0.857    -0.327    20.274     6.037
    11   6 C        3.740    -0.046    21.473     6.612
    12   7 N        2.877     0.044    20.478     6.721
    13   6 C        3.052    -0.007    28.146     8.701
    14   6 C        3.048    -0.009    28.185     8.707
    15   7 N        2.886     0.052    20.334     6.697
    16   6 C        3.099     0.122    25.208     8.228
    17  16 S        2.021    -0.128   146.416    20.366
    18   6 C        3.840     0.038    19.906     6.347
    19   6 C        3.777    -0.118    22.781     6.800
    20   6 C        3.775    -0.120    22.817     6.806
    21   6 C        3.692    -0.082    22.265     6.752
    22   1 H        0.925     0.082     1.960     2.189
    23   1 H        0.924     0.031     2.571     2.507
    24   1 H        0.924     0.050     2.321     2.382
    25   1 H        0.926     0.077     2.008     2.216
    26   1 H        0.926     0.069     2.093     2.262
    27   1 H        0.926     0.075     2.036     2.231
    28   1 H        0.926     0.031     2.573     2.508
    29   1 H        0.924     0.097     1.809     2.103
    30   1 H        0.924     0.107     1.723     2.053
    31   1 H        0.926     0.103     1.755     2.071
    32   1 H        0.926     0.108     1.711     2.045
    33   1 H        0.925     0.080     1.974     2.197
    34   1 H        0.925     0.041     2.431     2.438
    35   1 H        0.925     0.077     2.012     2.218
    36   1 H        0.925     0.060     2.204     2.322
    37   1 H        0.925     0.078     1.999     2.211
    38   1 H        0.925     0.074     2.047     2.237
    39   1 H        0.925     0.040     2.453     2.449
    40   1 H        0.924     0.103     1.759     2.074
    41   1 H        0.925     0.109     1.709     2.045
    42   1 H        0.925     0.103     1.754     2.071

Wiberg/Mayer (AO) data.
largest (>0.10) Wiberg bond orders for each atom

     #   Z sym  total        # sym  WBO       # sym  WBO       # sym  WBO
 ---------------------------------------------------------------------------
     1   6 C    3.940 --     2 O    0.980    22 H    0.977    23 H    0.977
                            24 H    0.976
     2   8 O    2.262 --     3 C    1.089     1 C    0.980
     3   6 C    3.941 --     8 C    1.392     4 C    1.320     2 O    1.089
     4   6 C    3.986 --     5 C    1.472     3 C    1.320    25 H    0.965
     5   6 C    3.988 --     4 C    1.472     6 C    1.425    26 H    0.966
     6   6 C    3.987 --     5 C    1.425     7 C    1.374    27 H    0.964
     7   6 C    3.986 --     6 C    1.374     8 C    1.352     9 C    1.058
     8   6 C    3.986 --     3 C    1.392     7 C    1.352    28 H    0.962
     9   6 C    3.934 --    10 O    1.838     7 C    1.058    11 C    0.925
    10   8 O    2.109 --     9 C    1.838
    11   6 C    3.933 --    12 N    0.978    29 H    0.950    30 H    0.945
                             9 C    0.925
    12   7 N    3.699 --    16 C    1.308    13 C    1.221    11 C    0.978
    13   6 C    3.948 --    14 C    1.583    12 N    1.221    31 H    0.961
    14   6 C    3.948 --    13 C    1.583    15 N    1.227    32 H    0.960
    15   7 N    3.705 --    16 C    1.313    14 C    1.227    21 C    0.989
    16   6 C    3.945 --    15 N    1.313    12 N    1.308    17 S    1.051
    17  16 S    2.178 --    16 C    1.051    18 C    0.887
    18   6 C    3.947 --    20 C    1.021    19 C    1.021    33 H    0.951
                            17 S    0.887
    19   6 C    3.990 --    18 C    1.021    34 H    0.984    36 H    0.982
                            35 H    0.969
    20   6 C    3.988 --    18 C    1.021    39 H    0.983    37 H    0.976
                            38 H    0.969
    21   6 C    3.930 --    15 N    0.989    41 H    0.968    42 H    0.964
                            40 H    0.961
    22   1 H    0.993 --     1 C    0.977
    23   1 H    0.999 --     1 C    0.977
    24   1 H    0.997 --     1 C    0.976
    25   1 H    0.994 --     4 C    0.965
    26   1 H    0.994 --     5 C    0.966
    27   1 H    0.994 --     6 C    0.964
    28   1 H    0.999 --     8 C    0.962
    29   1 H    0.990 --    11 C    0.950
    30   1 H    0.988 --    11 C    0.945
    31   1 H    0.989 --    13 C    0.961
    32   1 H    0.988 --    14 C    0.960
    33   1 H    0.993 --    18 C    0.951
    34   1 H    0.998 --    19 C    0.984
    35   1 H    0.993 --    19 C    0.969
    36   1 H    0.996 --    19 C    0.982
    37   1 H    0.994 --    20 C    0.976
    38   1 H    0.993 --    20 C    0.969
    39   1 H    0.998 --    20 C    0.983
    40   1 H    0.989 --    21 C    0.961
    41   1 H    0.988 --    21 C    0.968
    42   1 H    0.989 --    21 C    0.964
 ---------------------------------------------------------------------------

molecular dipole:
                 x           y           z       tot (Debye)
 q only:        8.062       3.935      -4.053
   full:        8.370       3.935      -3.686      25.306

           -------------------------------------------------
          | TOTAL ENERGY              -61.811408140773 Eh   |
          | GRADIENT NORM               0.000884794375 Eh/α |
          | HOMO-LUMO GAP               1.975504036590 eV   |
           -------------------------------------------------

 * finished run on 2024/12/20 at 06:41:14.578
