   * xtb version 6.7.1 (edcfbbe) compiled by 'conda@3ef47c1a292c' on 2024-11-25

   ID    Z sym.   atoms
    1    6 C      1, 2, 4, 5, 7-10
    2    7 N      3, 6
    3    1 H      11-25

          program call               : xtb C0346.xyz --opt --namespace C0346 --charge +1
          :  Hamiltonian                  GFN2-xTB          :
 * total energy  :   -30.2713946 Eh     change       -0.2146905E-10 Eh
 * total energy  :   -30.2744712 Eh     change       -0.3076598E-02 Eh
 * total energy  :   -30.2750156 Eh     change       -0.5444004E-03 Eh
 * total energy  :   -30.2750971 Eh     change       -0.8153254E-04 Eh
 * total energy  :   -30.2751512 Eh     change       -0.5413015E-04 Eh
 * total energy  :   -30.2751674 Eh     change       -0.1614267E-04 Eh
 * total energy  :   -30.2751854 Eh     change       -0.1801849E-04 Eh
 * total energy  :   -30.2751974 Eh     change       -0.1203027E-04 Eh
 * total energy  :   -30.2752057 Eh     change       -0.8307337E-05 Eh
 * total energy  :   -30.2752125 Eh     change       -0.6814257E-05 Eh
 * total energy  :   -30.2752178 Eh     change       -0.5280308E-05 Eh
 * total energy  :   -30.2752220 Eh     change       -0.4216546E-05 Eh
   *** GEOMETRY OPTIMIZATION CONVERGED AFTER 12 ITERATIONS ***

 final structure:
================
25
 xtb: 6.7.1 (edcfbbe)
C            1.22212637600496        0.06250004783096        0.00926380157546
C            0.35158632429059        0.10847904523477       -1.24275026705771
N            0.69919809896756       -0.96403637844899       -2.14941204172157
C            0.28653894954769       -2.25807132315246       -2.03908793535243
C            0.87707402292748       -2.97749331702752       -3.04064371949371
N            1.65389058157164       -2.09170122755186       -3.74218193796105
C            1.52630516929674       -0.88799404627550       -3.18382044239760
C            2.42331669617190       -2.37932673584111       -4.93443235129385
C            1.59279187231034       -2.13902386128270       -6.19167847811108
C            0.77270736909149       -4.41750249301732       -3.36298183040482
H            1.09954098675363       -0.88217418025889        0.53248525903853
H            0.93104236408200        0.86538814543215        0.67923131995241
H            2.27162622991737        0.18965925555336       -0.24377005910751
H           -0.70091791467266       -0.00027802159349       -0.97288786153369
H            0.48629904073863        1.05810444713150       -1.76363368948475
H           -0.39192475352027       -2.58000295573070       -1.27602482938941
H            2.01856459813493        0.00291679646952       -3.52193512806511
H            3.30378446904054       -1.73363847772849       -4.93838160039890
H            2.75145386429673       -3.41870937781112       -4.89004240877122
H            1.29166766124607       -1.09700275495126       -6.26345788558222
H            2.18591954961331       -2.38534645461005       -7.06678439742049
H            0.70061297555400       -2.75961480981278       -6.19723014746401
H            0.41467828811095       -4.56861937114367       -4.37970834892567
H            1.74215869382404       -4.90606273241341       -3.26940163506715
H            0.08055848670058       -4.89609921900148       -2.67714338556238

          :  Hamiltonian                  GFN2-xTB          :
         :: total energy             -30.275222036544 Eh    ::
         :: gradient norm              0.000372815462 Eh/a0 ::
         :: HOMO-LUMO gap              4.491548034737 eV    ::
         :: SCC energy               -30.741777007294 Eh    ::
         :: -> dispersion             -0.017396299874 Eh    ::
         :: repulsion energy           0.466554970750 Eh    ::

    * Orbital Energies and Occupations

         #    Occupation            Energy/Eh            Energy/eV
      -------------------------------------------------------------
         1        2.0000           -0.8880050             -24.1638
       ...           ...                  ...                  ...
        16        2.0000           -0.6670003             -18.1500
        17        2.0000           -0.6543462             -17.8057
        18        2.0000           -0.6473771             -17.6160
        19        2.0000           -0.6397805             -17.4093
        20        2.0000           -0.6373132             -17.3422
        21        2.0000           -0.6211722             -16.9030
        22        2.0000           -0.6146356             -16.7251
        23        2.0000           -0.6003727             -16.3370
        24        2.0000           -0.5998909             -16.3239
        25        2.0000           -0.5931584             -16.1407
        26        2.0000           -0.5902522             -16.0616
        27        2.0000           -0.5877021             -15.9922
        28        2.0000           -0.5653492             -15.3839 (HOMO)
        29                         -0.4002879             -10.8924 (LUMO)
        30                         -0.3588994              -9.7661
        31                         -0.1818927              -4.9496
        32                         -0.1347234              -3.6660
        33                         -0.0587119              -1.5976
        34                         -0.0451486              -1.2286
        35                         -0.0364229              -0.9911
        36                         -0.0320796              -0.8729
        37                         -0.0259497              -0.7061
        38                         -0.0133365              -0.3629
        39                          0.0063770               0.1735
       ...                                ...                  ...
        55                          0.4528005              12.3213
      -------------------------------------------------------------
                  HL-Gap            0.1650614 Eh            4.4915 eV

     #   Z          covCN         q      C6AA      α(0)
     1   6 C        3.753    -0.124    22.935     6.829
     2   6 C        3.741    -0.020    21.013     6.540
     3   7 N        2.858     0.059    20.203     6.676
     4   6 C        3.081    -0.025    28.542     8.758
     5   6 C        3.091     0.054    26.677     8.466
     6   7 N        2.873     0.042    20.499     6.724
     7   6 C        3.084     0.045    26.890     8.501
     8   6 C        3.741    -0.020    21.009     6.540
     9   6 C        3.753    -0.123    22.916     6.826
    10   6 C        3.754    -0.129    23.039     6.844
    11   1 H        0.925     0.067     2.122     2.278
    12   1 H        0.925     0.084     1.938     2.177
    13   1 H        0.925     0.063     2.168     2.303
    14   1 H        0.924     0.091     1.871     2.139
    15   1 H        0.924     0.083     1.949     2.183
    16   1 H        0.926     0.100     1.784     2.089
    17   1 H        0.926     0.106     1.730     2.057
    18   1 H        0.924     0.082     1.961     2.190
    19   1 H        0.924     0.091     1.867     2.137
    20   1 H        0.925     0.062     2.181     2.310
    21   1 H        0.925     0.083     1.953     2.185
    22   1 H        0.925     0.063     2.160     2.298
    23   1 H        0.925     0.089     1.885     2.147
    24   1 H        0.925     0.088     1.897     2.154
    25   1 H        0.925     0.089     1.892     2.151

Wiberg/Mayer (AO) data.
largest (>0.10) Wiberg bond orders for each atom

     #   Z sym  total        # sym  WBO       # sym  WBO       # sym  WBO
 ---------------------------------------------------------------------------
     1   6 C    3.981 --     2 C    1.001    13 H    0.985    11 H    0.984
                            12 H    0.976
     2   6 C    3.940 --     1 C    1.001    15 H    0.968     3 N    0.967
                            14 H    0.963
     3   7 N    3.713 --     7 C    1.371     4 C    1.216     2 C    0.967
     4   6 C    3.943 --     5 C    1.547     3 N    1.216    16 H    0.963
     5   6 C    3.954 --     4 C    1.547     6 N    1.197    10 C    1.045
     6   7 N    3.697 --     7 C    1.348     5 C    1.197     8 C    0.967
     7   6 C    3.948 --     3 N    1.371     6 N    1.348    17 H    0.955
     8   6 C    3.941 --     9 C    1.002     6 N    0.967    18 H    0.966
                            19 H    0.963
     9   6 C    3.982 --     8 C    1.002    20 H    0.985    22 H    0.984
                            21 H    0.977
    10   6 C    3.982 --     5 C    1.045    25 H    0.975    23 H    0.959
                            24 H    0.955
    11   1 H    0.996 --     1 C    0.984
    12   1 H    0.992 --     1 C    0.976
    13   1 H    0.996 --     1 C    0.985
    14   1 H    0.991 --     2 C    0.963
    15   1 H    0.993 --     2 C    0.968
    16   1 H    0.990 --     4 C    0.963
    17   1 H    0.988 --     7 C    0.955
    18   1 H    0.993 --     8 C    0.966
    19   1 H    0.991 --     8 C    0.963
    20   1 H    0.996 --     9 C    0.985
    21   1 H    0.992 --     9 C    0.977
    22   1 H    0.996 --     9 C    0.984
    23   1 H    0.992 --    10 C    0.959
    24   1 H    0.992 --    10 C    0.955
    25   1 H    0.992 --    10 C    0.975
 ---------------------------------------------------------------------------

molecular dipole:
                 x           y           z       tot (Debye)
 q only:        2.244      -3.272      -5.694
   full:        2.281      -3.150      -5.705      17.549

           -------------------------------------------------
          | TOTAL ENERGY              -30.275222036544 Eh   |
          | GRADIENT NORM               0.000372815462 Eh/α |
          | HOMO-LUMO GAP               4.491548034737 eV   |
           -------------------------------------------------

 * finished run on 2024/12/20 at 06:41:16.934
