   * xtb version 6.7.1 (edcfbbe) compiled by 'conda@3ef47c1a292c' on 2024-11-25

   ID    Z sym.   atoms
    1    6 C      1-4, 6, 7, 9-11
    2    7 N      5, 8
    3    1 H      12-26

          program call               : xtb C0342.xyz --opt --namespace C0342 --charge +1
          :  Hamiltonian                  GFN2-xTB          :
 * total energy  :   -32.3655574 Eh     change       -0.4246914E-09 Eh
 * total energy  :   -32.3690071 Eh     change       -0.3449755E-02 Eh
 * total energy  :   -32.3698550 Eh     change       -0.8478701E-03 Eh
 * total energy  :   -32.3699783 Eh     change       -0.1233155E-03 Eh
 * total energy  :   -32.3700305 Eh     change       -0.5222826E-04 Eh
 * total energy  :   -32.3700482 Eh     change       -0.1763963E-04 Eh
 * total energy  :   -32.3700710 Eh     change       -0.2284655E-04 Eh
 * total energy  :   -32.3701014 Eh     change       -0.3039432E-04 Eh
 * total energy  :   -32.3701319 Eh     change       -0.3052006E-04 Eh
 * total energy  :   -32.3701668 Eh     change       -0.3484254E-04 Eh
 * total energy  :   -32.3705682 Eh     change       -0.1476037E-04 Eh
 * total energy  :   -32.3705827 Eh     change       -0.1455430E-04 Eh
 * total energy  :   -32.3705965 Eh     change       -0.1377987E-04 Eh
 * total energy  :   -32.3706088 Eh     change       -0.1232648E-04 Eh
 * total energy  :   -32.3706196 Eh     change       -0.1074620E-04 Eh
 * total energy  :   -32.3706290 Eh     change       -0.9397705E-05 Eh
 * total energy  :   -32.3706373 Eh     change       -0.8337878E-05 Eh
 * total energy  :   -32.3706448 Eh     change       -0.7481109E-05 Eh
 * total energy  :   -32.3706489 Eh     change       -0.4120110E-05 Eh
   *** GEOMETRY OPTIMIZATION CONVERGED AFTER 44 ITERATIONS ***

 final structure:
================
26
 xtb: 6.7.1 (edcfbbe)
C            1.23269990922674        0.31715181783162        0.03078974849623
C            0.53074772240944       -1.02661505113801        0.18717534080290
C            0.85873354029260       -1.73125821635537        1.50445384653706
C            0.31066544556683       -1.01400702914623        2.74539852453400
N           -1.13205803556751       -0.94814593740286        2.71239208417927
C           -1.87475420747478        0.11207166965748        2.29129769112325
C           -3.18248850348690       -0.26038892020869        2.34286714740154
N           -3.22198708390363       -1.55166765750861        2.78908796269148
C           -1.96208080093037       -1.94417196229972        3.00424457220967
C           -4.40595705956515       -2.28735716190658        2.96670373008708
C           -4.46273829499860       -3.56774244697680        3.29062955171492
H            0.90657305529125        1.04030042072319        0.77465779061878
H            1.02099494134626        0.73217171803709       -0.95043049933997
H            2.30880108625896        0.19559192466199        0.12051957621466
H           -0.55026645502276       -0.89542187038488        0.08775709344091
H            0.84967190088764       -1.67979363610538       -0.62577858549852
H            0.46440210576738       -2.74921223345257        1.47963173265920
H            1.94120556686152       -1.79659862891387        1.61502630446735
H            0.61706518795704       -1.55120949211527        3.64546040621525
H            0.69838446469718        0.00362175435381        2.79452458310692
H           -1.43806848447171        1.04360587924562        1.99426421378434
H           -4.06566599982290        0.29273936680909        2.09547551853972
H           -1.65931307666763       -2.90474849425530        3.37049049373191
H           -5.29393821308889       -1.69567484308005        2.80069801378787
H           -5.41621826330816       -4.05086915690671        3.40286665307351
H           -3.59584044825223       -4.18394181316053        3.45265650542084

          :  Hamiltonian                  GFN2-xTB          :
         :: total energy             -32.370648915009 Eh    ::
         :: gradient norm              0.000189050451 Eh/a0 ::
         :: HOMO-LUMO gap              3.260056717238 eV    ::
         :: SCC energy               -32.893630131527 Eh    ::
         :: -> dispersion             -0.019257189576 Eh    ::
         :: repulsion energy           0.522981216517 Eh    ::

    * Orbital Energies and Occupations

         #    Occupation            Energy/Eh            Energy/eV
      -------------------------------------------------------------
         1        2.0000           -0.8982214             -24.4418
       ...           ...                  ...                  ...
        18        2.0000           -0.6644072             -18.0794
        19        2.0000           -0.6505564             -17.7025
        20        2.0000           -0.6383836             -17.3713
        21        2.0000           -0.6329151             -17.2225
        22        2.0000           -0.6155224             -16.7492
        23        2.0000           -0.6080594             -16.5461
        24        2.0000           -0.6043157             -16.4443
        25        2.0000           -0.5955405             -16.2055
        26        2.0000           -0.5874540             -15.9854
        27        2.0000           -0.5747421             -15.6395
        28        2.0000           -0.5642756             -15.3547
        29        2.0000           -0.5552683             -15.1096
        30        2.0000           -0.5494299             -14.9507 (HOMO)
        31                         -0.4296250             -11.6907 (LUMO)
        32                         -0.3797160             -10.3326
        33                         -0.3377861              -9.1916
        34                         -0.1794986              -4.8844
        35                         -0.1272515              -3.4627
        36                         -0.0679325              -1.8485
        37                         -0.0578210              -1.5734
        38                         -0.0507547              -1.3811
        39                         -0.0316355              -0.8608
        40                         -0.0247039              -0.6722
        41                         -0.0093779              -0.2552
       ...                                ...                  ...
        59                          0.4709612              12.8155
      -------------------------------------------------------------
                  HL-Gap            0.1198049 Eh            3.2601 eV

     #   Z          covCN         q      C6AA      α(0)
     1   6 C        3.752    -0.114    22.737     6.800
     2   6 C        3.800    -0.061    21.665     6.627
     3   6 C        3.802    -0.071    21.860     6.657
     4   6 C        3.742    -0.029    21.171     6.564
     5   7 N        2.866     0.075    19.928     6.630
     6   6 C        3.068    -0.003    28.025     8.680
     7   6 C        3.070    -0.007    28.125     8.696
     8   7 N        2.866     0.080    19.843     6.616
     9   6 C        3.092     0.047    26.847     8.493
    10   6 C        2.830     0.006    27.872     8.651
    11   6 C        2.837    -0.078    29.927     8.965
    12   1 H        0.925     0.032     2.565     2.504
    13   1 H        0.925     0.055     2.257     2.349
    14   1 H        0.925     0.053     2.285     2.364
    15   1 H        0.924     0.027     2.629     2.536
    16   1 H        0.924     0.059     2.207     2.323
    17   1 H        0.924     0.049     2.328     2.386
    18   1 H        0.925     0.078     1.996     2.210
    19   1 H        0.924     0.084     1.943     2.180
    20   1 H        0.925     0.097     1.817     2.108
    21   1 H        0.926     0.111     1.688     2.032
    22   1 H        0.926     0.109     1.703     2.041
    23   1 H        0.926     0.113     1.668     2.020
    24   1 H        0.926     0.096     1.825     2.112
    25   1 H        0.926     0.108     1.718     2.050
    26   1 H        0.926     0.083     1.948     2.183

Wiberg/Mayer (AO) data.
largest (>0.10) Wiberg bond orders for each atom

     #   Z sym  total        # sym  WBO       # sym  WBO       # sym  WBO
 ---------------------------------------------------------------------------
     1   6 C    3.993 --     2 C    1.021    14 H    0.986    13 H    0.985
                            12 H    0.984
     2   6 C    3.994 --     1 C    1.021     3 C    1.008    15 H    0.976
                            16 H    0.973
     3   6 C    3.982 --     2 C    1.008     4 C    0.980    17 H    0.975
                            18 H    0.966
     4   6 C    3.933 --     3 C    0.980     5 N    0.968    19 H    0.963
                            20 H    0.962
     5   7 N    3.725 --     9 C    1.371     6 C    1.224     4 C    0.968
     6   6 C    3.950 --     7 C    1.596     5 N    1.224    21 H    0.959
     7   6 C    3.947 --     6 C    1.596     8 N    1.207    22 H    0.961
     8   7 N    3.731 --     9 C    1.326     7 C    1.207    10 C    1.034
     9   6 C    3.947 --     5 N    1.371     8 N    1.326    23 H    0.953
    10   6 C    3.942 --    11 C    1.912     8 N    1.034    24 H    0.954
    11   6 C    3.974 --    10 C    1.912    26 H    0.968    25 H    0.965
    12   1 H    0.999 --     1 C    0.984
    13   1 H    0.997 --     1 C    0.985
    14   1 H    0.997 --     1 C    0.986
    15   1 H    0.999 --     2 C    0.976
    16   1 H    0.996 --     2 C    0.973
    17   1 H    0.998 --     3 C    0.975
    18   1 H    0.993 --     3 C    0.966
    19   1 H    0.992 --     4 C    0.963
    20   1 H    0.990 --     4 C    0.962
    21   1 H    0.987 --     6 C    0.959
    22   1 H    0.988 --     7 C    0.961
    23   1 H    0.987 --     9 C    0.953
    24   1 H    0.990 --    10 C    0.954
    25   1 H    0.988 --    11 C    0.965
    26   1 H    0.993 --    11 C    0.968
 ---------------------------------------------------------------------------

molecular dipole:
                 x           y           z       tot (Debye)
 q only:       -3.732      -2.678       4.871
   full:       -3.763      -2.712       4.961      17.264

           -------------------------------------------------
          | TOTAL ENERGY              -32.370648915009 Eh   |
          | GRADIENT NORM               0.000189050451 Eh/α |
          | HOMO-LUMO GAP               3.260056717238 eV   |
           -------------------------------------------------

 * finished run on 2024/12/20 at 06:41:12.066
