   * xtb version 6.7.1 (edcfbbe) compiled by 'conda@3ef47c1a292c' on 2024-11-25

   ID    Z sym.   atoms
    1    6 C      1, 3-13, 15-21
    2    7 N      2
    3    8 O      14
    4    1 H      22-47

          program call               : xtb C0349.xyz --opt --namespace C0349 --charge +1
          :  Hamiltonian                  GFN2-xTB          :
 * total energy  :   -60.5029670 Eh     change       -0.5763852E-09 Eh
 * total energy  :   -60.5109904 Eh     change       -0.8023401E-02 Eh
 * total energy  :   -60.5130826 Eh     change       -0.2092163E-02 Eh
 * total energy  :   -60.5134804 Eh     change       -0.3978325E-03 Eh
 * total energy  :   -60.5138173 Eh     change       -0.3369024E-03 Eh
 * total energy  :   -60.5139677 Eh     change       -0.1503663E-03 Eh
 * total energy  :   -60.5141706 Eh     change       -0.2029072E-03 Eh
 * total energy  :   -60.5143463 Eh     change       -0.1757128E-03 Eh
 * total energy  :   -60.5144975 Eh     change       -0.1512207E-03 Eh
 * total energy  :   -60.5146152 Eh     change       -0.1176602E-03 Eh
 * total energy  :   -60.5250934 Eh     change       -0.5362801E-05 Eh
 * total energy  :   -60.5251025 Eh     change       -0.9063227E-05 Eh
 * total energy  :   -60.5251136 Eh     change       -0.1106944E-04 Eh
 * total energy  :   -60.5251230 Eh     change       -0.9474049E-05 Eh
 * total energy  :   -60.5251303 Eh     change       -0.7279190E-05 Eh
 * total energy  :   -60.5251366 Eh     change       -0.6230958E-05 Eh
 * total energy  :   -60.5251425 Eh     change       -0.5944808E-05 Eh
 * total energy  :   -60.5251481 Eh     change       -0.5556855E-05 Eh
 * total energy  :   -60.5251528 Eh     change       -0.4720142E-05 Eh
   *** GEOMETRY OPTIMIZATION CONVERGED AFTER 102 ITERATIONS ***

 final structure:
================
47
 xtb: 6.7.1 (edcfbbe)
C            1.14683942958092        0.01411873779408       -0.49818832896294
N            1.39370819384809       -1.06300257827208        0.47528626168072
C            1.45993526737112       -0.48149540562258        1.86456994150373
C            0.20264979864125        0.23040796605070        2.29545963890310
C            0.02128435654747        1.58152272627966        2.01773890871289
C           -1.13656103094858        2.22911715171113        2.41115582886960
C           -2.12421268942235        1.53748574513429        3.09123347488567
C           -1.94314895673118        0.19873069362321        3.39378605567026
C           -0.78600326775358       -0.45003365262296        3.00208423925912
C            0.29440032076658       -2.06930268540319        0.44216177380039
C           -0.11292917918895       -2.58872075593673       -0.93305881338290
C           -1.24440230241517       -3.61733911497330       -0.79983157434598
C           -2.41534103778383       -3.11382876637450        0.05464048605932
O           -2.59229448359821       -1.73263467891162       -0.18777482911778
C           -3.55512678731007       -1.05561774270698        0.51876104519867
C           -4.39355655551678       -1.62647148817538        1.46582545510156
C           -5.31430984661143       -0.83225157090241        2.13146306174081
C           -5.40610008082423        0.52047055376947        1.86454115563920
C           -4.56926785439529        1.08768185748208        0.91629079737239
C           -3.64630857690833        0.30862654256976        0.24955228001125
C            2.68775183684245       -1.69824844831856        0.17478470476447
H            0.14548545231811        0.41661628584246       -0.35816605185955
H            1.24405657700309       -0.36543001944736       -1.51223485780859
H            1.87463898418895        0.81123691138304       -0.35785199964847
H            1.66895088859333       -1.30374129810654        2.55238103515219
H            2.30337705673500        0.21190831385065        1.88752568559144
H            0.79381256480787        2.14058023471393        1.51033724407870
H           -1.26158507431864        3.27769611874131        2.19174551634279
H           -3.02561554106281        2.04199765304188        3.39865257722986
H           -2.70228587493347       -0.33954684991010        3.93828603390481
H           -0.64287518742160       -1.48754159690776        3.26958758581843
H            0.59321778441085       -2.90706090832567        1.07637665910406
H           -0.57938806018618       -1.58350755203114        0.87707307453510
H           -0.49413428200549       -1.77184107723767       -1.54305376598047
H            0.71976910766402       -3.06506051008447       -1.45173796189699
H           -1.60235630610696       -3.84377938596125       -1.80352027854305
H           -0.87305651174552       -4.54289393260883       -0.35894697458018
H           -3.32280945351549       -3.67134346173121       -0.20463096880598
H           -2.20654059147753       -3.28130628698367        1.12128255944533
H           -4.35344562212022       -2.68153082902994        1.68557394760685
H           -5.96721082970126       -1.28578769792643        2.86162535581028
H           -6.13050388823374        1.12786680334915        2.38379280042263
H           -4.63893043275740        2.14077887055928        0.69093115366211
H           -2.99559461863800        0.73445243733763       -0.49881214568488
H            2.66355347063968       -2.14892267998435       -0.81494215489804
H            3.48563774955898       -0.95793180547442        0.19904693356151
H            2.90866608419400       -2.47307282317470        0.90684743410067

          :  Hamiltonian                  GFN2-xTB          :
         :: total energy             -60.525152781887 Eh    ::
         :: gradient norm              0.000166659822 Eh/a0 ::
         :: HOMO-LUMO gap              3.171173135157 eV    ::
         :: SCC energy               -61.496489541908 Eh    ::
         :: -> dispersion             -0.050465351515 Eh    ::
         :: repulsion energy           0.971336760022 Eh    ::

    * Orbital Energies and Occupations

         #    Occupation            Energy/Eh            Energy/eV
      -------------------------------------------------------------
         1        2.0000           -0.8540740             -23.2405
       ...           ...                  ...                  ...
        44        2.0000           -0.5672797             -15.4365
        45        2.0000           -0.5648722             -15.3710
        46        2.0000           -0.5612900             -15.2735
        47        2.0000           -0.5560656             -15.1313
        48        2.0000           -0.5453031             -14.8385
        49        2.0000           -0.5406372             -14.7115
        50        2.0000           -0.5364364             -14.5972
        51        2.0000           -0.5258022             -14.3078
        52        2.0000           -0.5252397             -14.2925
        53        2.0000           -0.5195105             -14.1366
        54        2.0000           -0.5079681             -13.8225
        55        2.0000           -0.4918464             -13.3838
        56        2.0000           -0.4714202             -12.8280 (HOMO)
        57                         -0.3548818              -9.6568 (LUMO)
        58                         -0.3437218              -9.3531
        59                         -0.3107716              -8.4565
        60                         -0.3018602              -8.2140
        61                         -0.2330301              -6.3411
        62                         -0.2017686              -5.4904
        63                         -0.1762282              -4.7954
        64                         -0.1483019              -4.0355
        65                         -0.1411128              -3.8399
        66                         -0.1307089              -3.5568
        67                         -0.0913643              -2.4861
       ...                                ...                  ...
       110                          0.5864443              15.9580
      -------------------------------------------------------------
                  HL-Gap            0.1165385 Eh            3.1712 eV

     #   Z          covCN         q      C6AA      α(0)
     1   6 C        3.717    -0.091    22.373     6.757
     2   7 N        3.621     0.128    19.056     6.484
     3   6 C        3.768    -0.041    21.343     6.584
     4   6 C        2.967    -0.007    28.182     8.708
     5   6 C        2.923    -0.038    28.938     8.822
     6   6 C        2.919    -0.021    28.539     8.760
     7   6 C        2.920    -0.017    28.428     8.744
     8   6 C        2.919    -0.021    28.525     8.758
     9   6 C        2.923    -0.037    28.918     8.819
    10   6 C        3.763    -0.043    21.395     6.593
    11   6 C        3.800    -0.069    21.813     6.650
    12   6 C        3.801    -0.070    21.844     6.654
    13   6 C        3.689     0.078    19.465     6.314
    14   8 O        1.705    -0.295    18.904     5.870
    15   6 C        2.863     0.134    25.073     8.208
    16   6 C        2.917    -0.066    29.655     8.930
    17   6 C        2.922    -0.028    28.695     8.785
    18   6 C        2.919    -0.037    28.931     8.820
    19   6 C        2.921    -0.028    28.711     8.787
    20   6 C        2.921    -0.057    29.426     8.896
    21   6 C        3.720    -0.092    22.370     6.755
    22   1 H        0.925     0.105     1.744     2.065
    23   1 H        0.925     0.098     1.806     2.102
    24   1 H        0.925     0.093     1.853     2.129
    25   1 H        0.924     0.081     1.964     2.192
    26   1 H        0.924     0.083     1.947     2.182
    27   1 H        0.926     0.042     2.426     2.435
    28   1 H        0.926     0.059     2.212     2.326
    29   1 H        0.926     0.061     2.188     2.313
    30   1 H        0.926     0.056     2.249     2.345
    31   1 H        0.926     0.038     2.474     2.460
    32   1 H        0.924     0.076     2.017     2.221
    33   1 H        0.924     0.107     1.719     2.050
    34   1 H        0.925     0.074     2.040     2.234
    35   1 H        0.924     0.052     2.297     2.370
    36   1 H        0.925     0.071     2.072     2.251
    37   1 H        0.924     0.053     2.277     2.360
    38   1 H        0.924     0.049     2.330     2.387
    39   1 H        0.923     0.025     2.655     2.548
    40   1 H        0.926     0.036     2.501     2.473
    41   1 H        0.926     0.047     2.360     2.402
    42   1 H        0.926     0.047     2.360     2.402
    43   1 H        0.926     0.044     2.391     2.418
    44   1 H        0.926     0.036     2.507     2.476
    45   1 H        0.925     0.098     1.803     2.100
    46   1 H        0.925     0.094     1.839     2.121
    47   1 H        0.925     0.093     1.846     2.125

Wiberg/Mayer (AO) data.
largest (>0.10) Wiberg bond orders for each atom

     #   Z sym  total        # sym  WBO       # sym  WBO       # sym  WBO
 ---------------------------------------------------------------------------
     1   6 C    3.929 --    24 H    0.975    23 H    0.973    22 H    0.971
                             2 N    0.960
     2   7 N    3.808 --    21 C    0.964     1 C    0.960    10 C    0.926
                             3 C    0.910
     3   6 C    3.930 --     4 C    1.006    25 H    0.967    26 H    0.965
                             2 N    0.910
     4   6 C    3.978 --     5 C    1.409     9 C    1.403     3 C    1.006
                             7 C    0.109
     5   6 C    3.991 --     6 C    1.444     4 C    1.409    27 H    0.968
                             8 C    0.109
     6   6 C    3.990 --     5 C    1.444     7 C    1.438    28 H    0.969
                             9 C    0.108
     7   6 C    3.988 --     6 C    1.438     8 C    1.435    29 H    0.968
                             4 C    0.109
     8   6 C    3.990 --     9 C    1.446     7 C    1.435    30 H    0.969
                             5 C    0.109
     9   6 C    3.991 --     8 C    1.446     4 C    1.403    31 H    0.967
                             6 C    0.108
    10   6 C    3.924 --    11 C    1.007    32 H    0.968    33 H    0.949
                             2 N    0.926
    11   6 C    3.988 --    10 C    1.007    12 C    1.000    35 H    0.973
                            34 H    0.971
    12   6 C    3.991 --    11 C    1.000    13 C    0.999    37 H    0.977
                            36 H    0.975
    13   6 C    3.951 --    12 C    0.999    14 O    0.974    39 H    0.968
                            38 H    0.967
    14   8 O    2.201 --    15 C    1.032    13 C    0.974
    15   6 C    3.930 --    16 C    1.388    20 C    1.360    14 O    1.032
    16   6 C    3.988 --    17 C    1.432    15 C    1.388    40 H    0.966
                            19 C    0.106
    17   6 C    3.991 --    18 C    1.449    16 C    1.432    41 H    0.970
                            20 C    0.112
    18   6 C    3.991 --    17 C    1.449    19 C    1.422    42 H    0.970
    19   6 C    3.991 --    20 C    1.463    18 C    1.422    43 H    0.970
                            16 C    0.106
    20   6 C    3.988 --    19 C    1.463    15 C    1.360    44 H    0.969
                            17 C    0.112
    21   6 C    3.933 --    47 H    0.976    46 H    0.975    45 H    0.972
                             2 N    0.964
    22   1 H    0.989 --     1 C    0.971
    23   1 H    0.990 --     1 C    0.973
    24   1 H    0.991 --     1 C    0.975
    25   1 H    0.993 --     3 C    0.967
    26   1 H    0.992 --     3 C    0.965
    27   1 H    0.998 --     5 C    0.968
    28   1 H    0.996 --     6 C    0.969
    29   1 H    0.996 --     7 C    0.968
    30   1 H    0.997 --     8 C    0.969
    31   1 H    0.999 --     9 C    0.967
    32   1 H    0.994 --    10 C    0.968
    33   1 H    0.988 --    10 C    0.949
    34   1 H    0.994 --    11 C    0.971
    35   1 H    0.997 --    11 C    0.973
    36   1 H    0.994 --    12 C    0.975
    37   1 H    0.997 --    12 C    0.977
    38   1 H    0.998 --    13 C    0.967
    39   1 H    0.999 --    13 C    0.968
    40   1 H    0.999 --    16 C    0.966
    41   1 H    0.998 --    17 C    0.970
    42   1 H    0.998 --    18 C    0.970
    43   1 H    0.997 --    19 C    0.970
    44   1 H    0.999 --    20 C    0.969
    45   1 H    0.990 --    21 C    0.972
    46   1 H    0.991 --    21 C    0.975
    47   1 H    0.991 --    21 C    0.976
 ---------------------------------------------------------------------------

molecular dipole:
                 x           y           z       tot (Debye)
 q only:        1.371      -1.934       1.306
   full:        1.409      -2.114       1.398       7.371

           -------------------------------------------------
          | TOTAL ENERGY              -60.525152781887 Eh   |
          | GRADIENT NORM               0.000166659822 Eh/α |
          | HOMO-LUMO GAP               3.171173135157 eV   |
           -------------------------------------------------

 * finished run on 2024/12/20 at 06:41:26.430
