   * xtb version 6.7.1 (edcfbbe) compiled by 'conda@3ef47c1a292c' on 2024-11-25

   ID    Z sym.   atoms
    1   35 Br     1
    2    6 C      2-8, 10, 12-20, 22-24
    3    7 N      9, 11
    4   14 Si     21
    5    1 H      25-50

          program call               : xtb C0351.xyz --opt --namespace C0351 --charge +1
          :  Hamiltonian                  GFN2-xTB          :
 * total energy  :   -67.3659575 Eh     change       -0.3061160E-09 Eh
 * total energy  :   -67.3731756 Eh     change       -0.7218147E-02 Eh
 * total energy  :   -67.3743542 Eh     change       -0.1178566E-02 Eh
 * total energy  :   -67.3746538 Eh     change       -0.2996330E-03 Eh
 * total energy  :   -67.3749880 Eh     change       -0.3341375E-03 Eh
 * total energy  :   -67.3752034 Eh     change       -0.2154231E-03 Eh
 * total energy  :   -67.3753774 Eh     change       -0.1740490E-03 Eh
 * total energy  :   -67.3755051 Eh     change       -0.1276458E-03 Eh
 * total energy  :   -67.3756102 Eh     change       -0.1051533E-03 Eh
 * total energy  :   -67.3757200 Eh     change       -0.1097624E-03 Eh
 * total energy  :   -67.3803853 Eh     change       -0.1435429E-04 Eh
 * total energy  :   -67.3804037 Eh     change       -0.1836416E-04 Eh
 * total energy  :   -67.3804243 Eh     change       -0.2058149E-04 Eh
 * total energy  :   -67.3804487 Eh     change       -0.2444534E-04 Eh
 * total energy  :   -67.3804657 Eh     change       -0.1692435E-04 Eh
 * total energy  :   -67.3804747 Eh     change       -0.9087952E-05 Eh
 * total energy  :   -67.3804818 Eh     change       -0.7026271E-05 Eh
 * total energy  :   -67.3804873 Eh     change       -0.5523860E-05 Eh
 * total energy  :   -67.3804913 Eh     change       -0.4007686E-05 Eh
   *** GEOMETRY OPTIMIZATION CONVERGED AFTER 114 ITERATIONS ***

 final structure:
================
50
 xtb: 6.7.1 (edcfbbe)
Br          -0.20868562583314        2.95545908354676        1.40158937107366
C            1.23679292045328        1.81333281158208        0.93456047861657
C            2.18351746642407        1.47505921758627        1.88997597078724
C            3.25786789105677        0.67951673962346        1.53221476455188
C            3.38508164620634        0.21115565974465        0.23119953725787
C            2.41279526862123        0.53842933822586       -0.70985832504894
C            1.34143118756710        1.33901104179008       -0.36584562659769
C            4.58584956641107       -0.59561444871148       -0.19835410744221
N            5.32150652524203        0.13659838637682       -1.21313852387239
C            5.47429698495891        1.45799608934611       -1.22748005703094
N            6.12645901075762        1.86091021023501       -2.30894557662258
C            6.41956234781007        0.74287124120869       -3.06227005121270
C            5.91046969650513       -0.36544209705658       -2.35464962697046
C            6.05004882126501       -1.65913534878552       -2.84312306556470
C            6.70326219096930       -1.80495954656034       -4.04905911382067
C            7.20598289478403       -0.70597403612673       -4.75249696998857
C            7.07588164310881        0.58201569080067       -4.27702513079254
C            6.30036038085660        3.23770578391250       -2.70339146814210
C            5.12526804686876        3.69140018154718       -3.57696555182402
C            3.78595173106987        3.68908607509645       -2.84456603617074
Si           3.52985888305884        5.03094518561667       -1.47209070662684
C            4.48395183927583        6.60636414328657       -1.94737276774642
C            1.65881995317401        5.33232248590282       -1.35592209094506
C            4.14677612669257        4.41113288887268        0.23288432125317
H            2.08645110586092        1.83928048603757        2.90023146794878
H            3.99825509398347        0.42416738360093        2.27498594658178
H            2.49142932429127        0.16281174803708       -1.72004554380229
H            0.59116077914089        1.59288286908347       -1.09771910651129
H            5.24025669539065       -0.79949140577786        0.65485145960086
H            4.27525978718667       -1.54888431268822       -0.63276488845268
H            5.11502224710068        2.11874010363563       -0.46138293489888
H            5.67262399924187       -2.51352663988731       -2.30560495548006
H            6.83260223125967       -2.79247476037763       -4.46205124572267
H            7.70910554217280       -0.87373675270276       -5.69119130413548
H            7.46660636310799        1.42396756683883       -4.82428435651462
H            6.35233323026726        3.85144927784647       -1.80382383921625
H            7.23919620371274        3.32415528257704       -3.25330342661780
H            5.34335887927221        4.69845176226196       -3.92891253200579
H            5.07136437151414        3.03811996605165       -4.45245061811808
H            3.01510610312197        3.86354655512953       -3.59502466628431
H            3.58276505735313        2.69108048905719       -2.44809101172049
H            4.21614612868846        6.94797395278365       -2.94254539722443
H            4.24687026831543        7.41136913521054       -1.25911814195151
H            5.56161664827065        6.47155291502031       -1.92297563352684
H            1.10883471396027        4.40939458415312       -1.20038349155160
H            1.41845774717047        5.99271907614961       -0.52901030273715
H            1.27307119978791        5.79256875981490       -2.26029182712261
H            3.68417198941054        3.46977031374206        0.51958235775992
H            5.22674088961021        4.30487019552619        0.29704496409408
H            3.86529600346621        5.13591467191899        0.99015938061037

          :  Hamiltonian                  GFN2-xTB          :
         :: total energy             -67.380491303798 Eh    ::
         :: gradient norm              0.000434616699 Eh/a0 ::
         :: HOMO-LUMO gap              2.231051512959 eV    ::
         :: SCC energy               -68.452760535227 Eh    ::
         :: -> dispersion             -0.059190740304 Eh    ::
         :: repulsion energy           1.072269231429 Eh    ::

    * Orbital Energies and Occupations

         #    Occupation            Energy/Eh            Energy/eV
      -------------------------------------------------------------
         1        2.0000           -0.9215805             -25.0775
       ...           ...                  ...                  ...
        51        2.0000           -0.5523868             -15.0312
        52        2.0000           -0.5509870             -14.9931
        53        2.0000           -0.5504848             -14.9795
        54        2.0000           -0.5483969             -14.9226
        55        2.0000           -0.5463177             -14.8661
        56        2.0000           -0.5444835             -14.8161
        57        2.0000           -0.5387212             -14.6593
        58        2.0000           -0.5352064             -14.5637
        59        2.0000           -0.4981164             -13.5544
        60        2.0000           -0.4979777             -13.5507
        61        2.0000           -0.4936472             -13.4328
        62        2.0000           -0.4931124             -13.4183
        63        2.0000           -0.4911676             -13.3654 (HOMO)
        64                         -0.4091780             -11.1343 (LUMO)
        65                         -0.3622099              -9.8562
        66                         -0.3596071              -9.7854
        67                         -0.3537032              -9.6248
        68                         -0.3516002              -9.5675
        69                         -0.2924114              -7.9569
        70                         -0.2388979              -6.5007
        71                         -0.2360584              -6.4235
        72                         -0.2350132              -6.3950
        73                         -0.2336930              -6.3591
        74                         -0.2268100              -6.1718
       ...                                ...                  ...
       132                          0.5436533              14.7936
      -------------------------------------------------------------
                  HL-Gap            0.0819896 Eh            2.2311 eV

     #   Z          covCN         q      C6AA      α(0)
     1  35 Br       1.065    -0.125   188.470    22.135
     2   6 C        2.915     0.089    26.026     8.366
     3   6 C        2.989    -0.031    28.754     8.796
     4   6 C        2.924    -0.035    28.881     8.813
     5   6 C        2.971    -0.005    28.151     8.703
     6   6 C        2.925    -0.037    28.924     8.820
     7   6 C        2.990    -0.033    28.808     8.804
     8   6 C        3.747    -0.022    21.025     6.540
     9   7 N        2.830     0.027    20.772     6.769
    10   6 C        3.079     0.064    26.489     8.438
    11   7 N        2.827     0.038    20.570     6.736
    12   6 C        3.124     0.040    26.919     8.496
    13   6 C        3.117     0.039    26.964     8.505
    14   6 C        2.908    -0.034    28.835     8.805
    15   6 C        2.925    -0.018    28.459     8.749
    16   6 C        2.925    -0.019    28.475     8.751
    17   6 C        2.908    -0.032    28.792     8.799
    18   6 C        3.743    -0.025    21.089     6.551
    19   6 C        3.806    -0.069    21.811     6.648
    20   6 C        3.693    -0.174    24.084     7.022
    21  14 Si       3.494     0.484   101.201    19.479
    22   6 C        3.649    -0.212    25.093     7.196
    23   6 C        3.650    -0.213    25.111     7.198
    24   6 C        3.647    -0.212    25.092     7.198
    25   1 H        0.926     0.076     2.016     2.220
    26   1 H        0.926     0.057     2.230     2.335
    27   1 H        0.926     0.046     2.375     2.410
    28   1 H        0.926     0.071     2.070     2.250
    29   1 H        0.924     0.084     1.936     2.176
    30   1 H        0.924     0.091     1.873     2.140
    31   1 H        0.926     0.113     1.670     2.021
    32   1 H        0.926     0.068     2.105     2.269
    33   1 H        0.926     0.079     1.988     2.205
    34   1 H        0.926     0.079     1.988     2.205
    35   1 H        0.926     0.071     2.075     2.252
    36   1 H        0.924     0.080     1.983     2.202
    37   1 H        0.924     0.081     1.968     2.194
    38   1 H        0.925     0.066     2.129     2.282
    39   1 H        0.924     0.046     2.370     2.407
    40   1 H        0.925     0.044     2.401     2.423
    41   1 H        0.924     0.007     2.941     2.682
    42   1 H        0.925     0.044     2.393     2.419
    43   1 H        0.925     0.050     2.323     2.384
    44   1 H        0.925     0.036     2.498     2.472
    45   1 H        0.925     0.042     2.417     2.431
    46   1 H        0.925     0.050     2.324     2.384
    47   1 H        0.925     0.047     2.353     2.399
    48   1 H        0.925     0.016     2.796     2.615
    49   1 H        0.925     0.021     2.720     2.579
    50   1 H        0.925     0.047     2.363     2.404

Wiberg/Mayer (AO) data.
largest (>0.10) Wiberg bond orders for each atom

     #   Z sym  total        # sym  WBO       # sym  WBO       # sym  WBO
 ---------------------------------------------------------------------------
     1  35 Br   1.169 --     2 C    1.016
     2   6 C    3.948 --     3 C    1.404     7 C    1.394     1 Br   1.016
     3   6 C    3.987 --     4 C    1.441     2 C    1.404    25 H    0.965
                             6 C    0.108
     4   6 C    3.989 --     3 C    1.441     5 C    1.414    26 H    0.965
                             7 C    0.106
     5   6 C    3.982 --     4 C    1.414     6 C    1.401     8 C    0.995
     6   6 C    3.991 --     7 C    1.455     5 C    1.401    27 H    0.967
                             3 C    0.108
     7   6 C    3.989 --     6 C    1.455     2 C    1.394    28 H    0.965
                             4 C    0.106
     8   6 C    3.944 --     5 C    0.995     9 N    0.961    30 H    0.956
                            29 H    0.955
     9   7 N    3.674 --    10 C    1.360    13 C    1.129     8 C    0.961
                            11 N    0.100
    10   6 C    3.951 --    11 N    1.376     9 N    1.360    31 H    0.942
    11   7 N    3.688 --    10 C    1.376    12 C    1.128    18 C    0.970
                             9 N    0.100
    12   6 C    3.953 --    17 C    1.339    13 C    1.271    11 N    1.128
    13   6 C    3.952 --    14 C    1.339    12 C    1.271     9 N    1.129
    14   6 C    3.986 --    15 C    1.495    13 C    1.339    32 H    0.963
                            17 C    0.119
    15   6 C    3.985 --    14 C    1.495    16 C    1.377    33 H    0.966
    16   6 C    3.986 --    17 C    1.496    15 C    1.377    34 H    0.966
    17   6 C    3.986 --    16 C    1.496    12 C    1.339    35 H    0.963
                            14 C    0.119
    18   6 C    3.939 --    19 C    0.981    11 N    0.970    37 H    0.964
                            36 H    0.964
    19   6 C    3.983 --    20 C    1.025    18 C    0.981    39 H    0.974
                            38 H    0.970
    20   6 C    3.962 --    19 C    1.025    40 H    0.980    41 H    0.979
                            21 Si   0.837
    21  14 Si   3.617 --    23 C    0.915    22 C    0.909    24 C    0.881
                            20 C    0.837
    22   6 C    3.982 --    42 H    0.985    43 H    0.984    44 H    0.984
                            21 Si   0.909
    23   6 C    3.983 --    46 H    0.984    47 H    0.983    45 H    0.981
                            21 Si   0.915
    24   6 C    3.974 --    50 H    0.987    49 H    0.986    48 H    0.985
                            21 Si   0.881
    25   1 H    0.994 --     3 C    0.965
    26   1 H    0.997 --     4 C    0.965
    27   1 H    0.998 --     6 C    0.967
    28   1 H    0.995 --     7 C    0.965
    29   1 H    0.991 --     8 C    0.955
    30   1 H    0.990 --     8 C    0.956
    31   1 H    0.986 --    10 C    0.942
    32   1 H    0.995 --    14 C    0.963
    33   1 H    0.993 --    15 C    0.966
    34   1 H    0.993 --    16 C    0.966
    35   1 H    0.994 --    17 C    0.963
    36   1 H    0.993 --    18 C    0.964
    37   1 H    0.993 --    18 C    0.964
    38   1 H    0.994 --    19 C    0.970
    39   1 H    0.998 --    19 C    0.974
    40   1 H    0.998 --    20 C    0.980
    41   1 H    1.000 --    20 C    0.979
    42   1 H    0.998 --    22 C    0.985
    43   1 H    0.998 --    22 C    0.984
    44   1 H    0.999 --    22 C    0.984
    45   1 H    0.998 --    23 C    0.981
    46   1 H    0.997 --    23 C    0.984
    47   1 H    0.998 --    23 C    0.983
    48   1 H    1.000 --    24 C    0.985
    49   1 H    1.000 --    24 C    0.986
    50   1 H    0.998 --    24 C    0.987
 ---------------------------------------------------------------------------

molecular dipole:
                 x           y           z       tot (Debye)
 q only:       10.538       2.173      -3.838
   full:       10.663       1.959      -3.721      29.134

           -------------------------------------------------
          | TOTAL ENERGY              -67.380491303798 Eh   |
          | GRADIENT NORM               0.000434616699 Eh/α |
          | HOMO-LUMO GAP               2.231051512959 eV   |
           -------------------------------------------------

 * finished run on 2024/12/20 at 06:41:34.854
