   * xtb version 6.7.1 (edcfbbe) compiled by 'conda@3ef47c1a292c' on 2024-11-25

   ID    Z sym.   atoms
    1    8 O      1
    2    6 C      2-9, 11-16, 18, 19, 21-27
    3    7 N      10, 17, 20
    4    1 H      28-49

          program call               : xtb C0352.xyz --opt --namespace C0352 --charge +1
          :  Hamiltonian                  GFN2-xTB          :
 * total energy  :   -72.8758067 Eh     change       -0.5284306E-09 Eh
 * total energy  :   -72.8895215 Eh     change       -0.1371480E-01 Eh
 * total energy  :   -72.8939549 Eh     change       -0.4433412E-02 Eh
 * total energy  :   -72.8950402 Eh     change       -0.1085239E-02 Eh
 * total energy  :   -72.8961668 Eh     change       -0.1126600E-02 Eh
 * total energy  :   -72.8969298 Eh     change       -0.7630179E-03 Eh
 * total energy  :   -72.8977512 Eh     change       -0.8214266E-03 Eh
 * total energy  :   -72.8984449 Eh     change       -0.6936753E-03 Eh
 * total energy  :   -72.8989116 Eh     change       -0.4667372E-03 Eh
 * total energy  :   -72.8991475 Eh     change       -0.2358292E-03 Eh
 * total energy  :   -72.9019573 Eh     change       -0.5965728E-05 Eh
 * total energy  :   -72.9019675 Eh     change       -0.1016511E-04 Eh
 * total energy  :   -72.9019673 Eh     change        0.1907496E-06 Eh
 * total energy  :   -72.9019732 Eh     change       -0.5898027E-05 Eh
 * total energy  :   -72.9019806 Eh     change       -0.7401216E-05 Eh
 * total energy  :   -72.9019866 Eh     change       -0.6040087E-05 Eh
 * total energy  :   -72.9020014 Eh     change       -0.1479334E-04 Eh
 * total energy  :   -72.9020089 Eh     change       -0.7410561E-05 Eh
 * total energy  :   -72.9020136 Eh     change       -0.4744221E-05 Eh
   *** GEOMETRY OPTIMIZATION CONVERGED AFTER 80 ITERATIONS ***

 final structure:
================
49
 xtb: 6.7.1 (edcfbbe)
O            5.27617758300463       -1.27557531774198       -0.45348314390794
C            5.41428288460207       -0.13250287880576       -0.08798329891841
C            5.63404221091356        0.98543766746952       -1.00871282620382
C            6.18636710727843        0.68387619007313       -2.25900408802260
C            6.42224740546705        1.68510577595787       -3.17908890006133
C            6.08887608149243        2.99632565687141       -2.87475117578983
C            5.51549119957823        3.30143820981600       -1.64887719660802
C            5.29481719393459        2.30820010416646       -0.71455567658406
C            5.36920115266853        0.16710774973140        1.43742155995237
N            4.00619028241268        0.25409381870007        1.90461992616439
C            3.38403149090114        1.39648080613364        2.37898911303058
C            3.85289043181557        2.67488326242983        2.65628750904210
C            2.94083583011563        3.59013708216580        3.14312933416519
C            1.60284795276149        3.25502648993027        3.35914299448582
C            1.12997235628960        1.98233808313619        3.11231651397395
C            2.04185215013372        1.05811150158852        2.62223116592270
N            1.92118466927741       -0.28465399472581        2.31130304425740
C            3.11054648322994       -0.74441903549477        1.89551710844951
C            3.34196353879937       -2.15307682837108        1.54874843505988
N            0.79862908674795       -1.08486947432584        2.38548768040355
C            0.01358155340176       -1.13508290443617        1.14311439093599
C           -1.13099364058826       -2.08799091647142        1.35277578394752
C           -2.34215897547072       -1.62717817670446        1.85244734762225
C           -3.38961292767417       -2.50564087245958        2.06664176938588
C           -3.23202471229150       -3.85243309545164        1.78709223213821
C           -2.02519560982474       -4.31859559963499        1.29310378259166
C           -0.97756980285075       -3.44066975315045        1.07951857058347
H            6.43700539233419       -0.34290749687893       -2.47795327410243
H            6.86170891970772        1.44526036666154       -4.13454687527208
H            6.26844597048914        3.78054513592671       -3.59376620444602
H            5.23960363882662        4.31989165902879       -1.42183198920004
H            4.81930634032938        2.56274700353268        0.21987469116139
H            5.87227719009916       -0.66688088933669        1.93755599029656
H            5.88813800249468        1.09343246893339        1.67501176087764
H            4.88694804019049        2.95002159317963        2.52359709515099
H            3.27208367499683        4.59076518397676        3.37006111654281
H            0.92869751752286        4.00603536125001        3.73793497114847
H            0.10002287527699        1.72158625937174        3.29651041244722
H            2.54091693388856       -2.75499835962635        1.97355674951958
H            3.36399150202811       -2.29970087947233        0.46814808977184
H            4.30619084604317       -2.48846403267850        1.92629643310940
H            0.21095975715276       -0.79433273262373        3.16359299274713
H           -0.35977962139390       -0.13996777333118        0.86268064931069
H            0.67279501524989       -1.49962966095722        0.35214254583631
H           -2.47471414062018       -0.57439327056766        2.06104022067151
H           -4.32961788868796       -2.13749656784948        2.44799795356794
H           -4.04996070406457       -4.53678015685014        1.95011565538034
H           -1.90032859053513       -5.36715932009114        1.07101428830459
H           -0.03917364742275       -3.80561744193184        0.68866477118953

          :  Hamiltonian                  GFN2-xTB          :
         :: total energy             -72.902013596490 Eh    ::
         :: gradient norm              0.000382383640 Eh/a0 ::
         :: HOMO-LUMO gap              2.477307088780 eV    ::
         :: SCC energy               -74.127570097238 Eh    ::
         :: -> dispersion             -0.054308849404 Eh    ::
         :: repulsion energy           1.225556500747 Eh    ::

    * Orbital Energies and Occupations

         #    Occupation            Energy/Eh            Energy/eV
      -------------------------------------------------------------
         1        2.0000           -0.8703718             -23.6840
       ...           ...                  ...                  ...
        55        2.0000           -0.5646637             -15.3653
        56        2.0000           -0.5497638             -14.9598
        57        2.0000           -0.5438884             -14.8000
        58        2.0000           -0.5413251             -14.7302
        59        2.0000           -0.5316546             -14.4671
        60        2.0000           -0.5219114             -14.2019
        61        2.0000           -0.5211915             -14.1823
        62        2.0000           -0.5183964             -14.1063
        63        2.0000           -0.5148202             -14.0090
        64        2.0000           -0.5131021             -13.9622
        65        2.0000           -0.5102190             -13.8838
        66        2.0000           -0.4942695             -13.4498
        67        2.0000           -0.4933976             -13.4260 (HOMO)
        68                         -0.4023583             -10.9487 (LUMO)
        69                         -0.4002424             -10.8911
        70                         -0.3581740              -9.7464
        71                         -0.3492804              -9.5044
        72                         -0.3354738              -9.1287
        73                         -0.3180309              -8.6541
        74                         -0.3135406              -8.5319
        75                         -0.3125159              -8.5040
        76                         -0.2334058              -6.3513
        77                         -0.2035962              -5.5401
        78                         -0.1986385              -5.4052
       ...                                ...                  ...
       130                          0.5750917              15.6490
      -------------------------------------------------------------
                  HL-Gap            0.0910394 Eh            2.4773 eV

     #   Z          covCN         q      C6AA      α(0)
     1   8 O        0.858    -0.342    20.556     6.079
     2   6 C        2.820     0.224    23.284     7.906
     3   6 C        2.970    -0.017    28.441     8.748
     4   6 C        2.927    -0.011    28.288     8.722
     5   6 C        2.916    -0.018    28.457     8.748
     6   6 C        2.920    -0.010    28.264     8.718
     7   6 C        2.918    -0.022    28.554     8.763
     8   6 C        2.919    -0.030    28.743     8.792
     9   6 C        3.738    -0.041    21.381     6.598
    10   7 N        2.827     0.007    21.129     6.827
    11   6 C        3.093     0.037    27.072     8.528
    12   6 C        2.910    -0.035    28.865     8.810
    13   6 C        2.925    -0.021    28.527     8.759
    14   6 C        2.926    -0.020    28.519     8.758
    15   6 C        2.909    -0.033    28.812     8.802
    16   6 C        3.082     0.026    27.335     8.571
    17   7 N        2.911     0.074    19.947     6.633
    18   6 C        3.061     0.120    25.304     8.249
    19   6 C        3.755    -0.138    23.213     6.870
    20   7 N        2.759    -0.179    24.867     7.406
    21   6 C        3.744    -0.001    20.666     6.485
    22   6 C        2.974     0.000    28.020     8.683
    23   6 C        2.924    -0.036    28.901     8.816
    24   6 C        2.919    -0.025    28.616     8.772
    25   6 C        2.921    -0.023    28.567     8.765
    26   6 C        2.919    -0.024    28.592     8.769
    27   6 C        2.924    -0.034    28.840     8.807
    28   1 H        0.926     0.071     2.075     2.252
    29   1 H        0.926     0.064     2.151     2.293
    30   1 H        0.926     0.063     2.159     2.298
    31   1 H        0.926     0.054     2.270     2.356
    32   1 H        0.926     0.035     2.517     2.481
    33   1 H        0.924     0.094     1.840     2.121
    34   1 H        0.925     0.088     1.896     2.153
    35   1 H        0.926     0.064     2.150     2.293
    36   1 H        0.926     0.076     2.022     2.223
    37   1 H        0.926     0.076     2.018     2.221
    38   1 H        0.926     0.064     2.155     2.296
    39   1 H        0.925     0.105     1.736     2.061
    40   1 H        0.924     0.124     1.585     1.969
    41   1 H        0.925     0.105     1.744     2.065
    42   1 H        0.860     0.178     1.227     1.735
    43   1 H        0.923     0.032     2.560     2.502
    44   1 H        0.924     0.054     2.268     2.355
    45   1 H        0.925     0.031     2.573     2.508
    46   1 H        0.926     0.049     2.333     2.388
    47   1 H        0.926     0.052     2.292     2.368
    48   1 H        0.926     0.050     2.315     2.379
    49   1 H        0.926     0.038     2.469     2.457

Wiberg/Mayer (AO) data.
largest (>0.10) Wiberg bond orders for each atom

     #   Z sym  total        # sym  WBO       # sym  WBO       # sym  WBO
 ---------------------------------------------------------------------------
     1   8 O    2.092 --     2 C    1.831
     2   6 C    3.927 --     1 O    1.831     3 C    1.066     9 C    0.921
     3   6 C    3.986 --     8 C    1.362     4 C    1.355     2 C    1.066
     4   6 C    3.984 --     5 C    1.461     3 C    1.355    28 H    0.965
                             7 C    0.102
     5   6 C    3.989 --     4 C    1.461     6 C    1.428    29 H    0.967
                             8 C    0.104
     6   6 C    3.986 --     5 C    1.428     7 C    1.423    30 H    0.969
     7   6 C    3.991 --     8 C    1.465     6 C    1.423    31 H    0.969
                             4 C    0.102
     8   6 C    3.991 --     7 C    1.465     3 C    1.362    32 H    0.963
                             5 C    0.104
     9   6 C    3.944 --    10 N    0.978    34 H    0.965    33 H    0.952
                             2 C    0.921
    10   7 N    3.649 --    18 C    1.312    11 C    1.113     9 C    0.978
    11   6 C    3.951 --    12 C    1.345    16 C    1.274    10 N    1.113
    12   6 C    3.985 --    13 C    1.485    11 C    1.345    35 H    0.960
                            15 C    0.117
    13   6 C    3.982 --    12 C    1.485    14 C    1.386    36 H    0.967
    14   6 C    3.984 --    15 C    1.485    13 C    1.386    37 H    0.967
    15   6 C    3.984 --    14 C    1.485    16 C    1.348    38 H    0.964
                            12 C    0.117
    16   6 C    3.955 --    15 C    1.348    11 C    1.274    17 N    1.104
    17   7 N    3.668 --    18 C    1.307    16 C    1.104    20 N    1.019
    18   6 C    3.949 --    10 N    1.312    17 N    1.307    19 C    1.060
    19   6 C    3.970 --    18 C    1.060    39 H    0.963    41 H    0.951
                            40 H    0.928
    20   7 N    3.072 --    17 N    1.019    21 C    0.957    42 H    0.938
    21   6 C    3.962 --    22 C    0.997    44 H    0.971    43 H    0.969
                            20 N    0.957
    22   6 C    3.983 --    23 C    1.415    27 C    1.413    21 C    0.997
                            25 C    0.109
    23   6 C    3.991 --    24 C    1.443    22 C    1.415    45 H    0.969
                            26 C    0.111
    24   6 C    3.991 --    23 C    1.443    25 C    1.440    46 H    0.970
                            27 C    0.111
    25   6 C    3.989 --    24 C    1.440    26 C    1.438    47 H    0.970
                            22 C    0.109
    26   6 C    3.991 --    27 C    1.445    25 C    1.438    48 H    0.970
                            23 C    0.111
    27   6 C    3.991 --    26 C    1.445    22 C    1.413    49 H    0.969
                            24 C    0.111
    28   1 H    0.995 --     4 C    0.965
    29   1 H    0.995 --     5 C    0.967
    30   1 H    0.996 --     6 C    0.969
    31   1 H    0.996 --     7 C    0.969
    32   1 H    0.999 --     8 C    0.963
    33   1 H    0.990 --     9 C    0.952
    34   1 H    0.992 --     9 C    0.965
    35   1 H    0.995 --    12 C    0.960
    36   1 H    0.994 --    13 C    0.967
    37   1 H    0.994 --    14 C    0.967
    38   1 H    0.995 --    15 C    0.964
    39   1 H    0.988 --    19 C    0.963
    40   1 H    0.980 --    19 C    0.928
    41   1 H    0.987 --    19 C    0.951
    42   1 H    0.968 --    20 N    0.938
    43   1 H    0.999 --    21 C    0.969
    44   1 H    0.997 --    21 C    0.971
    45   1 H    0.999 --    23 C    0.969
    46   1 H    0.997 --    24 C    0.970
    47   1 H    0.997 --    25 C    0.970
    48   1 H    0.997 --    26 C    0.970
    49   1 H    0.999 --    27 C    0.969
 ---------------------------------------------------------------------------

molecular dipole:
                 x           y           z       tot (Debye)
 q only:        5.300       1.024       2.993
   full:        5.264       1.435       3.124      15.979

           -------------------------------------------------
          | TOTAL ENERGY              -72.902013596490 Eh   |
          | GRADIENT NORM               0.000382383640 Eh/α |
          | HOMO-LUMO GAP               2.477307088780 eV   |
           -------------------------------------------------

 * finished run on 2024/12/20 at 06:41:38.313
