   * xtb version 6.7.1 (edcfbbe) compiled by 'conda@3ef47c1a292c' on 2024-11-25

   ID    Z sym.   atoms
    1    6 C      1-6, 8-10, 12, 13
    2    7 N      7
    3    8 O      11
    4    1 H      14-39

          program call               : xtb C0353.xyz --opt --namespace C0353 --charge +1
          :  Hamiltonian                  GFN2-xTB          :
 * total energy  :   -43.3993282 Eh     change       -0.6736656E-10 Eh
 * total energy  :   -43.4063255 Eh     change       -0.6997257E-02 Eh
 * total energy  :   -43.4081972 Eh     change       -0.1871725E-02 Eh
 * total energy  :   -43.4084759 Eh     change       -0.2787257E-03 Eh
 * total energy  :   -43.4088991 Eh     change       -0.4232300E-03 Eh
 * total energy  :   -43.4090941 Eh     change       -0.1949167E-03 Eh
 * total energy  :   -43.4093427 Eh     change       -0.2486510E-03 Eh
 * total energy  :   -43.4094875 Eh     change       -0.1447415E-03 Eh
 * total energy  :   -43.4095748 Eh     change       -0.8730114E-04 Eh
 * total energy  :   -43.4096384 Eh     change       -0.6362724E-04 Eh
 * total energy  :   -43.4101068 Eh     change       -0.3300525E-04 Eh
 * total energy  :   -43.4101285 Eh     change       -0.2167862E-04 Eh
 * total energy  :   -43.4101407 Eh     change       -0.1227288E-04 Eh
 * total energy  :   -43.4101392 Eh     change        0.1557343E-05 Eh
 * total energy  :   -43.4101500 Eh     change       -0.1079656E-04 Eh
 * total energy  :   -43.4101574 Eh     change       -0.7426640E-05 Eh
 * total energy  :   -43.4101642 Eh     change       -0.6812934E-05 Eh
 * total energy  :   -43.4101727 Eh     change       -0.8476666E-05 Eh
 * total energy  :   -43.4101777 Eh     change       -0.4973971E-05 Eh
   *** GEOMETRY OPTIMIZATION CONVERGED AFTER 26 ITERATIONS ***

 final structure:
================
39
 xtb: 6.7.1 (edcfbbe)
C            0.58624051947972        0.06431070593199        0.21584446706502
C            0.32532271026857        0.35002197838876       -1.25828102659932
C            1.16491047580550       -0.51958410901588       -2.19701538440411
C            0.93693344834021       -2.02794097105003       -2.06609882549724
C           -0.51883578888437       -2.50546890307807       -2.23040060632275
C           -1.21461215648417       -2.03326355445944       -3.53549558409869
N           -1.12806347623509       -2.91239815608696       -4.73899305934831
C           -2.06576338175864       -4.04618594085658       -4.61337517023767
C           -1.51230642042268       -2.11367476337299       -5.91927486622527
C            0.23384576128011       -3.43463328142456       -4.93977636820455
O           -0.61833078214069       -3.91424729827348       -2.14200959348181
C           -0.55998813136015       -4.46663095065539       -0.83081575492027
C           -0.96326054090143       -5.92899591044759       -0.91659702726394
H            0.25728229470885       -0.93361921958924        0.49580728861941
H            0.04975077699479        0.77888357446032        0.83384181929785
H            1.64672038476388        0.15336721967693        0.43732375576928
H           -0.73871167687745        0.22703003211698       -1.47438754992662
H            0.57601537487414        1.39294698626094       -1.46017803121813
H            0.99929475183027       -0.19342025295137       -3.22780152783801
H            2.21886819502659       -0.33641934789858       -1.98039119478297
H            1.58571960014502       -2.54810521974517       -2.77092059691935
H            1.25395007297438       -2.33075051786660       -1.06778942577932
H           -1.10317194972857       -2.05822596923997       -1.41065960513629
H           -2.27788247391881       -1.89676011506195       -3.32968620695186
H           -0.79171978626120       -1.06150863344670       -3.79139399233068
H           -3.08989494734843       -3.68222572497347       -4.55974767560143
H           -1.97168942604334       -4.70312988873704       -5.47554726374988
H           -1.83314641428413       -4.60108605724210       -3.70692596347121
H           -0.78823203589174       -1.31981197681363       -6.09561462311912
H           -1.54992351257374       -2.75026744617925       -6.80178897771998
H           -2.49380837515235       -1.66593220253089       -5.77221685080709
H            0.94324108869820       -2.61238097689889       -5.00634588345251
H            0.49534497349060       -4.08225994411385       -4.10557624193815
H            0.27680368565847       -4.00958187138371       -5.86324358110321
H            0.45683700395613       -4.37980635994731       -0.43027834731824
H           -1.24444326981033       -3.91527238290353       -0.17260228599165
H           -0.29813031769159       -6.46423983127461       -1.58932803294759
H           -0.89948621423139       -6.37932988946574        0.06879187074719
H           -1.98403004029429       -6.02431282984901       -1.27892207679097

          :  Hamiltonian                  GFN2-xTB          :
         :: total energy             -43.410177678634 Eh    ::
         :: gradient norm              0.000435147988 Eh/a0 ::
         :: HOMO-LUMO gap              8.033321181734 eV    ::
         :: SCC energy               -43.977878324611 Eh    ::
         :: -> dispersion             -0.029550495741 Eh    ::
         :: repulsion energy           0.567700645976 Eh    ::

    * Orbital Energies and Occupations

         #    Occupation            Energy/Eh            Energy/eV
      -------------------------------------------------------------
         1        2.0000           -0.8599143             -23.3995
       ...           ...                  ...                  ...
        28        2.0000           -0.6149004             -16.7323
        29        2.0000           -0.6067717             -16.5111
        30        2.0000           -0.5968221             -16.2404
        31        2.0000           -0.5816053             -15.8263
        32        2.0000           -0.5771879             -15.7061
        33        2.0000           -0.5735187             -15.6062
        34        2.0000           -0.5695673             -15.4987
        35        2.0000           -0.5620189             -15.2933
        36        2.0000           -0.5568168             -15.1518
        37        2.0000           -0.5414538             -14.7337
        38        2.0000           -0.5334213             -14.5151
        39        2.0000           -0.5290155             -14.3952
        40        2.0000           -0.5204510             -14.1622 (HOMO)
        41                         -0.2252319              -6.1289 (LUMO)
        42                         -0.1584995              -4.3130
        43                         -0.1521745              -4.1409
        44                         -0.1360157              -3.7012
        45                         -0.1249826              -3.4009
        46                         -0.0697480              -1.8979
        47                         -0.0564507              -1.5361
        48                         -0.0464478              -1.2639
        49                         -0.0249741              -0.6796
        50                         -0.0202961              -0.5523
        51                         -0.0060654              -0.1650
       ...                                ...                  ...
        78                          0.1984371               5.3997
      -------------------------------------------------------------
                  HL-Gap            0.2952191 Eh            8.0333 eV

     #   Z          covCN         q      C6AA      α(0)
     1   6 C        3.752    -0.110    22.656     6.788
     2   6 C        3.799    -0.059    21.646     6.624
     3   6 C        3.800    -0.067    21.781     6.645
     4   6 C        3.799    -0.085    22.122     6.697
     5   6 C        3.734     0.108    18.897     6.204
     6   6 C        3.760    -0.050    21.513     6.612
     7   7 N        3.622     0.153    18.656     6.415
     8   6 C        3.724    -0.106    22.635     6.794
     9   6 C        3.730    -0.098    22.480     6.768
    10   6 C        3.721    -0.100    22.536     6.780
    11   8 O        1.699    -0.339    19.697     5.992
    12   6 C        3.686     0.082    19.395     6.305
    13   6 C        3.751    -0.118    22.831     6.814
    14   1 H        0.925     0.032     2.556     2.500
    15   1 H        0.925     0.049     2.337     2.391
    16   1 H        0.925     0.047     2.351     2.398
    17   1 H        0.924     0.022     2.704     2.571
    18   1 H        0.924     0.047     2.353     2.399
    19   1 H        0.924     0.021     2.721     2.580
    20   1 H        0.924     0.058     2.222     2.331
    21   1 H        0.925     0.046     2.368     2.406
    22   1 H        0.924     0.064     2.153     2.295
    23   1 H        0.923     0.052     2.292     2.368
    24   1 H        0.924     0.085     1.927     2.171
    25   1 H        0.924     0.095     1.829     2.115
    26   1 H        0.925     0.092     1.857     2.131
    27   1 H        0.925     0.094     1.840     2.121
    28   1 H        0.925     0.131     1.530     1.934
    29   1 H        0.925     0.096     1.819     2.109
    30   1 H        0.925     0.101     1.775     2.084
    31   1 H        0.925     0.097     1.813     2.106
    32   1 H        0.925     0.096     1.823     2.111
    33   1 H        0.925     0.123     1.590     1.972
    34   1 H        0.925     0.094     1.839     2.121
    35   1 H        0.924     0.036     2.503     2.474
    36   1 H        0.923     0.032     2.562     2.503
    37   1 H        0.925     0.059     2.216     2.328
    38   1 H        0.925     0.065     2.140     2.287
    39   1 H        0.925     0.055     2.262     2.352

Wiberg/Mayer (AO) data.
largest (>0.10) Wiberg bond orders for each atom

     #   Z sym  total        # sym  WBO       # sym  WBO       # sym  WBO
 ---------------------------------------------------------------------------
     1   6 C    3.995 --     2 C    1.021    16 H    0.986    14 H    0.986
                            15 H    0.986
     2   6 C    3.997 --     1 C    1.021     3 C    1.007    17 H    0.977
                            18 H    0.976
     3   6 C    3.994 --     2 C    1.007     4 C    1.005    20 H    0.973
                            19 H    0.971
     4   6 C    3.990 --     3 C    1.005     5 C    0.983    21 H    0.972
                            22 H    0.967
     5   6 C    3.949 --     4 C    0.983    11 O    0.979     6 C    0.978
                            23 H    0.950
     6   6 C    3.933 --     5 C    0.978    24 H    0.970    25 H    0.959
                             7 N    0.935
     7   7 N    3.820 --     9 C    0.959    10 C    0.956     8 C    0.953
                             6 C    0.935
     8   6 C    3.916 --    26 H    0.976    27 H    0.976    28 H    0.958
                             7 N    0.953
     9   6 C    3.930 --    31 H    0.976    29 H    0.975    30 H    0.974
                             7 N    0.959
    10   6 C    3.921 --    34 H    0.975    32 H    0.975    33 H    0.964
                             7 N    0.956
    11   8 O    2.072 --     5 C    0.979    12 C    0.954
    12   6 C    3.939 --    13 C    1.017    35 H    0.970    36 H    0.969
                            11 O    0.954
    13   6 C    3.990 --    12 C    1.017    39 H    0.985    37 H    0.985
                            38 H    0.981
    14   1 H    0.999 --     1 C    0.986
    15   1 H    0.998 --     1 C    0.986
    16   1 H    0.998 --     1 C    0.986
    17   1 H    1.000 --     2 C    0.977
    18   1 H    0.998 --     2 C    0.976
    19   1 H    1.000 --     3 C    0.971
    20   1 H    0.997 --     3 C    0.973
    21   1 H    0.998 --     4 C    0.972
    22   1 H    0.996 --     4 C    0.967
    23   1 H    0.997 --     5 C    0.950
    24   1 H    0.993 --     6 C    0.970
    25   1 H    0.991 --     6 C    0.959
    26   1 H    0.991 --     8 C    0.976
    27   1 H    0.991 --     8 C    0.976
    28   1 H    0.983 --     8 C    0.958
    29   1 H    0.991 --     9 C    0.975
    30   1 H    0.989 --     9 C    0.974
    31   1 H    0.991 --     9 C    0.976
    32   1 H    0.991 --    10 C    0.975
    33   1 H    0.985 --    10 C    0.964
    34   1 H    0.991 --    10 C    0.975
    35   1 H    0.999 --    12 C    0.970
    36   1 H    0.999 --    12 C    0.969
    37   1 H    0.997 --    13 C    0.985
    38   1 H    0.995 --    13 C    0.981
    39   1 H    0.997 --    13 C    0.985
 ---------------------------------------------------------------------------

molecular dipole:
                 x           y           z       tot (Debye)
 q only:       -1.750      -5.389      -7.888
   full:       -1.789      -5.233      -7.816      24.336

           -------------------------------------------------
          | TOTAL ENERGY              -43.410177678634 Eh   |
          | GRADIENT NORM               0.000435147988 Eh/α |
          | HOMO-LUMO GAP               8.033321181734 eV   |
           -------------------------------------------------

 * finished run on 2024/12/20 at 06:41:39.544
