   * xtb version 6.7.1 (edcfbbe) compiled by 'conda@3ef47c1a292c' on 2024-11-25

   ID    Z sym.   atoms
    1    6 C      1-3, 6-12, 15, 16, 19-25
    2    7 N      4, 17
    3    8 O      5, 18
    4   17 Cl     13, 14, 26, 27
    5    1 H      28-44

          program call               : xtb C0350.xyz --opt --namespace C0350 --charge +1
          :  Hamiltonian                  GFN2-xTB          :
 * total energy  :   -81.0720480 Eh     change       -0.1025569E-08 Eh
 * total energy  :   -81.0809458 Eh     change       -0.8897855E-02 Eh
 * total energy  :   -81.0835850 Eh     change       -0.2639157E-02 Eh
 * total energy  :   -81.0840626 Eh     change       -0.4775601E-03 Eh
 * total energy  :   -81.0844459 Eh     change       -0.3833103E-03 Eh
 * total energy  :   -81.0846251 Eh     change       -0.1791973E-03 Eh
 * total energy  :   -81.0847972 Eh     change       -0.1721644E-03 Eh
 * total energy  :   -81.0849741 Eh     change       -0.1768242E-03 Eh
 * total energy  :   -81.0851779 Eh     change       -0.2038492E-03 Eh
 * total energy  :   -81.0853702 Eh     change       -0.1922630E-03 Eh
 * total energy  :   -81.0889130 Eh     change       -0.1387123E-04 Eh
 * total energy  :   -81.0889312 Eh     change       -0.1823647E-04 Eh
 * total energy  :   -81.0889532 Eh     change       -0.2203032E-04 Eh
 * total energy  :   -81.0889771 Eh     change       -0.2388676E-04 Eh
 * total energy  :   -81.0889990 Eh     change       -0.2192294E-04 Eh
 * total energy  :   -81.0890157 Eh     change       -0.1662624E-04 Eh
 * total energy  :   -81.0890275 Eh     change       -0.1184580E-04 Eh
 * total energy  :   -81.0890379 Eh     change       -0.1033587E-04 Eh
 * total energy  :   -81.0890418 Eh     change       -0.3902339E-05 Eh
   *** GEOMETRY OPTIMIZATION CONVERGED AFTER 68 ITERATIONS ***

 final structure:
================
44
 xtb: 6.7.1 (edcfbbe)
C            1.88820397445639       -0.85001880294423       -0.20410286265252
C            0.61769654227661       -1.35709317295464        0.48777974617108
C            0.93793186801660       -2.30638052978710        1.57607315387593
N            0.63325833294011       -3.60957629919795        1.62485489249881
O           -0.10122472735889       -4.19797673211086        0.64341925830437
C            0.02767460696073       -5.61551326688081        0.52096206360297
C            1.44712692920151       -6.11413154288607        0.45066086492311
C            1.86818797415939       -7.15114480537951        1.27768542149890
C            3.15937575041728       -7.63779468402353        1.22487629769033
C            4.06492585127131       -7.07540040472304        0.33359315780762
C            3.67017579173487       -6.04347230319212       -0.50672031754416
C            2.36776977615147       -5.57595189548976       -0.44825022319901
Cl           1.89484029894218       -4.31474881853470       -1.53078658701064
Cl           5.67780813139226       -7.65892931416409        0.26003471885715
C            1.11555241615732       -4.15241850023574        2.77221329074330
C            1.74883824484658       -3.15146080826044        3.44958948701043
N            1.61863500842661       -2.02992117080990        2.69658615524846
O            2.08383640391062       -0.77308784794759        2.93998301826146
C            2.46240145470461       -0.49880924757940        4.29094537439229
C            1.31635251180579       -0.64302464399620        5.25785357124417
C            0.14205983867318        0.06994575567505        5.03217411411701
C           -0.93931563340560       -0.03193683158639        5.88369280307280
C           -0.85304681610848       -0.85697517590726        6.99884117450375
C            0.30727138188310       -1.57706830430261        7.24879469073062
C            1.37767615886035       -1.47144794109214        6.37655058752784
Cl           2.80524548543659       -2.39922921263860        6.72159115794127
Cl          -2.18188001451629       -0.99266308558188        8.07703207941403
H            2.53256097834474       -0.33587867945313        0.50291881772347
H            1.61334567873508       -0.15404146338382       -0.99007652503974
H            2.43543411202234       -1.67516211258110       -0.65045811319478
H            0.07738675187617       -0.50482440619774        0.90650443162132
H           -0.02535666832136       -1.86523295732092       -0.23064956597102
H           -0.51418910094819       -6.11497709762002        1.33219662422237
H           -0.49806517625113       -5.80512717961431       -0.41966117950253
H            1.16424947916090       -7.60061084251162        1.96264528867247
H            3.46507201590563       -8.44861143576518        1.86521556461620
H            4.36799199257257       -5.61753741907089       -1.20923523564046
H            1.00032872175883       -5.18070608260976        3.04057536100604
H            2.25251669767167       -3.18617037778112        4.39520888813475
H            3.31688967199306       -1.11463662141764        4.58578666320527
H            2.78421583513471        0.54390581642466        4.22667816129367
H            0.08720224830961        0.72021562414113        4.17193322068900
H           -1.83983647606892        0.52970087579863        5.69713898752225
H            0.37335569686819       -2.21353605449972        8.11635152157927

          :  Hamiltonian                  GFN2-xTB          :
         :: total energy             -81.089041756178 Eh    ::
         :: gradient norm              0.000384675493 Eh/a0 ::
         :: HOMO-LUMO gap              3.212051807604 eV    ::
         :: SCC energy               -82.041073508064 Eh    ::
         :: -> dispersion             -0.055292029692 Eh    ::
         :: repulsion energy           0.952031751885 Eh    ::

    * Orbital Energies and Occupations

         #    Occupation            Energy/Eh            Energy/eV
      -------------------------------------------------------------
         1        2.0000           -1.1715053             -31.8783
       ...           ...                  ...                  ...
        59        2.0000           -0.5619299             -15.2909
        60        2.0000           -0.5584686             -15.1967
        61        2.0000           -0.5574456             -15.1689
        62        2.0000           -0.5530149             -15.0483
        63        2.0000           -0.5513949             -15.0042
        64        2.0000           -0.5350902             -14.5605
        65        2.0000           -0.5295941             -14.4110
        66        2.0000           -0.5207922             -14.1715
        67        2.0000           -0.5174586             -14.0808
        68        2.0000           -0.5150235             -14.0145
        69        2.0000           -0.5146974             -14.0056
        70        2.0000           -0.5038368             -13.7101
        71        2.0000           -0.5034061             -13.6984 (HOMO)
        72                         -0.3853653             -10.4863 (LUMO)
        73                         -0.3662368              -9.9658
        74                         -0.3620864              -9.8529
        75                         -0.3587049              -9.7609
        76                         -0.3576387              -9.7318
        77                         -0.3564170              -9.6986
        78                         -0.2642331              -7.1901
        79                         -0.2612742              -7.1096
        80                         -0.2568067              -6.9881
        81                         -0.2391368              -6.5072
        82                         -0.2361827              -6.4269
       ...                                ...                  ...
       145                          0.5061072              13.7719
      -------------------------------------------------------------
                  HL-Gap            0.1180407 Eh            3.2121 eV

     #   Z          covCN         q      C6AA      α(0)
     1   6 C        3.754    -0.119    22.836     6.814
     2   6 C        3.803    -0.065    21.743     6.639
     3   6 C        3.070     0.074    26.286     8.407
     4   7 N        2.910     0.185    18.168     6.331
     5   8 O        1.768    -0.191    17.187     5.598
     6   6 C        3.688     0.056    19.826     6.373
     7   6 C        2.995    -0.023    28.560     8.767
     8   6 C        2.927    -0.037    28.914     8.818
     9   6 C        2.952    -0.041    29.007     8.834
    10   6 C        2.888     0.108    25.622     8.299
    11   6 C        2.999    -0.050    29.229     8.869
    12   6 C        2.890     0.092    25.953     8.352
    13  17 Cl       0.967    -0.142   103.605    15.572
    14  17 Cl       0.970    -0.112   102.656    15.501
    15   6 C        3.041    -0.037    28.870     8.813
    16   6 C        3.034    -0.041    28.974     8.829
    17   7 N        2.914     0.184    18.177     6.332
    18   8 O        1.767    -0.194    17.234     5.606
    19   6 C        3.689     0.048    19.951     6.393
    20   6 C        2.991    -0.021    28.512     8.759
    21   6 C        2.928    -0.032    28.787     8.799
    22   6 C        2.952    -0.041    29.007     8.834
    23   6 C        2.888     0.108    25.622     8.299
    24   6 C        2.999    -0.048    29.183     8.862
    25   6 C        2.889     0.088    26.044     8.367
    26  17 Cl       0.962    -0.151   103.885    15.593
    27  17 Cl       0.970    -0.112   102.643    15.500
    28   1 H        0.925     0.065     2.136     2.286
    29   1 H        0.925     0.076     2.019     2.222
    30   1 H        0.925     0.063     2.163     2.300
    31   1 H        0.924     0.092     1.860     2.133
    32   1 H        0.925     0.096     1.819     2.109
    33   1 H        0.924     0.068     2.106     2.269
    34   1 H        0.924     0.116     1.646     2.006
    35   1 H        0.926     0.066     2.134     2.285
    36   1 H        0.926     0.087     1.904     2.158
    37   1 H        0.926     0.093     1.846     2.125
    38   1 H        0.927     0.113     1.670     2.021
    39   1 H        0.926     0.128     1.548     1.946
    40   1 H        0.924     0.082     1.962     2.191
    41   1 H        0.924     0.114     1.663     2.017
    42   1 H        0.926     0.074     2.046     2.237
    43   1 H        0.926     0.087     1.911     2.162
    44   1 H        0.926     0.094     1.843     2.123

Wiberg/Mayer (AO) data.
largest (>0.10) Wiberg bond orders for each atom

     #   Z sym  total        # sym  WBO       # sym  WBO       # sym  WBO
 ---------------------------------------------------------------------------
     1   6 C    3.981 --    30 H    0.984     2 C    0.984    28 H    0.984
                            29 H    0.980
     2   6 C    3.972 --     3 C    1.028     1 C    0.984    32 H    0.963
                            31 H    0.945
     3   6 C    3.926 --     4 N    1.290    17 N    1.288     2 C    1.028
     4   7 N    3.709 --     3 C    1.290    15 C    1.211     5 O    1.007
     5   8 O    2.139 --     4 N    1.007     6 C    0.935
     6   6 C    3.908 --     7 C    1.003    33 H    0.964    34 H    0.939
                             5 O    0.935
     7   6 C    3.982 --     8 C    1.400    12 C    1.366     6 C    1.003
     8   6 C    3.988 --     9 C    1.453     7 C    1.400    35 H    0.963
                            11 C    0.102
     9   6 C    3.985 --     8 C    1.453    10 C    1.382    36 H    0.963
    10   6 C    3.933 --    11 C    1.393     9 C    1.382    14 Cl   1.022
    11   6 C    3.984 --    12 C    1.412    10 C    1.393    37 H    0.960
                             8 C    0.102
    12   6 C    3.927 --    11 C    1.412     7 C    1.366    13 Cl   0.992
    13  17 Cl   1.141 --    12 C    0.992
    14  17 Cl   1.177 --    10 C    1.022
    15   6 C    3.936 --    16 C    1.554     4 N    1.211    38 H    0.956
    16   6 C    3.933 --    15 C    1.554    17 N    1.215    39 H    0.945
    17   7 N    3.709 --     3 C    1.288    16 C    1.215    18 O    1.005
    18   8 O    2.139 --    17 N    1.005    19 C    0.934
    19   6 C    3.905 --    20 C    1.002    40 H    0.959    41 H    0.941
                            18 O    0.934
    20   6 C    3.983 --    21 C    1.399    25 C    1.371    19 C    1.002
    21   6 C    3.988 --    22 C    1.456    20 C    1.399    42 H    0.964
                            24 C    0.103
    22   6 C    3.985 --    21 C    1.456    23 C    1.381    43 H    0.963
    23   6 C    3.933 --    24 C    1.393    22 C    1.381    27 Cl   1.022
    24   6 C    3.984 --    25 C    1.414    23 C    1.393    44 H    0.960
                            21 C    0.103
    25   6 C    3.922 --    24 C    1.414    20 C    1.371    26 Cl   0.978
    26  17 Cl   1.141 --    25 C    0.978
    27  17 Cl   1.178 --    23 C    1.022
    28   1 H    0.996 --     1 C    0.984
    29   1 H    0.993 --     1 C    0.980
    30   1 H    0.996 --     1 C    0.984
    31   1 H    0.991 --     2 C    0.945
    32   1 H    0.990 --     2 C    0.963
    33   1 H    0.995 --     6 C    0.964
    34   1 H    0.985 --     6 C    0.939
    35   1 H    0.996 --     8 C    0.963
    36   1 H    0.991 --     9 C    0.963
    37   1 H    0.991 --    11 C    0.960
    38   1 H    0.987 --    15 C    0.956
    39   1 H    0.983 --    16 C    0.945
    40   1 H    0.993 --    19 C    0.959
    41   1 H    0.985 --    19 C    0.941
    42   1 H    0.995 --    21 C    0.964
    43   1 H    0.991 --    22 C    0.963
    44   1 H    0.991 --    24 C    0.960
 ---------------------------------------------------------------------------

molecular dipole:
                 x           y           z       tot (Debye)
 q only:        1.947      -5.517       4.474
   full:        2.238      -5.878       4.907      20.277

           -------------------------------------------------
          | TOTAL ENERGY              -81.089041756178 Eh   |
          | GRADIENT NORM               0.000384675493 Eh/α |
          | HOMO-LUMO GAP               3.212051807604 eV   |
           -------------------------------------------------

 * finished run on 2024/12/20 at 06:41:29.845
