   * xtb version 6.7.1 (edcfbbe) compiled by 'conda@3ef47c1a292c' on 2024-11-25

   ID    Z sym.   atoms
    1    8 O      1, 21
    2    6 C      2-9, 11, 13-20, 22-27
    3    7 N      10, 12
    4    1 H      28-46

          program call               : xtb C0356.xyz --opt --namespace C0356 --charge +1
          :  Hamiltonian                  GFN2-xTB          :
 * total energy  :   -72.4976886 Eh     change       -0.6363479E-09 Eh
 * total energy  :   -72.5075830 Eh     change       -0.9894358E-02 Eh
 * total energy  :   -72.5100083 Eh     change       -0.2425329E-02 Eh
 * total energy  :   -72.5105454 Eh     change       -0.5371601E-03 Eh
 * total energy  :   -72.5109355 Eh     change       -0.3900982E-03 Eh
 * total energy  :   -72.5111239 Eh     change       -0.1883481E-03 Eh
 * total energy  :   -72.5113086 Eh     change       -0.1847185E-03 Eh
 * total energy  :   -72.5114834 Eh     change       -0.1747821E-03 Eh
 * total energy  :   -72.5116653 Eh     change       -0.1818948E-03 Eh
 * total energy  :   -72.5118694 Eh     change       -0.2040875E-03 Eh
 * total energy  :   -72.5188978 Eh     change       -0.1432607E-04 Eh
 * total energy  :   -72.5189111 Eh     change       -0.1331960E-04 Eh
 * total energy  :   -72.5189202 Eh     change       -0.9049315E-05 Eh
 * total energy  :   -72.5189267 Eh     change       -0.6500430E-05 Eh
 * total energy  :   -72.5189322 Eh     change       -0.5497121E-05 Eh
 * total energy  :   -72.5189376 Eh     change       -0.5370275E-05 Eh
 * total energy  :   -72.5189443 Eh     change       -0.6768956E-05 Eh
 * total energy  :   -72.5189534 Eh     change       -0.9039287E-05 Eh
 * total energy  :   -72.5189561 Eh     change       -0.2698667E-05 Eh
   *** GEOMETRY OPTIMIZATION CONVERGED AFTER 94 ITERATIONS ***

 final structure:
================
46
 xtb: 6.7.1 (edcfbbe)
O            1.67447287430174       -1.62118998663591       -0.10114085961936
C            1.82445120374533       -0.64863353332895       -0.79337565078684
C            2.20110234494115       -0.70744436243640       -2.21608329449826
C            2.75170196596114       -1.90506805800688       -2.68350664841994
C            3.13207314613775       -2.03361671852354       -4.00443469440225
C            2.95849070804104       -0.97222035240789       -4.87952931624209
C            2.39379057503839        0.21277029762305       -4.43103439578544
C            2.01618697514905        0.35094300877016       -3.10898099838124
C            1.65453730707170        0.75940708677241       -0.17314069309578
N            2.76714440793994        1.61786151525717       -0.48361261782934
C            4.04489696620191        1.26604527816954       -0.37972481787694
N            4.85036663922926        2.24979462385981       -0.77917593861387
C            4.05757825736482        3.32774824733455       -1.12517812246107
C            2.72238864379634        2.91783108804600       -0.94608231108518
C            1.66295955194753        3.77377890974621       -1.22176880142136
C            1.97864410798442        5.03643576815483       -1.67924372101877
C            3.30348098006314        5.44278195844078       -1.85685874668645
C            4.36349935669081        4.60202744148250       -1.58519301628879
C            6.26116737483163        2.25214253220948       -0.53334636639697
C            6.47422632825000        2.03920244267872        0.99455522697163
O            5.51619084135465        1.71770611755418        1.65969028911695
C            7.82339977421201        2.22617141047913        1.51505335933891
C            7.99491793011852        2.12955283277017        2.90253784940050
C            9.24418733360011        2.28704450083259        3.46623116796358
C           10.34089427332436        2.53770910400860        2.65513488451410
C           10.18401655369972        2.62826856729891        1.27872649871098
C            8.93717051105205        2.47677846668805        0.70551724637990
H            2.87109306467982       -2.72161699207692       -1.98745516910851
H            3.55620048421026       -2.96151169422367       -4.35494428312214
H            3.25025122177658       -1.07066867868769       -5.91366673486379
H            2.23845254792953        1.03011756698958       -5.11868815582192
H            1.54464279513822        1.26986985839981       -2.79530691877111
H            0.73149719995208        1.20810718316603       -0.54487801622188
H            1.56660836696610        0.63102717245006        0.91093523518610
H            4.37528974638558        0.29856308631232       -0.05278899711174
H            0.63681030045298        3.47459874414250       -1.08132210764295
H            1.18430004068048        5.73004191011198       -1.90377420754176
H            3.50033728842456        6.44098057397546       -2.21355468889135
H            5.38065686161869        4.92951445885862       -1.72576214163754
H            6.74747830637815        1.42950886897719       -1.06546042211665
H            6.68588793743711        3.20100708960946       -0.85751719513601
H            7.12882334901647        1.93177987371517        3.51557818252528
H            9.36592545872673        2.21291261667251        4.53544754311288
H           11.31950588621914        2.66047591443793        3.09272929267216
H           11.04133262060921        2.81723938338663        0.65134462125429
H            8.84239959129598        2.54082487705798       -0.36727134821959

          :  Hamiltonian                  GFN2-xTB          :
         :: total energy             -72.518956071345 Eh    ::
         :: gradient norm              0.000185765479 Eh/a0 ::
         :: HOMO-LUMO gap              2.856942742684 eV    ::
         :: SCC energy               -73.724271412277 Eh    ::
         :: -> dispersion             -0.051954567026 Eh    ::
         :: repulsion energy           1.205315340932 Eh    ::

    * Orbital Energies and Occupations

         #    Occupation            Energy/Eh            Energy/eV
      -------------------------------------------------------------
         1        2.0000           -0.8716449             -23.7187
       ...           ...                  ...                  ...
        54        2.0000           -0.5708848             -15.5346
        55        2.0000           -0.5548566             -15.0984
        56        2.0000           -0.5494836             -14.9522
        57        2.0000           -0.5471503             -14.8887
        58        2.0000           -0.5436212             -14.7927
        59        2.0000           -0.5348499             -14.5540
        60        2.0000           -0.5346773             -14.5493
        61        2.0000           -0.5267142             -14.3326
        62        2.0000           -0.5263791             -14.3235
        63        2.0000           -0.5243214             -14.2675
        64        2.0000           -0.5220408             -14.2055
        65        2.0000           -0.5216057             -14.1936
        66        2.0000           -0.5131158             -13.9626 (HOMO)
        67                         -0.4081251             -11.1056 (LUMO)
        68                         -0.4060514             -11.0492
        69                         -0.3974858             -10.8161
        70                         -0.3601953              -9.8014
        71                         -0.3518591              -9.5746
        72                         -0.3388846              -9.2215
        73                         -0.3384289              -9.2091
        74                         -0.3118308              -8.4853
        75                         -0.3106186              -8.4524
        76                         -0.2350120              -6.3950
        77                         -0.2037350              -5.5439
       ...                                ...                  ...
       127                          0.5615891              15.2816
      -------------------------------------------------------------
                  HL-Gap            0.1049907 Eh            2.8569 eV

     #   Z          covCN         q      C6AA      α(0)
     1   8 O        0.857    -0.317    20.094     6.010
     2   6 C        2.819     0.223    23.315     7.912
     3   6 C        2.970    -0.022    28.559     8.766
     4   6 C        2.927    -0.015    28.382     8.737
     5   6 C        2.916    -0.020    28.506     8.755
     6   6 C        2.920    -0.013    28.341     8.730
     7   6 C        2.918    -0.025    28.623     8.773
     8   6 C        2.919    -0.033    28.821     8.804
     9   6 C        3.741    -0.047    21.495     6.615
    10   7 N        2.826     0.038    20.584     6.738
    11   6 C        3.070     0.080    26.148     8.385
    12   7 N        2.829     0.036    20.615     6.743
    13   6 C        3.113     0.040    26.943     8.503
    14   6 C        3.115     0.042    26.904     8.497
    15   6 C        2.909    -0.032    28.801     8.800
    16   6 C        2.925    -0.019    28.473     8.751
    17   6 C        2.925    -0.019    28.475     8.751
    18   6 C        2.909    -0.032    28.806     8.801
    19   6 C        3.744    -0.043    21.412     6.601
    20   6 C        2.823     0.227    23.242     7.900
    21   8 O        0.857    -0.353    20.767     6.110
    22   6 C        2.970    -0.016    28.415     8.744
    23   6 C        2.927    -0.009    28.233     8.714
    24   6 C        2.916    -0.017    28.442     8.745
    25   6 C        2.920    -0.006    28.182     8.705
    26   6 C        2.917    -0.019    28.482     8.752
    27   6 C        2.919    -0.026    28.662     8.779
    28   1 H        0.926     0.072     2.061     2.245
    29   1 H        0.926     0.062     2.171     2.304
    30   1 H        0.926     0.061     2.188     2.313
    31   1 H        0.926     0.051     2.303     2.373
    32   1 H        0.926     0.034     2.535     2.490
    33   1 H        0.924     0.100     1.787     2.091
    34   1 H        0.924     0.108     1.713     2.047
    35   1 H        0.926     0.113     1.673     2.023
    36   1 H        0.926     0.069     2.100     2.266
    37   1 H        0.926     0.080     1.982     2.201
    38   1 H        0.926     0.079     1.991     2.206
    39   1 H        0.926     0.065     2.141     2.288
    40   1 H        0.924     0.094     1.836     2.119
    41   1 H        0.925     0.098     1.802     2.099
    42   1 H        0.926     0.075     2.035     2.231
    43   1 H        0.926     0.067     2.120     2.277
    44   1 H        0.926     0.068     2.108     2.270
    45   1 H        0.926     0.062     2.180     2.309
    46   1 H        0.926     0.042     2.425     2.435

Wiberg/Mayer (AO) data.
largest (>0.10) Wiberg bond orders for each atom

     #   Z sym  total        # sym  WBO       # sym  WBO       # sym  WBO
 ---------------------------------------------------------------------------
     1   8 O    2.113 --     2 C    1.855
     2   6 C    3.932 --     1 O    1.855     3 C    1.048     9 C    0.932
     3   6 C    3.986 --     8 C    1.369     4 C    1.365     2 C    1.048
     4   6 C    3.986 --     5 C    1.459     3 C    1.365    28 H    0.964
                             7 C    0.103
     5   6 C    3.989 --     4 C    1.459     6 C    1.430    29 H    0.967
                             8 C    0.105
     6   6 C    3.987 --     5 C    1.430     7 C    1.425    30 H    0.969
     7   6 C    3.991 --     8 C    1.463     6 C    1.425    31 H    0.969
                             4 C    0.103
     8   6 C    3.992 --     7 C    1.463     3 C    1.369    32 H    0.966
                             5 C    0.105
     9   6 C    3.940 --    10 N    0.980    34 H    0.950    33 H    0.948
                             2 C    0.932
    10   7 N    3.677 --    11 C    1.361    14 C    1.121     9 C    0.980
    11   6 C    3.953 --    10 N    1.361    12 N    1.346    35 H    0.952
    12   7 N    3.668 --    11 C    1.346    13 C    1.116    19 C    0.997
    13   6 C    3.951 --    18 C    1.345    14 C    1.274    12 N    1.116
    14   6 C    3.953 --    15 C    1.342    13 C    1.274    10 N    1.121
    15   6 C    3.986 --    16 C    1.491    14 C    1.342    36 H    0.962
                            18 C    0.118
    16   6 C    3.985 --    15 C    1.491    17 C    1.381    37 H    0.966
    17   6 C    3.983 --    18 C    1.490    16 C    1.381    38 H    0.966
    18   6 C    3.986 --    17 C    1.490    13 C    1.345    39 H    0.963
                            15 C    0.118
    19   6 C    3.950 --    12 N    0.997    41 H    0.955    40 H    0.944
                            20 C    0.921
    20   6 C    3.927 --    21 O    1.804    22 C    1.081    19 C    0.921
    21   8 O    2.115 --    20 C    1.804
    22   6 C    3.981 --    27 C    1.352    23 C    1.348    20 C    1.081
    23   6 C    3.984 --    24 C    1.464    22 C    1.348    42 H    0.964
    24   6 C    3.988 --    23 C    1.464    25 C    1.427    43 H    0.967
                            27 C    0.102
    25   6 C    3.985 --    24 C    1.427    26 C    1.417    44 H    0.968
    26   6 C    3.990 --    27 C    1.473    25 C    1.417    45 H    0.968
    27   6 C    3.991 --    26 C    1.473    22 C    1.352    46 H    0.967
                            24 C    0.102
    28   1 H    0.995 --     4 C    0.964
    29   1 H    0.995 --     5 C    0.967
    30   1 H    0.996 --     6 C    0.969
    31   1 H    0.997 --     7 C    0.969
    32   1 H    0.999 --     8 C    0.966
    33   1 H    0.989 --     9 C    0.948
    34   1 H    0.987 --     9 C    0.950
    35   1 H    0.986 --    11 C    0.952
    36   1 H    0.995 --    15 C    0.962
    37   1 H    0.993 --    16 C    0.966
    38   1 H    0.993 --    17 C    0.966
    39   1 H    0.995 --    18 C    0.963
    40   1 H    0.990 --    19 C    0.944
    41   1 H    0.990 --    19 C    0.955
    42   1 H    0.994 --    23 C    0.964
    43   1 H    0.995 --    24 C    0.967
    44   1 H    0.995 --    25 C    0.968
    45   1 H    0.996 --    26 C    0.968
    46   1 H    0.998 --    27 C    0.967
 ---------------------------------------------------------------------------

molecular dipole:
                 x           y           z       tot (Debye)
 q only:        9.505       4.873      -2.258
   full:        9.599       4.921      -2.410      28.093

           -------------------------------------------------
          | TOTAL ENERGY              -72.518956071345 Eh   |
          | GRADIENT NORM               0.000185765479 Eh/α |
          | HOMO-LUMO GAP               2.856942742684 eV   |
           -------------------------------------------------

 * finished run on 2024/12/20 at 06:41:51.671
