   * xtb version 6.7.1 (edcfbbe) compiled by 'conda@3ef47c1a292c' on 2024-11-25

   ID    Z sym.   atoms
    1    6 C      1-11, 13, 15, 16, 18, 19
    2    8 O      12, 17
    3    7 N      14
    4    1 H      20-55

          program call               : xtb C0354.xyz --opt --namespace C0354 --charge +1
          :  Hamiltonian                  GFN2-xTB          :
 * total energy  :   -63.2686838 Eh     change       -0.1163158E-09 Eh
 * total energy  :   -63.2758988 Eh     change       -0.7215073E-02 Eh
 * total energy  :   -63.2778332 Eh     change       -0.1934329E-02 Eh
 * total energy  :   -63.2781639 Eh     change       -0.3307369E-03 Eh
 * total energy  :   -63.2786387 Eh     change       -0.4747832E-03 Eh
 * total energy  :   -63.2789443 Eh     change       -0.3056299E-03 Eh
 * total energy  :   -63.2793870 Eh     change       -0.4427010E-03 Eh
 * total energy  :   -63.2798642 Eh     change       -0.4771814E-03 Eh
 * total energy  :   -63.2802413 Eh     change       -0.3770932E-03 Eh
 * total energy  :   -63.2805273 Eh     change       -0.2860314E-03 Eh
 * total energy  :   -63.2830636 Eh     change       -0.1206020E-04 Eh
 * total energy  :   -63.2830723 Eh     change       -0.8678951E-05 Eh
 * total energy  :   -63.2830873 Eh     change       -0.1499699E-04 Eh
 * total energy  :   -63.2830957 Eh     change       -0.8404965E-05 Eh
 * total energy  :   -63.2831058 Eh     change       -0.1010854E-04 Eh
 * total energy  :   -63.2831139 Eh     change       -0.8036083E-05 Eh
 * total energy  :   -63.2831192 Eh     change       -0.5311139E-05 Eh
 * total energy  :   -63.2831242 Eh     change       -0.5071264E-05 Eh
 * total energy  :   -63.2831291 Eh     change       -0.4897412E-05 Eh
   *** GEOMETRY OPTIMIZATION CONVERGED AFTER 53 ITERATIONS ***

 final structure:
================
55
 xtb: 6.7.1 (edcfbbe)
C            2.24423188102930       -0.07986921230304       -1.13820351241937
C            1.02524764855490        0.58031003514807       -1.77142667065753
C            0.47818110900205       -0.18516194182127       -2.97673948131974
C           -0.01328221648574       -1.60222075463999       -2.67229551292788
C           -1.13268700919137       -1.68535927921733       -1.63191837973325
C           -2.40690343615925       -0.91391725099513       -1.98458285015861
C           -3.06353061498566       -1.31620782675217       -3.30680895754055
C           -3.49618410020604       -2.78073249738078       -3.33088325838151
C           -4.34259900075270       -3.14901686446524       -4.55225755665957
C           -3.68769633715193       -2.88529021851856       -5.91131692704706
C           -2.36297737210414       -3.60306907273154       -6.16445145128754
O           -2.51376230802693       -5.01665725491385       -6.36499072230222
C           -2.49520557734737       -5.83951091118067       -5.26963438457647
N           -1.30795015336622       -6.79103030494219       -5.35709786423824
C           -0.02506302993057       -6.03694294843900       -5.43086662166869
C            0.40673136318582       -5.30274112198128       -4.15898726090535
O            0.86310374945309       -6.24355642574698       -3.21857600881446
C           -1.33139538324547       -7.71014163929309       -4.20828262427177
C           -1.45361730458325       -7.56471521025626       -6.60599384618493
H            1.98579701810000       -1.03117488084133       -0.67902081821320
H            2.65741991179266        0.56276107655132       -0.36517040531123
H            3.01631140132888       -0.25264032005062       -1.88519323403277
H            0.24383837477482        0.69955236365528       -1.01980288340067
H            1.30378090049368        1.58055179509424       -2.10951548004606
H           -0.33756958487593        0.39131917643800       -3.41633197813211
H            1.26735287249350       -0.25631340273128       -3.73030449674600
H           -0.35174068185938       -2.04974849048438       -3.61236591791938
H            0.82907733105166       -2.20059202879914       -2.31658477173776
H           -1.38060820047717       -2.73806027110226       -1.46767108484504
H           -0.75923702319122       -1.30236572071190       -0.68179290029740
H           -3.12589580695314       -1.06189665791685       -1.17563089183069
H           -2.17932101432822        0.15169981388065       -2.02358486675334
H           -3.94488046361085       -0.68954307825071       -3.45539589652483
H           -2.37522379540995       -1.11457250962911       -4.12863227753987
H           -2.60933570191497       -3.41786959068223       -3.27542720677225
H           -4.08998539106653       -2.98473891450627       -2.43715714768122
H           -4.63487335062042       -4.20061226529847       -4.48469325225585
H           -5.26208011874532       -2.56262978657105       -4.51873169911810
H           -4.38490717595715       -3.18047513491878       -6.69695821590164
H           -3.50182912324859       -1.81700041660120       -6.02050045613358
H           -1.93970248348051       -3.24266407358203       -7.10495313526148
H           -1.64801013267295       -3.40762181562655       -5.35969176135321
H           -2.42582392481982       -5.29785048406040       -4.32156344441411
H           -3.38812869143172       -6.47750769955262       -5.25871039153598
H            0.76579999263952       -6.75223200240335       -5.66587102589648
H           -0.11595362171949       -5.32447317997804       -6.25233976434183
H            1.21064109657908       -4.61634767325975       -4.45160111135875
H           -0.40777354345403       -4.69904181138350       -3.73405293894767
H            1.41085863811309       -5.81570542481212       -2.55278512690889
H           -2.24307339744289       -8.30381178068954       -4.22416474398833
H           -0.46993822384151       -8.37307436741053       -4.25315507426540
H           -1.27726521806659       -7.16017105068315       -3.27244601865565
H           -2.36627786285855       -8.15628028281179       -6.56925978773645
H           -1.51846673308679       -6.88122227473391       -7.45083094966092
H           -0.60543817991575       -8.23268613509657       -6.73768495343453

          :  Hamiltonian                  GFN2-xTB          :
         :: total energy             -63.283129144077 Eh    ::
         :: gradient norm              0.000406397664 Eh/a0 ::
         :: HOMO-LUMO gap              6.967227741947 eV    ::
         :: SCC energy               -64.088463799928 Eh    ::
         :: -> dispersion             -0.045544192943 Eh    ::
         :: repulsion energy           0.805334655851 Eh    ::

    * Orbital Energies and Occupations

         #    Occupation            Energy/Eh            Energy/eV
      -------------------------------------------------------------
         1        2.0000           -0.8715345             -23.7157
       ...           ...                  ...                  ...
        46        2.0000           -0.5589189             -15.2090
        47        2.0000           -0.5485166             -14.9259
        48        2.0000           -0.5452579             -14.8372
        49        2.0000           -0.5415882             -14.7374
        50        2.0000           -0.5348682             -14.5545
        51        2.0000           -0.5319755             -14.4758
        52        2.0000           -0.5240753             -14.2608
        53        2.0000           -0.5141737             -13.9914
        54        2.0000           -0.5129758             -13.9588
        55        2.0000           -0.5067338             -13.7889
        56        2.0000           -0.4992387             -13.5850
        57        2.0000           -0.4941497             -13.4465
        58        2.0000           -0.4906715             -13.3519 (HOMO)
        59                         -0.2346306              -6.3846 (LUMO)
        60                         -0.1804166              -4.9094
        61                         -0.1467701              -3.9938
        62                         -0.1456250              -3.9627
        63                         -0.1209310              -3.2907
        64                         -0.1007781              -2.7423
        65                         -0.0782241              -2.1286
        66                         -0.0521582              -1.4193
        67                         -0.0348078              -0.9472
        68                         -0.0338696              -0.9216
        69                         -0.0234720              -0.6387
       ...                                ...                  ...
       112                          0.2338664               6.3638
      -------------------------------------------------------------
                  HL-Gap            0.2560409 Eh            6.9672 eV

     #   Z          covCN         q      C6AA      α(0)
     1   6 C        3.751    -0.103    22.528     6.769
     2   6 C        3.800    -0.055    21.563     6.612
     3   6 C        3.801    -0.059    21.631     6.622
     4   6 C        3.799    -0.051    21.497     6.602
     5   6 C        3.800    -0.057    21.609     6.619
     6   6 C        3.801    -0.062    21.686     6.630
     7   6 C        3.801    -0.061    21.681     6.629
     8   6 C        3.801    -0.056    21.584     6.615
     9   6 C        3.800    -0.065    21.740     6.639
    10   6 C        3.799    -0.077    21.972     6.674
    11   6 C        3.685     0.065    19.676     6.351
    12   8 O        1.700    -0.292    18.863     5.864
    13   6 C        3.642     0.114    19.035     6.273
    14   7 N        3.618     0.111    19.328     6.530
    15   6 C        3.759    -0.039    21.325     6.584
    16   6 C        3.672     0.076    19.537     6.335
    17   8 O        1.656    -0.437    21.589     6.272
    18   6 C        3.713    -0.100    22.539     6.784
    19   6 C        3.725    -0.097    22.467     6.768
    20   1 H        0.925     0.030     2.586     2.515
    21   1 H        0.925     0.039     2.456     2.451
    22   1 H        0.925     0.033     2.541     2.493
    23   1 H        0.924     0.036     2.508     2.477
    24   1 H        0.924     0.035     2.513     2.479
    25   1 H        0.924     0.033     2.537     2.491
    26   1 H        0.924     0.028     2.614     2.529
    27   1 H        0.924     0.007     2.946     2.684
    28   1 H        0.924     0.023     2.683     2.561
    29   1 H        0.924     0.016     2.799     2.616
    30   1 H        0.924     0.043     2.407     2.426
    31   1 H        0.924     0.036     2.508     2.477
    32   1 H        0.924     0.044     2.395     2.420
    33   1 H        0.924     0.040     2.454     2.450
    34   1 H        0.924     0.032     2.554     2.499
    35   1 H        0.924     0.007     2.932     2.678
    36   1 H        0.924     0.042     2.423     2.434
    37   1 H        0.924     0.025     2.657     2.549
    38   1 H        0.924     0.054     2.270     2.356
    39   1 H        0.924     0.061     2.188     2.313
    40   1 H        0.925     0.063     2.169     2.303
    41   1 H        0.924     0.069     2.098     2.265
    42   1 H        0.924     0.036     2.503     2.474
    43   1 H        0.924     0.079     1.990     2.206
    44   1 H        0.924     0.083     1.951     2.185
    45   1 H        0.924     0.105     1.736     2.060
    46   1 H        0.924     0.096     1.823     2.111
    47   1 H        0.924     0.062     2.172     2.305
    48   1 H        0.923     0.040     2.450     2.448
    49   1 H        0.805     0.314     0.679     1.294
    50   1 H        0.925     0.092     1.861     2.133
    51   1 H        0.925     0.114     1.663     2.017
    52   1 H        0.925     0.114     1.665     2.018
    53   1 H        0.925     0.100     1.784     2.089
    54   1 H        0.925     0.114     1.663     2.016
    55   1 H        0.925     0.099     1.792     2.093

Wiberg/Mayer (AO) data.
largest (>0.10) Wiberg bond orders for each atom

     #   Z sym  total        # sym  WBO       # sym  WBO       # sym  WBO
 ---------------------------------------------------------------------------
     1   6 C    3.997 --     2 C    1.020    22 H    0.988    21 H    0.987
                            20 H    0.986
     2   6 C    3.997 --     1 C    1.020     3 C    1.008    24 H    0.978
                            23 H    0.975
     3   6 C    3.997 --     2 C    1.008     4 C    1.007    26 H    0.977
                            25 H    0.976
     4   6 C    3.999 --     5 C    1.007     3 C    1.007    28 H    0.976
                            27 H    0.974
     5   6 C    3.997 --     6 C    1.008     4 C    1.007    29 H    0.976
                            30 H    0.974
     6   6 C    3.996 --     5 C    1.008     7 C    1.007    31 H    0.977
                            32 H    0.974
     7   6 C    3.996 --     8 C    1.008     6 C    1.007    33 H    0.976
                            34 H    0.973
     8   6 C    3.997 --     7 C    1.008     9 C    1.006    36 H    0.975
                            35 H    0.966
     9   6 C    3.995 --    10 C    1.007     8 C    1.006    37 H    0.976
                            38 H    0.974
    10   6 C    3.989 --     9 C    1.007    11 C    1.002    39 H    0.973
                            40 H    0.968
    11   6 C    3.919 --    10 C    1.002    41 H    0.969    42 H    0.964
                            12 O    0.933
    12   8 O    2.130 --    13 C    1.063    11 C    0.933
    13   6 C    3.928 --    12 O    1.063    44 H    0.954    43 H    0.948
                            14 N    0.885
    14   7 N    3.801 --    18 C    0.957    19 C    0.955    15 C    0.936
                            13 C    0.885
    15   6 C    3.936 --    16 C    1.005    46 H    0.964    45 H    0.962
                            14 N    0.936
    16   6 C    3.962 --    17 O    1.008    15 C    1.005    47 H    0.964
                            48 H    0.957
    17   8 O    1.956 --    16 C    1.008    49 H    0.886
    18   6 C    3.918 --    50 H    0.975    51 H    0.971    52 H    0.969
                            14 N    0.957
    19   6 C    3.920 --    55 H    0.975    53 H    0.974    54 H    0.971
                            14 N    0.955
    20   1 H    0.999 --     1 C    0.986
    21   1 H    0.998 --     1 C    0.987
    22   1 H    0.999 --     1 C    0.988
    23   1 H    0.999 --     2 C    0.975
    24   1 H    0.999 --     2 C    0.978
    25   1 H    0.999 --     3 C    0.976
    26   1 H    0.999 --     3 C    0.977
    27   1 H    1.000 --     4 C    0.974
    28   1 H    0.999 --     4 C    0.976
    29   1 H    1.000 --     5 C    0.976
    30   1 H    0.998 --     5 C    0.974
    31   1 H    0.999 --     6 C    0.977
    32   1 H    0.998 --     6 C    0.974
    33   1 H    0.998 --     7 C    0.976
    34   1 H    0.999 --     7 C    0.973
    35   1 H    1.000 --     8 C    0.966
    36   1 H    0.998 --     8 C    0.975
    37   1 H    0.999 --     9 C    0.976
    38   1 H    0.997 --     9 C    0.974
    39   1 H    0.996 --    10 C    0.973
    40   1 H    0.996 --    10 C    0.968
    41   1 H    0.995 --    11 C    0.969
    42   1 H    0.999 --    11 C    0.964
    43   1 H    0.994 --    13 C    0.948
    44   1 H    0.993 --    13 C    0.954
    45   1 H    0.989 --    15 C    0.962
    46   1 H    0.991 --    15 C    0.964
    47   1 H    0.996 --    16 C    0.964
    48   1 H    0.998 --    16 C    0.957
    49   1 H    0.901 --    17 O    0.886
    50   1 H    0.992 --    18 C    0.975
    51   1 H    0.987 --    18 C    0.971
    52   1 H    0.987 --    18 C    0.969
    53   1 H    0.990 --    19 C    0.974
    54   1 H    0.987 --    19 C    0.971
    55   1 H    0.990 --    19 C    0.975
 ---------------------------------------------------------------------------

molecular dipole:
                 x           y           z       tot (Debye)
 q only:       -2.368     -11.159      -9.495
   full:       -2.253     -10.996      -9.324      37.088

           -------------------------------------------------
          | TOTAL ENERGY              -63.283129144077 Eh   |
          | GRADIENT NORM               0.000406397664 Eh/α |
          | HOMO-LUMO GAP               6.967227741947 eV   |
           -------------------------------------------------

 * finished run on 2024/12/20 at 06:41:42.406
