   * xtb version 6.7.1 (edcfbbe) compiled by 'conda@3ef47c1a292c' on 2024-11-25

   ID    Z sym.   atoms
    1    6 C      1-9, 11, 13-24
    2    7 N      10
    3    8 O      12
    4    1 H      25-70

          program call               : xtb C0358.xyz --opt --namespace C0358 --charge +1
          :  Hamiltonian                  GFN2-xTB          :
 * total energy  :   -77.1886168 Eh     change       -0.2685283E-09 Eh
 * total energy  :   -77.1973186 Eh     change       -0.8701842E-02 Eh
 * total energy  :   -77.1997726 Eh     change       -0.2454016E-02 Eh
 * total energy  :   -77.2002946 Eh     change       -0.5219641E-03 Eh
 * total energy  :   -77.2007474 Eh     change       -0.4528185E-03 Eh
 * total energy  :   -77.2009251 Eh     change       -0.1776971E-03 Eh
 * total energy  :   -77.2010912 Eh     change       -0.1661040E-03 Eh
 * total energy  :   -77.2012302 Eh     change       -0.1390485E-03 Eh
 * total energy  :   -77.2013568 Eh     change       -0.1265142E-03 Eh
 * total energy  :   -77.2014580 Eh     change       -0.1012596E-03 Eh
 * total energy  :   -77.2126014 Eh     change       -0.6807871E-05 Eh
 * total energy  :   -77.2126088 Eh     change       -0.7365166E-05 Eh
 * total energy  :   -77.2126168 Eh     change       -0.7993908E-05 Eh
 * total energy  :   -77.2126252 Eh     change       -0.8413112E-05 Eh
 * total energy  :   -77.2126336 Eh     change       -0.8413283E-05 Eh
 * total energy  :   -77.2126416 Eh     change       -0.8024759E-05 Eh
 * total energy  :   -77.2126490 Eh     change       -0.7360372E-05 Eh
 * total energy  :   -77.2126556 Eh     change       -0.6635768E-05 Eh
 * total energy  :   -77.2126587 Eh     change       -0.3088360E-05 Eh
   *** GEOMETRY OPTIMIZATION CONVERGED AFTER 152 ITERATIONS ***

 final structure:
================
70
 xtb: 6.7.1 (edcfbbe)
C            1.47279964583181        0.25929264995596        0.80367489150071
C            0.19918802475539        0.12189239351303       -0.02228996386353
C            0.25314445126727       -1.02659780079995       -1.03130198838021
C            0.43932922193832       -2.41483241399468       -0.41622303163080
C           -0.65279984895745       -2.83229995005296        0.57037049647424
C           -2.07437014802036       -2.86216344867265        0.00152086535046
C           -2.25576094051800       -3.74976731469204       -1.23058484800881
C           -2.00615756490813       -5.24562272047133       -0.98517343840080
C           -3.25113187142281       -5.92226854791772       -0.41483341351779
N           -3.06257042903219       -7.33899542915987        0.03249632487051
C           -2.43652670437343       -7.37681091379727        1.40567994078046
O           -3.42085410275733       -7.12327945340473        2.33999248220552
C           -3.08198205018921       -6.41225960300190        3.55503781286749
C           -2.83441271916165       -4.93925112251904        3.22057823595784
C           -2.59374344572691       -4.10427522443776        4.47501896275290
C           -2.41894085841130       -2.62918835748076        4.13232054710335
C           -1.36287749587058       -4.67548803141568        5.16726282571228
C           -1.59985620150967       -6.12874619207029        5.55781378796463
C           -1.95626242312875       -7.05979212154850        4.38409936816038
C           -2.35425475010797       -8.44131808543207        4.96384310214253
C           -2.70695861791836       -9.49087800133643        3.90907553692588
C           -1.24005582514738       -9.01732253336151        5.84286997781526
C           -4.38474590685375       -7.99588570209139        0.10062213881541
C           -2.21743669998000       -8.09690588266045       -0.90694488837019
H            1.61077803905748       -0.59198048697711        1.46602090885306
H            1.42696986317286        1.15630466487303        1.41609215285198
H            2.34125606746602        0.33466681718463        0.15339325624932
H           -0.65659820445333       -0.00300321763424        0.64418705355074
H            0.04101045235207        1.04801695941197       -0.57876250881344
H           -0.66003139865218       -1.01072068907309       -1.63018412012511
H            1.08855614451093       -0.84952008654389       -1.71241244747917
H            0.50410930270114       -3.14656291778739       -1.22519855832452
H            1.39486084443196       -2.44248811223482        0.11002434474188
H           -0.38761744624100       -3.81521900875711        0.97296046063857
H           -0.64730388226880       -2.13858841274146        1.41166657919183
H           -2.75913435944545       -3.17614285094386        0.79238400410679
H           -2.35736435027788       -1.84727114105577       -0.27710328731253
H           -3.26684491745753       -3.61535462468767       -1.61993379385777
H           -1.56808834160988       -3.41165457507416       -2.00440437637597
H           -1.74348590405562       -5.70343284611863       -1.93907721629533
H           -1.15408752236891       -5.35264668528750       -0.31428378603436
H           -3.62108876985828       -5.36805972896249        0.44977435618974
H           -4.02866159309244       -5.91658837999379       -1.18127584144012
H           -2.02143383631975       -8.38744122037736        1.53424786345301
H           -1.62037028079661       -6.64608116804602        1.43323406783563
H           -4.01597645741592       -6.49033246572543        4.12148674143810
H           -3.70893917507084       -4.56095346615012        2.68404865671595
H           -1.95915112800696       -4.83818543333034        2.57378991990398
H           -3.45704541368958       -4.21042768955240        5.13974891011454
H           -3.29222113224791       -2.24611231860798        3.60936739679424
H           -2.28440587644695       -2.04773572295578        5.04000908694901
H           -1.54467435023085       -2.48319845126217        3.50256405396057
H           -0.50041199277257       -4.59861998769922        4.50058100062403
H           -1.13772335801693       -4.10042692699384        6.06581074518290
H           -2.41297317193288       -6.16614084432693        6.28568074340054
H           -0.69945195053844       -6.50360939631341        6.04039118815563
H           -1.07040465813713       -7.17923846891194        3.74854028949344
H           -3.24169546995249       -8.28725817490838        5.58716247558238
H           -1.84119806038385       -9.71215610821498        3.28590621234471
H           -2.99641724375466      -10.41311645823412        4.40667486397655
H           -3.54117648272136       -9.17428925499192        3.29083007825612
H           -1.12732139842514       -8.46686351105165        6.77078778662623
H           -1.47398193859997      -10.04668115481076        6.10169408790556
H           -0.28967410029092       -9.01041942352472        5.31293527558924
H           -4.81053584634539       -8.07055151920288       -0.89739051929760
H           -4.27831998224673       -8.99309311781019        0.52302475940896
H           -5.04829522192151       -7.42243393696617        0.74339322118193
H           -2.60254367692057       -7.98547581676600       -1.91881903047097
H           -1.18963084093980       -7.74316070067376       -0.87439936973253
H           -2.23134372006629       -9.15375813317929       -0.64521341079390

          :  Hamiltonian                  GFN2-xTB          :
         :: total energy             -77.212658723183 Eh    ::
         :: gradient norm              0.000164611727 Eh/a0 ::
         :: HOMO-LUMO gap              6.994458518637 eV    ::
         :: SCC energy               -78.274317103427 Eh    ::
         :: -> dispersion             -0.064124267279 Eh    ::
         :: repulsion energy           1.061658380244 Eh    ::

    * Orbital Energies and Occupations

         #    Occupation            Energy/Eh            Energy/eV
      -------------------------------------------------------------
         1        2.0000           -0.8622218             -23.4622
       ...           ...                  ...                  ...
        60        2.0000           -0.5354303             -14.5698
        61        2.0000           -0.5293541             -14.4045
        62        2.0000           -0.5266158             -14.3299
        63        2.0000           -0.5237656             -14.2524
        64        2.0000           -0.5207439             -14.1702
        65        2.0000           -0.5172731             -14.0757
        66        2.0000           -0.5165738             -14.0567
        67        2.0000           -0.5158610             -14.0373
        68        2.0000           -0.5103054             -13.8861
        69        2.0000           -0.5042968             -13.7226
        70        2.0000           -0.4969272             -13.5221
        71        2.0000           -0.4933970             -13.4260
        72        2.0000           -0.4895606             -13.3216 (HOMO)
        73                         -0.2325190              -6.3272 (LUMO)
        74                         -0.1757308              -4.7819
        75                         -0.1459571              -3.9717
        76                         -0.1450648              -3.9474
        77                         -0.1149015              -3.1266
        78                         -0.0725707              -1.9747
        79                         -0.0665070              -1.8097
        80                         -0.0463005              -1.2599
        81                         -0.0441683              -1.2019
        82                         -0.0311139              -0.8467
        83                         -0.0290950              -0.7917
       ...                                ...                  ...
       142                          0.2374339               6.4609
      -------------------------------------------------------------
                  HL-Gap            0.2570416 Eh            6.9945 eV

     #   Z          covCN         q      C6AA      α(0)
     1   6 C        3.751    -0.104    22.549     6.772
     2   6 C        3.799    -0.054    21.546     6.609
     3   6 C        3.801    -0.060    21.660     6.626
     4   6 C        3.800    -0.060    21.659     6.626
     5   6 C        3.800    -0.054    21.548     6.609
     6   6 C        3.800    -0.065    21.745     6.639
     7   6 C        3.801    -0.066    21.759     6.641
     8   6 C        3.799    -0.071    21.852     6.656
     9   6 C        3.757    -0.038    21.314     6.582
    10   7 N        3.619     0.113    19.305     6.526
    11   6 C        3.640     0.121    18.933     6.257
    12   8 O        1.698    -0.314    19.241     5.922
    13   6 C        3.734     0.097    19.062     6.231
    14   6 C        3.810    -0.068    21.789     6.644
    15   6 C        3.855    -0.016    20.829     6.491
    16   6 C        3.755    -0.112    22.701     6.794
    17   6 C        3.811    -0.068    21.788     6.644
    18   6 C        3.809    -0.070    21.839     6.652
    19   6 C        3.848    -0.034    21.140     6.540
    20   6 C        3.850    -0.017    20.836     6.493
    21   6 C        3.756    -0.111    22.680     6.790
    22   6 C        3.757    -0.114    22.737     6.798
    23   6 C        3.723    -0.091    22.351     6.751
    24   6 C        3.717    -0.095    22.434     6.766
    25   1 H        0.925     0.031     2.568     2.506
    26   1 H        0.925     0.038     2.478     2.462
    27   1 H        0.925     0.038     2.471     2.458
    28   1 H        0.924     0.029     2.605     2.524
    29   1 H        0.924     0.035     2.522     2.484
    30   1 H        0.924     0.028     2.611     2.527
    31   1 H        0.924     0.037     2.492     2.469
    32   1 H        0.924     0.024     2.668     2.554
    33   1 H        0.924     0.040     2.445     2.445
    34   1 H        0.924     0.010     2.894     2.660
    35   1 H        0.924     0.044     2.395     2.420
    36   1 H        0.924     0.028     2.612     2.527
    37   1 H        0.925     0.053     2.282     2.362
    38   1 H        0.924     0.040     2.448     2.447
    39   1 H        0.925     0.063     2.168     2.303
    40   1 H        0.925     0.051     2.305     2.374
    41   1 H        0.925     0.052     2.296     2.370
    42   1 H        0.924     0.095     1.827     2.114
    43   1 H        0.924     0.082     1.960     2.189
    44   1 H        0.923     0.070     2.086     2.259
    45   1 H        0.924     0.068     2.109     2.271
    46   1 H        0.924     0.067     2.122     2.278
    47   1 H        0.924     0.033     2.546     2.495
    48   1 H        0.924     0.032     2.556     2.500
    49   1 H        0.924     0.039     2.469     2.457
    50   1 H        0.925     0.040     2.453     2.449
    51   1 H        0.925     0.050     2.314     2.379
    52   1 H        0.925     0.040     2.448     2.447
    53   1 H        0.924     0.036     2.501     2.473
    54   1 H        0.924     0.049     2.328     2.386
    55   1 H        0.924     0.042     2.419     2.432
    56   1 H        0.925     0.055     2.253     2.347
    57   1 H        0.924     0.025     2.656     2.549
    58   1 H        0.924     0.037     2.491     2.468
    59   1 H        0.925     0.024     2.678     2.559
    60   1 H        0.925     0.048     2.343     2.394
    61   1 H        0.925     0.038     2.479     2.462
    62   1 H        0.925     0.045     2.378     2.411
    63   1 H        0.925     0.049     2.331     2.388
    64   1 H        0.925     0.037     2.485     2.465
    65   1 H        0.925     0.094     1.839     2.121
    66   1 H        0.925     0.100     1.786     2.090
    67   1 H        0.925     0.116     1.646     2.006
    68   1 H        0.925     0.102     1.763     2.076
    69   1 H        0.925     0.097     1.812     2.105
    70   1 H        0.925     0.097     1.810     2.104

Wiberg/Mayer (AO) data.
largest (>0.10) Wiberg bond orders for each atom

     #   Z sym  total        # sym  WBO       # sym  WBO       # sym  WBO
 ---------------------------------------------------------------------------
     1   6 C    3.996 --     2 C    1.020    27 H    0.987    26 H    0.987
                            25 H    0.986
     2   6 C    3.998 --     1 C    1.020     3 C    1.008    29 H    0.978
                            28 H    0.976
     3   6 C    3.997 --     2 C    1.008     4 C    1.008    31 H    0.976
                            30 H    0.976
     4   6 C    3.996 --     3 C    1.008     5 C    1.007    32 H    0.975
                            33 H    0.974
     5   6 C    3.997 --     4 C    1.007     6 C    1.007    34 H    0.972
                            35 H    0.970
     6   6 C    3.995 --     7 C    1.009     5 C    1.007    36 H    0.973
                            37 H    0.972
     7   6 C    3.989 --     6 C    1.009     8 C    0.995    38 H    0.976
                            39 H    0.970
     8   6 C    3.986 --     9 C    1.007     7 C    0.995    40 H    0.975
                            41 H    0.965
     9   6 C    3.921 --     8 C    1.007    43 H    0.968    42 H    0.961
                            10 N    0.919
    10   7 N    3.801 --    24 C    0.962    23 C    0.954     9 C    0.919
                            11 C    0.908
    11   6 C    3.931 --    12 O    1.041    45 H    0.952    44 H    0.948
                            10 N    0.908
    12   8 O    2.095 --    11 C    1.041    13 C    0.908
    13   6 C    3.911 --    14 C    0.992    19 C    0.982    46 H    0.957
                            12 O    0.908
    14   6 C    3.995 --    13 C    0.992    15 C    0.992    47 H    0.971
                            48 H    0.967
    15   6 C    3.994 --    16 C    1.008    17 C    0.998    14 C    0.992
                            49 H    0.967
    16   6 C    3.994 --    15 C    1.008    50 H    0.986    51 H    0.985
                            52 H    0.983
    17   6 C    3.996 --    18 C    1.008    15 C    0.998    53 H    0.975
                            54 H    0.974
    18   6 C    3.993 --    17 C    1.008    19 C    0.990    55 H    0.975
                            56 H    0.971
    19   6 C    3.992 --    18 C    0.990    13 C    0.982    20 C    0.981
                            57 H    0.966
    20   6 C    3.993 --    21 C    1.009    22 C    1.008    19 C    0.981
                            58 H    0.968
    21   6 C    3.996 --    20 C    1.009    60 H    0.983    59 H    0.983
                            61 H    0.982
    22   6 C    3.994 --    20 C    1.008    64 H    0.987    62 H    0.983
                            63 H    0.983
    23   6 C    3.920 --    65 H    0.975    66 H    0.974    67 H    0.970
                            10 N    0.954
    24   6 C    3.930 --    69 H    0.974    70 H    0.974    68 H    0.974
                            10 N    0.962
    25   1 H    0.999 --     1 C    0.986
    26   1 H    0.999 --     1 C    0.987
    27   1 H    0.999 --     1 C    0.987
    28   1 H    0.999 --     2 C    0.976
    29   1 H    0.999 --     2 C    0.978
    30   1 H    0.999 --     3 C    0.976
    31   1 H    0.999 --     3 C    0.976
    32   1 H    0.999 --     4 C    0.975
    33   1 H    0.998 --     4 C    0.974
    34   1 H    1.000 --     5 C    0.972
    35   1 H    0.998 --     5 C    0.970
    36   1 H    0.999 --     6 C    0.973
    37   1 H    0.997 --     6 C    0.972
    38   1 H    0.998 --     7 C    0.976
    39   1 H    0.996 --     7 C    0.970
    40   1 H    0.997 --     8 C    0.975
    41   1 H    0.997 --     8 C    0.965
    42   1 H    0.991 --     9 C    0.961
    43   1 H    0.993 --     9 C    0.968
    44   1 H    0.995 --    11 C    0.948
    45   1 H    0.995 --    11 C    0.952
    46   1 H    0.995 --    13 C    0.957
    47   1 H    0.999 --    14 C    0.971
    48   1 H    0.999 --    14 C    0.967
    49   1 H    0.998 --    15 C    0.967
    50   1 H    0.998 --    16 C    0.986
    51   1 H    0.997 --    16 C    0.985
    52   1 H    0.998 --    16 C    0.983
    53   1 H    0.999 --    17 C    0.975
    54   1 H    0.997 --    17 C    0.974
    55   1 H    0.998 --    18 C    0.975
    56   1 H    0.997 --    18 C    0.971
    57   1 H    0.999 --    19 C    0.966
    58   1 H    0.999 --    20 C    0.968
    59   1 H    0.999 --    21 C    0.983
    60   1 H    0.997 --    21 C    0.983
    61   1 H    0.999 --    21 C    0.982
    62   1 H    0.998 --    22 C    0.983
    63   1 H    0.997 --    22 C    0.983
    64   1 H    0.999 --    22 C    0.987
    65   1 H    0.991 --    23 C    0.975
    66   1 H    0.990 --    23 C    0.974
    67   1 H    0.987 --    23 C    0.970
    68   1 H    0.989 --    24 C    0.974
    69   1 H    0.991 --    24 C    0.974
    70   1 H    0.990 --    24 C    0.974
 ---------------------------------------------------------------------------

molecular dipole:
                 x           y           z       tot (Debye)
 q only:       -5.046     -12.725       1.023
   full:       -4.948     -12.858       0.936      35.099

           -------------------------------------------------
          | TOTAL ENERGY              -77.212658723183 Eh   |
          | GRADIENT NORM               0.000164611727 Eh/α |
          | HOMO-LUMO GAP               6.994458518637 eV   |
           -------------------------------------------------

 * finished run on 2024/12/20 at 06:42:02.819
