   * xtb version 6.7.1 (edcfbbe) compiled by 'conda@3ef47c1a292c' on 2024-11-25

   ID    Z sym.   atoms
    1    6 C      1, 3, 4, 6, 7, 9, 10, 12, 13, 15-17, 19, 20, 22-24
    2    8 O      2, 5, 11, 14, 18, 21
    3    7 N      8
    4    1 H      25-62

          program call               : xtb C0355.xyz --opt --namespace C0355 --charge +1
          :  Hamiltonian                  GFN2-xTB          :
 * total energy  :   -82.6515440 Eh     change       -0.1548131E-09 Eh
 * total energy  :   -82.6645099 Eh     change       -0.1296588E-01 Eh
 * total energy  :   -82.6690578 Eh     change       -0.4547902E-02 Eh
 * total energy  :   -82.6697013 Eh     change       -0.6435116E-03 Eh
 * total energy  :   -82.6704455 Eh     change       -0.7442293E-03 Eh
 * total energy  :   -82.6707670 Eh     change       -0.3215088E-03 Eh
 * total energy  :   -82.6711256 Eh     change       -0.3585539E-03 Eh
 * total energy  :   -82.6713752 Eh     change       -0.2496024E-03 Eh
 * total energy  :   -82.6715243 Eh     change       -0.1490604E-03 Eh
 * total energy  :   -82.6716070 Eh     change       -0.8272943E-04 Eh
 * total energy  :   -82.6781587 Eh     change       -0.1704081E-04 Eh
 * total energy  :   -82.6781751 Eh     change       -0.1644237E-04 Eh
 * total energy  :   -82.6781920 Eh     change       -0.1685353E-04 Eh
 * total energy  :   -82.6781995 Eh     change       -0.7528348E-05 Eh
 * total energy  :   -82.6782112 Eh     change       -0.1169415E-04 Eh
 * total energy  :   -82.6782020 Eh     change        0.9207147E-05 Eh
 * total energy  :   -82.6782184 Eh     change       -0.1644300E-04 Eh
 * total energy  :   -82.6782239 Eh     change       -0.5480252E-05 Eh
 * total energy  :   -82.6782286 Eh     change       -0.4672393E-05 Eh
   *** GEOMETRY OPTIMIZATION CONVERGED AFTER 124 ITERATIONS ***

 final structure:
================
62
 xtb: 6.7.1 (edcfbbe)
C            4.73693149189735        1.11094452448618       -1.26089646314027
O            3.59861505833904        0.28531921008259       -1.35463628992524
C            3.38598744693384       -0.22115822378315       -2.65494909495062
C            2.25669363868671       -1.25228801195567       -2.63070787912422
O            0.96355948117554       -0.68436431252803       -2.55704637755741
C            0.63720061919557       -0.15740938943926       -1.28520429980609
C           -0.55179401566271        0.79794595388075       -1.36438142454458
N           -1.85225668177324        0.22949929276342       -1.81915169755229
C           -2.21649793804435       -0.99733817349108       -1.04392399707970
C           -2.32927101916279       -0.85718761320172        0.47288435628259
O           -3.55612899590420       -0.23380034035626        0.80736394527110
C           -3.84860368573496       -0.23772941733820        2.19193338914034
C           -4.22549218443327       -1.61333483627626        2.74411419136622
O           -3.05990157214472       -2.39221245128073        2.91389708900854
C           -3.29614092140249       -3.60127990857970        3.59958793919175
C           -2.96686801310445        1.24150700515275       -1.67078791830907
C           -2.61153722478274        2.69979163453303       -1.39210509736896
O           -1.84346746937547        3.25212389816889       -2.44329536941984
C           -1.65735822151630        4.65066135106655       -2.35289728485301
C           -2.91119857406700        5.46757771937216       -2.66737556192311
O           -3.77937608350223        5.44981635534165       -1.55531747604124
C           -4.86456533837463        6.33941787478931       -1.68532990065697
C           -1.76116051875971       -0.21208170929139       -3.25203693233592
C           -1.31255051997532        0.85466088656161       -4.23648313058712
H            4.80868891630275        1.42048525332354       -0.22082410150153
H            4.63890404860474        1.99379438501067       -1.90286240185457
H            5.64280303697412        0.56505488477678       -1.54418696036451
H            3.13015534840494        0.59583469635708       -3.34669772900314
H            4.29888883554754       -0.71101513872653       -3.02163107684181
H            2.26455283515960       -1.81209057757647       -3.56761854315048
H            2.41763005401376       -1.93936355825851       -1.79115807003903
H            0.45565395379130       -0.98072589590493       -0.57808631765062
H            1.48342132586210        0.42331551008504       -0.89878836333877
H           -0.69437704206214        1.20815867622973       -0.36556134596552
H           -0.31444817901471        1.61522255090798       -2.04568757455456
H           -3.18615944453479       -1.34057436423801       -1.41124383744588
H           -1.47410338022240       -1.76272540884494       -1.26846512602670
H           -2.29924365974431       -1.86426248606979        0.90572100907117
H           -1.49494904097067       -0.29135772217172        0.90851458274989
H           -2.99355492174135        0.15149154121629        2.75881082399902
H           -4.69833494573837        0.43843180012162        2.29889195195303
H           -4.72965906995589       -1.47521332621490        3.71069131001036
H           -4.92497876051865       -2.11294640757079        2.05635054470891
H           -3.69918618310112       -3.41320457966923        4.59995356762538
H           -3.99648512584276       -4.23867015257764        3.04819151773585
H           -2.33384764226525       -4.10148374671216        3.68282667216055
H           -3.55553337644804        1.21088761418759       -2.58733714477281
H           -3.59333026941696        0.91924491468878       -0.83805769084251
H           -3.56204441369442        3.23959600043096       -1.29966272254625
H           -2.08090610892496        2.82285878505038       -0.43776733221953
H           -1.30038817732848        4.91964938890694       -1.35106104326050
H           -0.88631985729030        4.87895651971145       -3.09093814524469
H           -2.60856139364651        6.50001804796430       -2.89279812217452
H           -3.41436846680724        5.05387939575029       -3.55493519550889
H           -5.49160180432233        6.07667349790115       -2.54504776337373
H           -5.44489789033929        6.25373262403884       -0.76943230745778
H           -4.51523467029950        7.37079320953525       -1.80316354798734
H           -1.04883875168301       -1.03541585048343       -3.29683345408964
H           -2.74934319634932       -0.58502064801343       -3.52942575351834
H           -0.23817519210483        0.99881139511709       -4.18454034628977
H           -1.55062092346511        0.51137803115610       -5.23963755225284
H           -1.80727522542843        1.80604982185744       -4.07092712639861

          :  Hamiltonian                  GFN2-xTB          :
         :: total energy             -82.678228579998 Eh    ::
         :: gradient norm              0.000720063459 Eh/a0 ::
         :: HOMO-LUMO gap              7.389515062083 eV    ::
         :: SCC energy               -83.512051187771 Eh    ::
         :: -> dispersion             -0.050404258306 Eh    ::
         :: repulsion energy           0.833822607773 Eh    ::

    * Orbital Energies and Occupations

         #    Occupation            Energy/Eh            Energy/eV
      -------------------------------------------------------------
         1        2.0000           -0.8296230             -22.5752
       ...           ...                  ...                  ...
        61        2.0000           -0.5619205             -15.2906
        62        2.0000           -0.5558051             -15.1242
        63        2.0000           -0.5539847             -15.0747
        64        2.0000           -0.5519006             -15.0180
        65        2.0000           -0.5426593             -14.7665
        66        2.0000           -0.5422937             -14.7566
        67        2.0000           -0.5407733             -14.7152
        68        2.0000           -0.5149275             -14.0119
        69        2.0000           -0.5109884             -13.9047
        70        2.0000           -0.5100054             -13.8780
        71        2.0000           -0.4911287             -13.3643
        72        2.0000           -0.4907495             -13.3540
        73        2.0000           -0.4892792             -13.3140 (HOMO)
        74                         -0.2177195              -5.9244 (LUMO)
        75                         -0.1552733              -4.2252
        76                         -0.1413507              -3.8463
        77                         -0.1369116              -3.7256
        78                         -0.1098917              -2.9903
        79                         -0.0995885              -2.7099
        80                         -0.0967476              -2.6326
        81                         -0.0677694              -1.8441
        82                         -0.0658570              -1.7921
        83                         -0.0636935              -1.7332
        84                         -0.0452322              -1.2308
       ...                                ...                  ...
       134                          0.1887105               5.1351
      -------------------------------------------------------------
                  HL-Gap            0.2715597 Eh            7.3895 eV

     #   Z          covCN         q      C6AA      α(0)
     1   6 C        3.652     0.034    20.299     6.470
     2   8 O        1.700    -0.322    19.387     5.945
     3   6 C        3.701     0.071    19.545     6.322
     4   6 C        3.696     0.065    19.652     6.341
     5   8 O        1.700    -0.319    19.323     5.935
     6   6 C        3.695     0.063    19.694     6.349
     7   6 C        3.748    -0.045    21.438     6.604
     8   7 N        3.616     0.111    19.328     6.530
     9   6 C        3.763    -0.044    21.413     6.596
    10   6 C        3.694     0.064    19.678     6.346
    11   8 O        1.699    -0.323    19.392     5.945
    12   6 C        3.695     0.065    19.650     6.341
    13   6 C        3.700     0.070    19.561     6.325
    14   8 O        1.700    -0.323    19.397     5.946
    15   6 C        3.652     0.034    20.309     6.472
    16   6 C        3.748    -0.057    21.661     6.638
    17   6 C        3.695     0.066    19.633     6.339
    18   8 O        1.700    -0.319    19.324     5.935
    19   6 C        3.696     0.065    19.654     6.342
    20   6 C        3.701     0.071    19.546     6.322
    21   8 O        1.700    -0.322    19.378     5.943
    22   6 C        3.652     0.034    20.300     6.470
    23   6 C        3.762    -0.035    21.247     6.571
    24   6 C        3.751    -0.135    23.156     6.863
    25   1 H        0.925     0.067     2.124     2.279
    26   1 H        0.924     0.035     2.515     2.480
    27   1 H        0.924     0.041     2.433     2.439
    28   1 H        0.923     0.037     2.487     2.466
    29   1 H        0.923     0.039     2.463     2.454
    30   1 H        0.924     0.068     2.113     2.273
    31   1 H        0.924     0.050     2.322     2.383
    32   1 H        0.923     0.037     2.485     2.465
    33   1 H        0.924     0.089     1.891     2.150
    34   1 H        0.925     0.084     1.937     2.177
    35   1 H        0.925     0.125     1.572     1.961
    36   1 H        0.924     0.098     1.808     2.103
    37   1 H        0.925     0.093     1.847     2.126
    38   1 H        0.924     0.088     1.898     2.154
    39   1 H        0.923     0.044     2.391     2.418
    40   1 H        0.924     0.050     2.319     2.382
    41   1 H        0.924     0.069     2.094     2.263
    42   1 H        0.923     0.040     2.444     2.445
    43   1 H        0.923     0.039     2.457     2.451
    44   1 H        0.924     0.041     2.431     2.438
    45   1 H        0.924     0.036     2.498     2.471
    46   1 H        0.925     0.067     2.121     2.277
    47   1 H        0.925     0.098     1.803     2.100
    48   1 H        0.924     0.123     1.593     1.974
    49   1 H        0.924     0.087     1.912     2.162
    50   1 H        0.923     0.041     2.438     2.442
    51   1 H        0.924     0.050     2.321     2.383
    52   1 H        0.924     0.067     2.123     2.279
    53   1 H        0.923     0.039     2.469     2.457
    54   1 H        0.923     0.037     2.485     2.465
    55   1 H        0.924     0.036     2.508     2.476
    56   1 H        0.925     0.067     2.121     2.278
    57   1 H        0.924     0.040     2.443     2.444
    58   1 H        0.925     0.104     1.747     2.067
    59   1 H        0.924     0.071     2.080     2.255
    60   1 H        0.925     0.073     2.053     2.241
    61   1 H        0.925     0.074     2.043     2.235
    62   1 H        0.925     0.085     1.926     2.170

Wiberg/Mayer (AO) data.
largest (>0.10) Wiberg bond orders for each atom

     #   Z sym  total        # sym  WBO       # sym  WBO       # sym  WBO
 ---------------------------------------------------------------------------
     1   6 C    3.945 --     2 O    0.986    25 H    0.979    26 H    0.978
                            27 H    0.977
     2   8 O    2.071 --     3 C    0.986     1 C    0.986
     3   6 C    3.957 --     4 C    0.994     2 O    0.986    28 H    0.966
                            29 H    0.965
     4   6 C    3.948 --     3 C    0.994     5 O    0.976    30 H    0.968
                            31 H    0.967
     5   8 O    2.073 --     6 C    0.985     4 C    0.976
     6   6 C    3.953 --     7 C    1.005     5 O    0.985    32 H    0.961
                            33 H    0.950
     7   6 C    3.935 --     6 C    1.005    34 H    0.959    35 H    0.950
                             8 N    0.938
     8   7 N    3.800 --     9 C    0.940     7 C    0.938    16 C    0.922
                            23 C    0.922
     9   6 C    3.943 --    10 C    1.006    36 H    0.964    37 H    0.962
                             8 N    0.940
    10   6 C    3.951 --     9 C    1.006    11 O    0.983    39 H    0.959
                            38 H    0.951
    11   8 O    2.077 --    10 C    0.983    12 C    0.972
    12   6 C    3.946 --    13 C    0.994    11 O    0.972    41 H    0.967
                            40 H    0.966
    13   6 C    3.957 --    12 C    0.994    14 O    0.986    43 H    0.965
                            42 H    0.965
    14   8 O    2.069 --    13 C    0.986    15 C    0.986
    15   6 C    3.944 --    14 O    0.986    46 H    0.979    45 H    0.979
                            44 H    0.977
    16   6 C    3.928 --    17 C    1.010    47 H    0.964    48 H    0.947
                             8 N    0.922
    17   6 C    3.952 --    16 C    1.010    18 O    0.983    50 H    0.961
                            49 H    0.949
    18   8 O    2.079 --    17 C    0.983    19 C    0.975
    19   6 C    3.948 --    20 C    0.994    18 O    0.975    52 H    0.968
                            51 H    0.966
    20   6 C    3.958 --    19 C    0.994    21 O    0.987    54 H    0.965
                            53 H    0.965
    21   8 O    2.069 --    20 C    0.987    22 C    0.986
    22   6 C    3.945 --    21 O    0.986    56 H    0.979    55 H    0.978
                            57 H    0.977
    23   6 C    3.925 --    24 C    1.022    59 H    0.969    58 H    0.958
                             8 N    0.922
    24   6 C    3.978 --    23 C    1.022    60 H    0.981    61 H    0.975
                            62 H    0.969
    25   1 H    0.995 --     1 C    0.979
    26   1 H    0.999 --     1 C    0.978
    27   1 H    0.998 --     1 C    0.977
    28   1 H    0.999 --     3 C    0.966
    29   1 H    0.998 --     3 C    0.965
    30   1 H    0.995 --     4 C    0.968
    31   1 H    0.998 --     4 C    0.967
    32   1 H    0.999 --     6 C    0.961
    33   1 H    0.992 --     6 C    0.950
    34   1 H    0.993 --     7 C    0.959
    35   1 H    0.984 --     7 C    0.950
    36   1 H    0.990 --     9 C    0.964
    37   1 H    0.991 --     9 C    0.962
    38   1 H    0.992 --    10 C    0.951
    39   1 H    0.998 --    10 C    0.959
    40   1 H    0.997 --    12 C    0.966
    41   1 H    0.995 --    12 C    0.967
    42   1 H    0.998 --    13 C    0.965
    43   1 H    0.998 --    13 C    0.965
    44   1 H    0.998 --    15 C    0.977
    45   1 H    0.999 --    15 C    0.979
    46   1 H    0.995 --    15 C    0.979
    47   1 H    0.990 --    16 C    0.964
    48   1 H    0.985 --    16 C    0.947
    49   1 H    0.992 --    17 C    0.949
    50   1 H    0.998 --    17 C    0.961
    51   1 H    0.997 --    19 C    0.966
    52   1 H    0.995 --    19 C    0.968
    53   1 H    0.998 --    20 C    0.965
    54   1 H    0.999 --    20 C    0.965
    55   1 H    0.999 --    22 C    0.978
    56   1 H    0.995 --    22 C    0.979
    57   1 H    0.998 --    22 C    0.977
    58   1 H    0.989 --    23 C    0.958
    59   1 H    0.995 --    23 C    0.969
    60   1 H    0.995 --    24 C    0.981
    61   1 H    0.994 --    24 C    0.975
    62   1 H    0.993 --    24 C    0.969
 ---------------------------------------------------------------------------

molecular dipole:
                 x           y           z       tot (Debye)
 q only:       -3.119       1.055      -2.815
   full:       -3.082       1.114      -2.609      10.647

           -------------------------------------------------
          | TOTAL ENERGY              -82.678228579998 Eh   |
          | GRADIENT NORM               0.000720063459 Eh/α |
          | HOMO-LUMO GAP               7.389515062083 eV   |
           -------------------------------------------------

 * finished run on 2024/12/20 at 06:41:47.919
