   * xtb version 6.7.1 (edcfbbe) compiled by 'conda@3ef47c1a292c' on 2024-11-25

   ID    Z sym.   atoms
    1    6 C      1-4, 7-11, 13, 15-22
    2    8 O      5, 6, 24, 25
    3    7 N      12, 14, 23
    4    1 H      26-47

          program call               : xtb C0357.xyz --opt --namespace C0357 --charge +1
          :  Hamiltonian                  GFN2-xTB          :
 * total energy  :   -74.3488377 Eh     change       -0.9202665E-09 Eh
 * total energy  :   -74.3586328 Eh     change       -0.9795117E-02 Eh
 * total energy  :   -74.3602199 Eh     change       -0.1587138E-02 Eh
 * total energy  :   -74.3604522 Eh     change       -0.2322405E-03 Eh
 * total energy  :   -74.3607433 Eh     change       -0.2911062E-03 Eh
 * total energy  :   -74.3608412 Eh     change       -0.9795287E-04 Eh
 * total energy  :   -74.3609403 Eh     change       -0.9904203E-04 Eh
 * total energy  :   -74.3610321 Eh     change       -0.9188049E-04 Eh
 * total energy  :   -74.3611429 Eh     change       -0.1107876E-03 Eh
 * total energy  :   -74.3612417 Eh     change       -0.9873763E-04 Eh
 * total energy  :   -74.3632939 Eh     change       -0.1817040E-04 Eh
 * total energy  :   -74.3633060 Eh     change       -0.1207496E-04 Eh
 * total energy  :   -74.3633329 Eh     change       -0.2696435E-04 Eh
 * total energy  :   -74.3633431 Eh     change       -0.1018875E-04 Eh
 * total energy  :   -74.3633656 Eh     change       -0.2244612E-04 Eh
 * total energy  :   -74.3633755 Eh     change       -0.9906687E-05 Eh
 * total energy  :   -74.3633801 Eh     change       -0.4602455E-05 Eh
 * total energy  :   -74.3633869 Eh     change       -0.6791866E-05 Eh
 * total energy  :   -74.3633890 Eh     change       -0.2147470E-05 Eh
   *** GEOMETRY OPTIMIZATION CONVERGED AFTER 71 ITERATIONS ***

 final structure:
================
47
 xtb: 6.7.1 (edcfbbe)
C            0.80703558395156       -0.10416913228392        0.23281434040514
C            0.25305294103412        1.29560403937602        0.47404153190536
C            0.97261886385850        2.33109193794230       -0.38996477601359
C            2.37673049692383        2.68376943968805        0.09847197263362
O            3.13175818093545        2.02870565744016        0.74196822129928
O            2.65933223170217        3.96186030629177       -0.27513603249921
C            1.57366217417028        4.49783149315791       -1.01448605929554
C            0.34858924533352        3.73109718517170       -0.50641710923832
C           -0.10956408478701        4.22891590961717        0.88405539572551
C           -0.26737563538708        5.70308188181834        0.95725452934958
C           -1.27970527700776        6.50579855608380        0.50812431068443
N           -0.95079432807632        7.79657942204087        0.79407634427749
C            0.22706195839642        7.78926223630537        1.41263436300321
N            0.66761715719839        6.53814651447562        1.51831405593537
C            1.89981627790042        6.13922375423826        2.14989736727123
C           -1.80192005818258        8.94377809362692        0.58550995629311
C           -2.83826994103992        9.06717277103484        1.68577331464963
C           -4.11257186077444        9.55177973228744        1.40736365707788
C           -5.05195474035033        9.69040430788124        2.41723195452274
C           -4.74129278394012        9.33291834439130        3.71835725144564
C           -3.47239281227897        8.84260955017124        3.98575255416134
C           -2.51931890483148        8.71693040748501        2.98629422089131
N           -3.10892756894541        8.43347715845277        5.33062947619567
O           -3.90373152645411        8.63883002676504        6.21112461320833
O           -2.02626230410258        7.90174155595798        5.46016269525875
H            0.66324102257726       -0.40409688939019       -0.80252752195745
H            0.29693926042543       -0.82072514344063        0.87013015611050
H            1.86798765981505       -0.13269584059399        0.46225504531832
H           -0.81155763675500        1.31361994158915        0.22948367704079
H            0.36772454031413        1.54060085937277        1.53072827983618
H            1.08845192148710        1.91674947947928       -1.39917841914364
H            1.73195326217323        4.30884210144348       -2.08247170856646
H            1.54935453519709        5.57671147348110       -0.85562234370128
H           -0.47736264849930        3.77866497168214       -1.21532908501640
H           -1.06289249216787        3.75568745314694        1.12107919903874
H            0.61982437002452        3.91175681531790        1.62961622443203
H           -2.19469903013421        6.24261951732094        0.01869630291019
H            0.74832934712301        8.65926783699589        1.76333504992143
H            2.48362264962682        7.02344823874245        2.39447867118095
H            1.68989220698636        5.59414007429580        3.07182670288178
H            2.48656447312657        5.49876222798718        1.48919133964712
H           -1.17792417907618        9.84251341143576        0.56549343814168
H           -2.29792974510578        8.84525900486814       -0.38275576183951
H           -4.37088514319438        9.82971704664514        0.39692924329527
H           -6.03279007241653       10.07326577143581        2.18554944996991
H           -5.45765986648825        9.42311858381817        4.52016500007194
H           -1.54351772032206        8.34453191487335        3.26180891128652

          :  Hamiltonian                  GFN2-xTB          :
         :: total energy             -74.363389003649 Eh    ::
         :: gradient norm              0.000278150101 Eh/a0 ::
         :: HOMO-LUMO gap              2.313941143482 eV    ::
         :: SCC energy               -75.328559566233 Eh    ::
         :: -> dispersion             -0.047741037990 Eh    ::
         :: repulsion energy           0.965170562584 Eh    ::

    * Orbital Energies and Occupations

         #    Occupation            Energy/Eh            Energy/eV
      -------------------------------------------------------------
         1        2.0000           -0.8993259             -24.4719
       ...           ...                  ...                  ...
        54        2.0000           -0.5800336             -15.7835
        55        2.0000           -0.5702881             -15.5183
        56        2.0000           -0.5695838             -15.4992
        57        2.0000           -0.5692341             -15.4896
        58        2.0000           -0.5571822             -15.1617
        59        2.0000           -0.5562520             -15.1364
        60        2.0000           -0.5521472             -15.0247
        61        2.0000           -0.5496814             -14.9576
        62        2.0000           -0.5466022             -14.8738
        63        2.0000           -0.5373430             -14.6218
        64        2.0000           -0.5348157             -14.5531
        65        2.0000           -0.5304926             -14.4354
        66        2.0000           -0.5076936             -13.8150 (HOMO)
        67                         -0.4226578             -11.5011 (LUMO)
        68                         -0.4101540             -11.1609
        69                         -0.3744060             -10.1881
        70                         -0.3732462             -10.1565
        71                         -0.3484323              -9.4813
        72                         -0.3351169              -9.1190
        73                         -0.2386060              -6.4928
        74                         -0.1871343              -5.0922
        75                         -0.1451661              -3.9502
        76                         -0.1241260              -3.3776
        77                         -0.1100449              -2.9945
       ...                                ...                  ...
       122                          0.5874611              15.9856
      -------------------------------------------------------------
                  HL-Gap            0.0850358 Eh            2.3139 eV

     #   Z          covCN         q      C6AA      α(0)
     1   6 C        3.753    -0.116    22.779     6.806
     2   6 C        3.800    -0.056    21.577     6.614
     3   6 C        3.892    -0.057    21.549     6.599
     4   6 C        2.783     0.353    21.005     7.507
     5   8 O        0.856    -0.340    20.522     6.074
     6   8 O        1.706    -0.274    18.538     5.813
     7   6 C        3.782     0.065    19.506     6.291
     8   6 C        3.878    -0.031    21.073     6.527
     9   6 C        3.806    -0.079    22.004     6.678
    10   6 C        3.095     0.046    26.853     8.493
    11   6 C        3.075    -0.025    28.553     8.761
    12   7 N        2.858     0.060    20.186     6.673
    13   6 C        3.082     0.044    26.918     8.505
    14   7 N        2.866     0.060    20.193     6.674
    15   6 C        3.692    -0.087    22.349     6.765
    16   6 C        3.747    -0.029    21.165     6.562
    17   6 C        2.971     0.010    27.789     8.647
    18   6 C        2.923    -0.025    28.619     8.773
    19   6 C        2.921    -0.014    28.361     8.733
    20   6 C        2.917    -0.014    28.370     8.734
    21   6 C        2.917     0.009    27.819     8.649
    22   6 C        2.924    -0.036    28.893     8.815
    23   7 N        2.759     0.552    13.456     5.448
    24   8 O        0.929    -0.347    20.621     6.090
    25   8 O        0.930    -0.389    21.429     6.208
    26   1 H        0.925     0.044     2.398     2.422
    27   1 H        0.925     0.055     2.262     2.352
    28   1 H        0.925     0.066     2.135     2.285
    29   1 H        0.924     0.044     2.400     2.423
    30   1 H        0.924     0.045     2.385     2.415
    31   1 H        0.924     0.080     1.983     2.202
    32   1 H        0.924     0.063     2.164     2.300
    33   1 H        0.924     0.047     2.357     2.401
    34   1 H        0.925     0.057     2.234     2.338
    35   1 H        0.924     0.089     1.893     2.151
    36   1 H        0.925     0.083     1.947     2.182
    37   1 H        0.926     0.100     1.789     2.091
    38   1 H        0.926     0.112     1.682     2.028
    39   1 H        0.925     0.097     1.810     2.104
    40   1 H        0.924     0.106     1.730     2.057
    41   1 H        0.924     0.122     1.599     1.978
    42   1 H        0.924     0.095     1.833     2.118
    43   1 H        0.924     0.097     1.808     2.103
    44   1 H        0.926     0.067     2.118     2.276
    45   1 H        0.926     0.082     1.957     2.188
    46   1 H        0.926     0.102     1.769     2.080
    47   1 H        0.926     0.068     2.112     2.273

Wiberg/Mayer (AO) data.
largest (>0.10) Wiberg bond orders for each atom

     #   Z sym  total        # sym  WBO       # sym  WBO       # sym  WBO
 ---------------------------------------------------------------------------
     1   6 C    3.989 --     2 C    1.017    26 H    0.987    27 H    0.984
                            28 H    0.984
     2   6 C    3.991 --     1 C    1.017     3 C    0.991    30 H    0.976
                            29 H    0.975
     3   6 C    3.987 --     2 C    0.991     8 C    0.979     4 C    0.948
                            31 H    0.934
     4   6 C    3.913 --     5 O    1.828     6 O    1.072     3 C    0.948
     5   8 O    2.115 --     4 C    1.828     6 O    0.159
     6   8 O    2.276 --     4 C    1.072     7 C    0.964     5 O    0.159
     7   6 C    3.940 --     8 C    0.989    33 H    0.969    32 H    0.966
                             6 O    0.964
     8   6 C    3.990 --     7 C    0.989     3 C    0.979    34 H    0.969
                             9 C    0.967
     9   6 C    3.984 --    10 C    1.029     8 C    0.967    36 H    0.961
                            35 H    0.956
    10   6 C    3.952 --    11 C    1.549    14 N    1.193     9 C    1.029
    11   6 C    3.942 --    10 C    1.549    12 N    1.216    37 H    0.963
    12   7 N    3.708 --    13 C    1.353    11 C    1.216    16 C    0.974
    13   6 C    3.944 --    14 N    1.359    12 N    1.353    38 H    0.953
    14   7 N    3.709 --    13 C    1.359    10 C    1.193    15 C    0.988
    15   6 C    3.927 --    14 N    0.988    39 H    0.975    40 H    0.958
                            41 H    0.954
    16   6 C    3.942 --    17 C    0.981    12 N    0.974    43 H    0.958
                            42 H    0.953
    17   6 C    3.983 --    22 C    1.432    18 C    1.401    16 C    0.981
                            20 C    0.103
    18   6 C    3.987 --    19 C    1.442    17 C    1.401    44 H    0.966
    19   6 C    3.985 --    18 C    1.442    20 C    1.439    45 H    0.965
                            22 C    0.109
    20   6 C    3.980 --    19 C    1.439    21 C    1.396    46 H    0.957
                            17 C    0.103
    21   6 C    3.968 --    20 C    1.396    22 C    1.390    23 N    0.946
    22   6 C    3.989 --    17 C    1.432    21 C    1.390    47 H    0.957
                            19 C    0.109
    23   7 N    3.915 --    24 O    1.485    25 O    1.444    21 C    0.946
    24   8 O    1.976 --    23 N    1.485    25 O    0.375
    25   8 O    1.932 --    23 N    1.444    24 O    0.375
    26   1 H    0.998 --     1 C    0.987
    27   1 H    0.997 --     1 C    0.984
    28   1 H    0.996 --     1 C    0.984
    29   1 H    0.998 --     2 C    0.975
    30   1 H    0.998 --     2 C    0.976
    31   1 H    0.992 --     3 C    0.934
    32   1 H    0.996 --     7 C    0.966
    33   1 H    0.997 --     7 C    0.969
    34   1 H    0.997 --     8 C    0.969
    35   1 H    0.992 --     9 C    0.956
    36   1 H    0.993 --     9 C    0.961
    37   1 H    0.990 --    11 C    0.963
    38   1 H    0.987 --    13 C    0.953
    39   1 H    0.990 --    15 C    0.975
    40   1 H    0.988 --    15 C    0.958
    41   1 H    0.985 --    15 C    0.954
    42   1 H    0.990 --    16 C    0.953
    43   1 H    0.990 --    16 C    0.958
    44   1 H    0.995 --    18 C    0.966
    45   1 H    0.992 --    19 C    0.965
    46   1 H    0.989 --    20 C    0.957
    47   1 H    0.995 --    22 C    0.957
 ---------------------------------------------------------------------------

molecular dipole:
                 x           y           z       tot (Debye)
 q only:       -2.390      13.658       0.127
   full:       -2.494      14.010      -0.153      36.171

           -------------------------------------------------
          | TOTAL ENERGY              -74.363389003649 Eh   |
          | GRADIENT NORM               0.000278150101 Eh/α |
          | HOMO-LUMO GAP               2.313941143482 eV   |
           -------------------------------------------------

 * finished run on 2024/12/20 at 06:41:54.860
