   * xtb version 6.7.1 (edcfbbe) compiled by 'conda@3ef47c1a292c' on 2024-11-25

   ID    Z sym.   atoms
    1    7 N      1, 6
    2    6 C      2, 4, 5, 7-11
    3    8 O      3
    4    1 H      12-22

          program call               : xtb C0359.xyz --opt --namespace C0359 --charge +1
          :  Hamiltonian                  GFN2-xTB          :
 * total energy  :   -32.2467649 Eh     change       -0.4146088E-09 Eh
 * total energy  :   -32.2501010 Eh     change       -0.3336061E-02 Eh
 * total energy  :   -32.2509469 Eh     change       -0.8459392E-03 Eh
 * total energy  :   -32.2511077 Eh     change       -0.1607552E-03 Eh
 * total energy  :   -32.2512263 Eh     change       -0.1186214E-03 Eh
 * total energy  :   -32.2513269 Eh     change       -0.1005891E-03 Eh
 * total energy  :   -32.2514624 Eh     change       -0.1355151E-03 Eh
 * total energy  :   -32.2515833 Eh     change       -0.1208540E-03 Eh
 * total energy  :   -32.2517155 Eh     change       -0.1322604E-03 Eh
 * total energy  :   -32.2517264 Eh     change       -0.1089687E-04 Eh
 * total energy  :   -32.2519217 Eh     change       -0.1952980E-03 Eh
 * total energy  :   -32.2520116 Eh     change       -0.8984980E-04 Eh
 * total energy  :   -32.2520514 Eh     change       -0.3985276E-04 Eh
 * total energy  :   -32.2521259 Eh     change       -0.7445144E-04 Eh
 * total energy  :   -32.2521560 Eh     change       -0.3013546E-04 Eh
 * total energy  :   -32.2522056 Eh     change       -0.4960723E-04 Eh
 * total energy  :   -32.2522196 Eh     change       -0.1394845E-04 Eh
 * total energy  :   -32.2522233 Eh     change       -0.3705190E-05 Eh
 * total energy  :   -32.2522253 Eh     change       -0.2056347E-05 Eh
   *** GEOMETRY OPTIMIZATION CONVERGED AFTER 19 ITERATIONS ***

 final structure:
================
22
 xtb: 6.7.1 (edcfbbe)
N           -0.86336838425496        0.48689907626298        0.03222217485219
C            0.34014859062547        1.07072786991898        0.00353616555718
O            0.93471415089988        1.42635360411327        1.00049378905437
C            0.93147720566348        1.22835951072060       -1.40259955992583
C            2.13131585969197        2.18390728055136       -1.42292111314319
N            3.17318489367946        1.74144787836125       -0.50863251893420
C            3.31571574232629        2.33731153339295        0.67809212521599
C            4.22540369689065        1.86361967257304        1.60487655583360
C            4.99494516470519        0.75242676057169        1.29653665689905
C            4.84070281936824        0.15741971276465        0.04887395073320
C            3.91525396736913        0.67519863216712       -0.83020058079474
H           -1.30847182729220        0.34054033927014        0.92557949558567
H           -1.35564260323645        0.20281913504967       -0.79714183262621
H            1.22036106942481        0.23719051270273       -1.75896704135953
H            0.16900393580035        1.61961084266786       -2.07602979015596
H            2.54040101310437        2.23802198776792       -2.43477958103183
H            1.80344307343320        3.17946386318760       -1.11980586733189
H            2.69843912897915        3.19632381518591        0.88993491384520
H            4.31608904239341        2.35844821224045        2.55803002693348
H            5.70325383867422        0.35722954935491        2.00770143671674
H            5.42681357169476       -0.70157084269580       -0.23527516937991
H            3.76052605005929        0.24119105387028       -1.80734423654304

          :  Hamiltonian                  GFN2-xTB          :
         :: total energy             -32.252225331051 Eh    ::
         :: gradient norm              0.000765808709 Eh/a0 ::
         :: HOMO-LUMO gap              2.367428359910 eV    ::
         :: SCC energy               -32.738754692450 Eh    ::
         :: -> dispersion             -0.017375664723 Eh    ::
         :: repulsion energy           0.486529361398 Eh    ::

    * Orbital Energies and Occupations

         #    Occupation            Energy/Eh            Energy/eV
      -------------------------------------------------------------
         1        2.0000           -0.8698611             -23.6701
       ...           ...                  ...                  ...
        17        2.0000           -0.6755078             -18.3815
        18        2.0000           -0.6700523             -18.2330
        19        2.0000           -0.6676125             -18.1667
        20        2.0000           -0.6482447             -17.6396
        21        2.0000           -0.6430943             -17.4995
        22        2.0000           -0.6251020             -17.0099
        23        2.0000           -0.6165110             -16.7761
        24        2.0000           -0.6133813             -16.6910
        25        2.0000           -0.6115318             -16.6406
        26        2.0000           -0.6108964             -16.6233
        27        2.0000           -0.6008737             -16.3506
        28        2.0000           -0.5539209             -15.0730
        29        2.0000           -0.5357204             -14.5777 (HOMO)
        30                         -0.4487190             -12.2103 (LUMO)
        31                         -0.4161024             -11.3227
        32                         -0.3431408              -9.3373
        33                         -0.2967204              -8.0742
        34                         -0.1692874              -4.6065
        35                         -0.1242397              -3.3807
        36                         -0.0704344              -1.9166
        37                         -0.0548104              -1.4915
        38                         -0.0467887              -1.2732
        39                         -0.0311180              -0.8468
        40                         -0.0185307              -0.5042
       ...                                ...                  ...
        55                          0.4988264              13.5738
      -------------------------------------------------------------
                  HL-Gap            0.0870014 Eh            2.3674 eV

     #   Z          covCN         q      C6AA      α(0)
     1   7 N        2.639    -0.250    26.522     7.649
     2   6 C        2.742     0.286    22.157     7.707
     3   8 O        0.859    -0.440    22.487     6.358
     4   6 C        3.805    -0.103    22.463     6.747
     5   6 C        3.760    -0.028    21.125     6.552
     6   7 N        2.750     0.121    19.171     6.503
     7   6 C        2.891     0.053    26.804     8.488
     8   6 C        2.916    -0.007    28.184     8.706
     9   6 C        2.925     0.015    27.669     8.626
    10   6 C        2.916    -0.012    28.326     8.727
    11   6 C        2.893     0.030    27.320     8.570
    12   1 H        0.860     0.220     1.007     1.572
    13   1 H        0.860     0.202     1.098     1.642
    14   1 H        0.924     0.077     2.009     2.217
    15   1 H        0.925     0.091     1.874     2.141
    16   1 H        0.924     0.094     1.844     2.124
    17   1 H        0.924     0.100     1.784     2.089
    18   1 H        0.926     0.126     1.568     1.958
    19   1 H        0.926     0.111     1.686     2.030
    20   1 H        0.926     0.106     1.729     2.056
    21   1 H        0.926     0.105     1.741     2.064
    22   1 H        0.926     0.103     1.759     2.074

Wiberg/Mayer (AO) data.
largest (>0.10) Wiberg bond orders for each atom

     #   Z sym  total        # sym  WBO       # sym  WBO       # sym  WBO
 ---------------------------------------------------------------------------
     1   7 N    3.415 --     2 C    1.305    13 H    0.941    12 H    0.930
                             3 O    0.207
     2   6 C    3.954 --     3 O    1.672     1 N    1.305     4 C    0.954
     3   8 O    2.015 --     2 C    1.672     1 N    0.207
     4   6 C    3.988 --     5 C    0.991    15 H    0.958    14 H    0.957
                             2 C    0.954
     5   6 C    3.944 --     4 C    0.991     6 N    0.966    17 H    0.965
                            16 H    0.961
     6   7 N    3.768 --     7 C    1.332    11 C    1.320     5 C    0.966
     7   6 C    3.949 --     8 C    1.438     6 N    1.332    18 H    0.950
     8   6 C    3.979 --     9 C    1.438     7 C    1.438    19 H    0.958
                            11 C    0.101
     9   6 C    3.971 --     8 C    1.438    10 C    1.408    20 H    0.961
    10   6 C    3.982 --    11 C    1.474     9 C    1.408    21 H    0.960
    11   6 C    3.960 --    10 C    1.474     6 N    1.320    22 H    0.956
                             8 C    0.101
    12   1 H    0.951 --     1 N    0.930
    13   1 H    0.959 --     1 N    0.941
    14   1 H    0.994 --     4 C    0.957
    15   1 H    0.991 --     4 C    0.958
    16   1 H    0.991 --     5 C    0.961
    17   1 H    0.990 --     5 C    0.965
    18   1 H    0.984 --     7 C    0.950
    19   1 H    0.987 --     8 C    0.958
    20   1 H    0.989 --     9 C    0.961
    21   1 H    0.989 --    10 C    0.960
    22   1 H    0.989 --    11 C    0.956
 ---------------------------------------------------------------------------

molecular dipole:
                 x           y           z       tot (Debye)
 q only:        5.221       2.238      -0.993
   full:        5.001       2.136      -1.205      14.158

           -------------------------------------------------
          | TOTAL ENERGY              -32.252225331051 Eh   |
          | GRADIENT NORM               0.000765808709 Eh/α |
          | HOMO-LUMO GAP               2.367428359910 eV   |
           -------------------------------------------------

 * finished run on 2024/12/20 at 06:42:03.332
