   * xtb version 6.7.1 (edcfbbe) compiled by 'conda@3ef47c1a292c' on 2024-11-25

   ID    Z sym.   atoms
    1   17 Cl     1, 8
    2    6 C      2-7, 9, 11, 12, 14
    3    7 N      10, 13
    4    8 O      15
    5    1 H      16-24

          program call               : xtb C0369.xyz --opt --namespace C0369 --charge +1
          :  Hamiltonian                  GFN2-xTB          :
 * total energy  :   -44.5771596 Eh     change       -0.7148415E-09 Eh
 * total energy  :   -44.5822174 Eh     change       -0.5057773E-02 Eh
 * total energy  :   -44.5835119 Eh     change       -0.1294485E-02 Eh
 * total energy  :   -44.5836812 Eh     change       -0.1692471E-03 Eh
 * total energy  :   -44.5837864 Eh     change       -0.1052351E-03 Eh
 * total energy  :   -44.5838174 Eh     change       -0.3104092E-04 Eh
 * total energy  :   -44.5838545 Eh     change       -0.3712050E-04 Eh
 * total energy  :   -44.5838993 Eh     change       -0.4472347E-04 Eh
 * total energy  :   -44.5839177 Eh     change       -0.1842741E-04 Eh
 * total energy  :   -44.5839371 Eh     change       -0.1940948E-04 Eh
 * total energy  :   -44.5839450 Eh     change       -0.7931157E-05 Eh
 * total energy  :   -44.5839463 Eh     change       -0.1244189E-05 Eh
   *** GEOMETRY OPTIMIZATION CONVERGED AFTER 12 ITERATIONS ***

 final structure:
================
24
 xtb: 6.7.1 (edcfbbe)
Cl          -2.84279557669746        0.45383714217096       -0.21252884801525
C           -1.26967301363855       -0.21932623190906       -0.10765993226621
C           -1.06771317468702       -1.56970036658141       -0.36925607926621
C            0.20566952209128       -2.09642447031048       -0.27936159180887
C            1.29485264683213       -1.30535894538657        0.07016528696719
C            1.07183857637173        0.04741545510843        0.32519062916806
C           -0.19791531939128        0.59228329477630        0.24312025543142
Cl           2.38071357815322        1.08544370862196        0.77400059459999
C            2.67991907902571       -1.90157852596419        0.15429862044103
N            3.37804610868643       -1.74093776392639       -1.10837350317331
C            4.14965044502693       -0.68364589022388       -1.46363391910291
C            4.55717038390307       -0.88039226707944       -2.75218620664871
N            4.01472678912833       -2.05946358464989       -3.14679968461020
C            3.30153535482357       -2.57138951613972       -2.14785557012555
O            4.14182584293057       -2.67198336566542       -4.34407807702705
H           -1.90262412971178       -2.19758054724102       -0.63336060787319
H            0.35370300641312       -3.14892552757927       -0.46839807653012
H           -0.35767212918780        1.63800620201612        0.45195151119646
H            3.25730038946035       -1.39323849050629        0.92865379382514
H            2.61505450441119       -2.96634656488859        0.38321656395123
H            4.34976854294780        0.13069687859990       -0.79620491691558
H            5.17857142151134       -0.27541514334101       -3.38197311062867
H            2.77032740387527       -3.50156510351988       -2.19700321540276
H            4.71539974772144       -2.15675037638098       -4.93680391618591

          :  Hamiltonian                  GFN2-xTB          :
         :: total energy             -44.583946284461 Eh    ::
         :: gradient norm              0.000440312542 Eh/a0 ::
         :: HOMO-LUMO gap              2.600958804401 eV    ::
         :: SCC energy               -45.131266094403 Eh    ::
         :: -> dispersion             -0.025396996170 Eh    ::
         :: repulsion energy           0.547319809942 Eh    ::

    * Orbital Energies and Occupations

         #    Occupation            Energy/Eh            Energy/eV
      -------------------------------------------------------------
         1        2.0000           -1.1780096             -32.0553
       ...           ...                  ...                  ...
        27        2.0000           -0.6253566             -17.0168
        28        2.0000           -0.6246865             -16.9986
        29        2.0000           -0.6194105             -16.8550
        30        2.0000           -0.6080318             -16.5454
        31        2.0000           -0.5972309             -16.2515
        32        2.0000           -0.5860124             -15.9462
        33        2.0000           -0.5783340             -15.7373
        34        2.0000           -0.5694149             -15.4946
        35        2.0000           -0.5638040             -15.3419
        36        2.0000           -0.5439228             -14.8009
        37        2.0000           -0.5276667             -14.3585
        38        2.0000           -0.5205130             -14.1639
        39        2.0000           -0.5107790             -13.8990 (HOMO)
        40                         -0.4151956             -11.2980 (LUMO)
        41                         -0.3827581             -10.4154
        42                         -0.3704131             -10.0795
        43                         -0.3656622              -9.9502
        44                         -0.2682156              -7.2985
        45                         -0.2602904              -7.0829
        46                         -0.2432245              -6.6185
        47                         -0.2291684              -6.2360
        48                         -0.1478542              -4.0233
        49                         -0.1109275              -3.0185
        50                         -0.1065011              -2.8980
       ...                                ...                  ...
        79                          0.4956468              13.4872
      -------------------------------------------------------------
                  HL-Gap            0.0955835 Eh            2.6010 eV

     #   Z          covCN         q      C6AA      α(0)
     1  17 Cl       0.971    -0.101   102.311    15.475
     2   6 C        2.887     0.110    25.570     8.290
     3   6 C        2.952    -0.039    28.958     8.826
     4   6 C        2.926    -0.033    28.830     8.805
     5   6 C        2.997    -0.013    28.327     8.731
     6   6 C        2.890     0.093    25.935     8.349
     7   6 C        3.000    -0.046    29.136     8.854
     8  17 Cl       0.967    -0.145   103.693    15.579
     9   6 C        3.747    -0.039    21.332     6.588
    10   7 N        2.875     0.083    19.805     6.610
    11   6 C        3.082    -0.006    28.087     8.688
    12   6 C        3.047    -0.034    28.794     8.801
    13   7 N        2.900     0.221    17.630     6.236
    14   6 C        3.073     0.028    27.306     8.568
    15   8 O        1.724    -0.299    18.972     5.881
    16   1 H        0.926     0.091     1.867     2.137
    17   1 H        0.926     0.068     2.102     2.267
    18   1 H        0.926     0.096     1.818     2.109
    19   1 H        0.924     0.117     1.641     2.003
    20   1 H        0.924     0.101     1.779     2.086
    21   1 H        0.926     0.133     1.509     1.921
    22   1 H        0.926     0.117     1.641     2.003
    23   1 H        0.926     0.137     1.482     1.904
    24   1 H        0.804     0.361     0.563     1.179

Wiberg/Mayer (AO) data.
largest (>0.10) Wiberg bond orders for each atom

     #   Z sym  total        # sym  WBO       # sym  WBO       # sym  WBO
 ---------------------------------------------------------------------------
     1  17 Cl   1.191 --     2 C    1.031
     2   6 C    3.934 --     7 C    1.388     3 C    1.381     1 Cl   1.031
     3   6 C    3.984 --     4 C    1.453     2 C    1.381    16 H    0.962
     4   6 C    3.988 --     3 C    1.453     5 C    1.403    17 H    0.964
                             7 C    0.101
     5   6 C    3.977 --     4 C    1.403     6 C    1.365     9 C    0.986
     6   6 C    3.925 --     7 C    1.418     5 C    1.365     8 Cl   0.987
     7   6 C    3.983 --     6 C    1.418     2 C    1.388    18 H    0.960
                             4 C    0.101
     8  17 Cl   1.141 --     6 C    0.987
     9   6 C    3.931 --     5 C    0.986    20 H    0.960    10 N    0.955
                            19 H    0.953
    10   7 N    3.721 --    14 C    1.347    11 C    1.251     9 C    0.955
    11   6 C    3.944 --    12 C    1.562    10 N    1.251    21 H    0.951
    12   6 C    3.934 --    11 C    1.562    13 N    1.218    22 H    0.958
    13   7 N    3.729 --    14 C    1.339    12 C    1.218    15 O    1.033
    14   6 C    3.931 --    10 N    1.347    13 N    1.339    23 H    0.949
    15   8 O    2.046 --    13 N    1.033    24 H    0.854
    16   1 H    0.991 --     3 C    0.962
    17   1 H    0.995 --     4 C    0.964
    18   1 H    0.990 --     7 C    0.960
    19   1 H    0.985 --     9 C    0.953
    20   1 H    0.989 --     9 C    0.960
    21   1 H    0.982 --    11 C    0.951
    22   1 H    0.986 --    12 C    0.958
    23   1 H    0.981 --    14 C    0.949
    24   1 H    0.869 --    15 O    0.854
 ---------------------------------------------------------------------------

molecular dipole:
                 x           y           z       tot (Debye)
 q only:        6.404      -3.513      -3.769
   full:        6.211      -2.965      -3.689      19.848

           -------------------------------------------------
          | TOTAL ENERGY              -44.583946284461 Eh   |
          | GRADIENT NORM               0.000440312542 Eh/α |
          | HOMO-LUMO GAP               2.600958804401 eV   |
           -------------------------------------------------

 * finished run on 2024/12/20 at 06:42:18.035
