   * xtb version 6.7.1 (edcfbbe) compiled by 'conda@3ef47c1a292c' on 2024-11-25

   ID    Z sym.   atoms
    1    6 C      1, 3-17
    2    7 N      2
    3    1 H      18-37

          program call               : xtb C0366.xyz --opt --namespace C0366 --charge +1
          :  Hamiltonian                  GFN2-xTB          :
 * total energy  :   -46.9479917 Eh     change       -0.3668816E-09 Eh
 * total energy  :   -46.9557627 Eh     change       -0.7771054E-02 Eh
 * total energy  :   -46.9576911 Eh     change       -0.1928408E-02 Eh
 * total energy  :   -46.9580035 Eh     change       -0.3123697E-03 Eh
 * total energy  :   -46.9583170 Eh     change       -0.3134390E-03 Eh
 * total energy  :   -46.9585291 Eh     change       -0.2121444E-03 Eh
 * total energy  :   -46.9588139 Eh     change       -0.2848237E-03 Eh
 * total energy  :   -46.9592257 Eh     change       -0.4117639E-03 Eh
 * total energy  :   -46.9596923 Eh     change       -0.4666389E-03 Eh
 * total energy  :   -46.9601219 Eh     change       -0.4295402E-03 Eh
 * total energy  :   -46.9611650 Eh     change       -0.8509571E-04 Eh
 * total energy  :   -46.9612076 Eh     change       -0.4255288E-04 Eh
 * total energy  :   -46.9612228 Eh     change       -0.1518526E-04 Eh
 * total energy  :   -46.9612400 Eh     change       -0.1726298E-04 Eh
 * total energy  :   -46.9612429 Eh     change       -0.2889150E-05 Eh
 * total energy  :   -46.9612472 Eh     change       -0.4303063E-05 Eh
 * total energy  :   -46.9612496 Eh     change       -0.2409268E-05 Eh
 * total energy  :   -46.9612549 Eh     change       -0.5251649E-05 Eh
 * total energy  :   -46.9612581 Eh     change       -0.3217726E-05 Eh
   *** GEOMETRY OPTIMIZATION CONVERGED AFTER 23 ITERATIONS ***

 final structure:
================
37
 xtb: 6.7.1 (edcfbbe)
C            1.37853219081424       -1.00092489782493       -0.22844394907375
N            0.69827895321412       -0.19736580521862       -1.26930843302246
C            0.65521217520665        1.21495698029624       -0.81196212669744
C           -0.04141792750860        1.51230600557903        0.35508838467643
C           -0.10275237332921        2.81430781645793        0.81838058270300
C            0.53030657234847        3.83269590077565        0.12586204852573
C            1.22106680700883        3.53686279063845       -1.03442573505863
C            1.28628463612314        2.23411726077828       -1.50833219786965
C           -0.69488864032681       -0.72169998306185       -1.46265237975488
C           -1.63526854217354        0.19673108079407       -2.24963136856803
C           -1.31370910901835        0.33095842539737       -3.71681192831220
C           -1.45585481087271       -0.75910308489622       -4.56839194125742
C           -1.17249368713298       -0.63746410759203       -5.91706710794963
C           -0.74651715606297        0.57652780875747       -6.43057080743863
C           -0.61190494834330        1.66984510970837       -5.59199371797205
C           -0.89461005072716        1.54811316597147       -4.24169659168955
C            1.46263337721284       -0.37392693078361       -2.51941304762719
H            1.41102590023641       -2.04717365610189       -0.52823760249113
H            0.86178064532077       -0.92597156575965        0.72498041017248
H            2.39641533432958       -0.63696042149841       -0.09642388068924
H           -0.55368448850107        0.74615577758697        0.91452260018874
H           -0.64914534405688        3.02806912202248        1.72285418974733
H            0.48245491487383        4.84701303910720        0.48758044906886
H            1.71734499252367        4.31953420275106       -1.58630937077423
H            1.82980663164974        2.05546054874952       -2.41967765547941
H           -0.61376537198243       -1.68564374154619       -1.96827456526626
H           -1.12747074067788       -0.89170865728113       -0.47587973072095
H           -2.63217906522881       -0.24125069431617       -2.15405383236681
H           -1.66893814285516        1.18448952482886       -1.78765388354343
H           -1.80900333073626       -1.70297141956369       -4.17800795417206
H           -1.29519975642357       -1.48776957862989       -6.56960869441840
H           -0.53293695358164        0.67306817861512       -7.48323302912429
H           -0.29481615867418        2.62182720401277       -5.98900051231327
H           -0.80207692312503        2.40790745786621       -3.59203170354088
H            0.99935559945511        0.18335532606291       -3.33118592689742
H            2.49197789747378       -0.04988925257317       -2.38051694172338
H            1.46934689354775       -1.42900893011290       -2.78779204927343

          :  Hamiltonian                  GFN2-xTB          :
         :: total energy             -46.961258091885 Eh    ::
         :: gradient norm              0.000571929440 Eh/a0 ::
         :: HOMO-LUMO gap              3.618852475467 eV    ::
         :: SCC energy               -47.790298480349 Eh    ::
         :: -> dispersion             -0.038315605960 Eh    ::
         :: repulsion energy           0.829040388463 Eh    ::

    * Orbital Energies and Occupations

         #    Occupation            Energy/Eh            Energy/eV
      -------------------------------------------------------------
         1        2.0000           -0.8548013             -23.2603
       ...           ...                  ...                  ...
        32        2.0000           -0.6015123             -16.3680
        33        2.0000           -0.5867412             -15.9660
        34        2.0000           -0.5834454             -15.8764
        35        2.0000           -0.5805715             -15.7982
        36        2.0000           -0.5777779             -15.7221
        37        2.0000           -0.5711327             -15.5413
        38        2.0000           -0.5631457             -15.3240
        39        2.0000           -0.5524826             -15.0338
        40        2.0000           -0.5503004             -14.9744
        41        2.0000           -0.5315633             -14.4646
        42        2.0000           -0.5277050             -14.3596
        43        2.0000           -0.5126238             -13.9492
        44        2.0000           -0.5085936             -13.8395 (HOMO)
        45                         -0.3756032             -10.2207 (LUMO)
        46                         -0.3689252             -10.0390
        47                         -0.3341445              -9.0925
        48                         -0.3310168              -9.0074
        49                         -0.2421962              -6.5905
        50                         -0.2241108              -6.0984
        51                         -0.2043448              -5.5605
        52                         -0.1594681              -4.3393
        53                         -0.1331757              -3.6239
        54                         -0.1264024              -3.4396
        55                         -0.0638220              -1.7367
       ...                                ...                  ...
        88                          0.5548783              15.0990
      -------------------------------------------------------------
                  HL-Gap            0.1329904 Eh            3.6189 eV

     #   Z          covCN         q      C6AA      α(0)
     1   6 C        3.729    -0.087    22.256     6.735
     2   7 N        3.623     0.122    19.148     6.499
     3   6 C        2.928     0.036    27.189     8.551
     4   6 C        2.922    -0.038    28.947     8.823
     5   6 C        2.921    -0.018    28.452     8.747
     6   6 C        2.918    -0.016    28.408     8.740
     7   6 C        2.922    -0.018    28.450     8.747
     8   6 C        2.919    -0.038    28.950     8.823
     9   6 C        3.759    -0.031    21.173     6.560
    10   6 C        3.806    -0.076    21.940     6.668
    11   6 C        2.968    -0.002    28.078     8.692
    12   6 C        2.923    -0.042    29.042     8.838
    13   6 C        2.919    -0.025    28.636     8.775
    14   6 C        2.920    -0.025    28.635     8.775
    15   6 C        2.919    -0.027    28.686     8.783
    16   6 C        2.923    -0.044    29.095     8.846
    17   6 C        3.720    -0.090    22.342     6.751
    18   1 H        0.925     0.093     1.847     2.125
    19   1 H        0.925     0.095     1.828     2.114
    20   1 H        0.925     0.095     1.831     2.116
    21   1 H        0.926     0.053     2.285     2.364
    22   1 H        0.926     0.071     2.071     2.250
    23   1 H        0.926     0.074     2.039     2.233
    24   1 H        0.926     0.071     2.071     2.250
    25   1 H        0.926     0.063     2.159     2.298
    26   1 H        0.924     0.083     1.948     2.183
    27   1 H        0.924     0.080     1.978     2.200
    28   1 H        0.924     0.078     2.002     2.212
    29   1 H        0.924     0.057     2.232     2.336
    30   1 H        0.926     0.035     2.517     2.481
    31   1 H        0.926     0.051     2.309     2.376
    32   1 H        0.926     0.053     2.283     2.363
    33   1 H        0.926     0.048     2.346     2.395
    34   1 H        0.925     0.029     2.607     2.525
    35   1 H        0.925     0.106     1.733     2.058
    36   1 H        0.925     0.093     1.850     2.127
    37   1 H        0.925     0.090     1.882     2.146

Wiberg/Mayer (AO) data.
largest (>0.10) Wiberg bond orders for each atom

     #   Z sym  total        # sym  WBO       # sym  WBO       # sym  WBO
 ---------------------------------------------------------------------------
     1   6 C    3.931 --    20 H    0.976    18 H    0.975    19 H    0.973
                             2 N    0.954
     2   7 N    3.804 --    17 C    0.960     1 C    0.954     9 C    0.918
                             3 C    0.909
     3   6 C    3.925 --     8 C    1.426     4 C    1.404     2 N    0.909
                             6 C    0.108
     4   6 C    3.990 --     5 C    1.447     3 C    1.404    21 H    0.961
                             7 C    0.112
     5   6 C    3.988 --     4 C    1.447     6 C    1.431    22 H    0.967
                             8 C    0.109
     6   6 C    3.986 --     7 C    1.448     5 C    1.431    23 H    0.967
                             3 C    0.108
     7   6 C    3.988 --     6 C    1.448     8 C    1.426    24 H    0.967
                             4 C    0.112
     8   6 C    3.989 --     7 C    1.426     3 C    1.426    25 H    0.962
                             5 C    0.109
     9   6 C    3.931 --    10 C    0.998    27 H    0.967    26 H    0.966
                             2 N    0.918
    10   6 C    3.983 --    11 C    1.004     9 C    0.998    29 H    0.968
                            28 H    0.956
    11   6 C    3.986 --    16 C    1.410    12 C    1.409    10 C    1.004
                            14 C    0.110
    12   6 C    3.992 --    13 C    1.448    11 C    1.409    30 H    0.968
                            15 C    0.112
    13   6 C    3.991 --    12 C    1.448    14 C    1.436    31 H    0.970
                            16 C    0.110
    14   6 C    3.990 --    15 C    1.442    13 C    1.436    32 H    0.970
                            11 C    0.110
    15   6 C    3.991 --    14 C    1.442    16 C    1.439    33 H    0.970
                            12 C    0.112
    16   6 C    3.992 --    15 C    1.439    11 C    1.410    34 H    0.968
                            13 C    0.110
    17   6 C    3.927 --    36 H    0.974    37 H    0.974     2 N    0.960
                            35 H    0.960
    18   1 H    0.990 --     1 C    0.975
    19   1 H    0.991 --     1 C    0.973
    20   1 H    0.991 --     1 C    0.976
    21   1 H    0.997 --     4 C    0.961
    22   1 H    0.994 --     5 C    0.967
    23   1 H    0.994 --     6 C    0.967
    24   1 H    0.994 --     7 C    0.967
    25   1 H    0.996 --     8 C    0.962
    26   1 H    0.992 --     9 C    0.966
    27   1 H    0.993 --     9 C    0.967
    28   1 H    0.994 --    10 C    0.956
    29   1 H    0.996 --    10 C    0.968
    30   1 H    0.999 --    12 C    0.968
    31   1 H    0.997 --    13 C    0.970
    32   1 H    0.997 --    14 C    0.970
    33   1 H    0.997 --    15 C    0.970
    34   1 H    0.999 --    16 C    0.968
    35   1 H    0.989 --    17 C    0.960
    36   1 H    0.991 --    17 C    0.974
    37   1 H    0.991 --    17 C    0.974
 ---------------------------------------------------------------------------

molecular dipole:
                 x           y           z       tot (Debye)
 q only:        1.077       0.535      -2.708
   full:        1.055       0.427      -2.650       7.331

           -------------------------------------------------
          | TOTAL ENERGY              -46.961258091885 Eh   |
          | GRADIENT NORM               0.000571929440 Eh/α |
          | HOMO-LUMO GAP               3.618852475467 eV   |
           -------------------------------------------------

 * finished run on 2024/12/20 at 06:42:12.869
