   * xtb version 6.7.1 (edcfbbe) compiled by 'conda@3ef47c1a292c' on 2024-11-25

   ID    Z sym.   atoms
    1    6 C      1-14, 16-24
    2    7 N      15
    3    1 H      25-66

          program call               : xtb C0362.xyz --opt --namespace C0362 --charge +1
          :  Hamiltonian                  GFN2-xTB          :
 * total energy  :   -73.2008570 Eh     change       -0.3677954E-08 Eh
 * total energy  :   -73.2082251 Eh     change       -0.7368077E-02 Eh
 * total energy  :   -73.2099638 Eh     change       -0.1738716E-02 Eh
 * total energy  :   -73.2101433 Eh     change       -0.1794518E-03 Eh
 * total energy  :   -73.2102982 Eh     change       -0.1549396E-03 Eh
 * total energy  :   -73.2103825 Eh     change       -0.8435259E-04 Eh
 * total energy  :   -73.2105056 Eh     change       -0.1230866E-03 Eh
 * total energy  :   -73.2106010 Eh     change       -0.9531707E-04 Eh
 * total energy  :   -73.2106554 Eh     change       -0.5442650E-04 Eh
 * total energy  :   -73.2106770 Eh     change       -0.2158006E-04 Eh
 * total energy  :   -73.2113022 Eh     change       -0.4917712E-04 Eh
 * total energy  :   -73.2113593 Eh     change       -0.5703317E-04 Eh
 * total energy  :   -73.2114142 Eh     change       -0.5487839E-04 Eh
 * total energy  :   -73.2114481 Eh     change       -0.3395138E-04 Eh
 * total energy  :   -73.2114822 Eh     change       -0.3413471E-04 Eh
 * total energy  :   -73.2114916 Eh     change       -0.9362149E-05 Eh
 * total energy  :   -73.2114980 Eh     change       -0.6389117E-05 Eh
 * total energy  :   -73.2115050 Eh     change       -0.7051412E-05 Eh
 * total energy  :   -73.2115077 Eh     change       -0.2631983E-05 Eh
   *** GEOMETRY OPTIMIZATION CONVERGED AFTER 47 ITERATIONS ***

 final structure:
================
66
 xtb: 6.7.1 (edcfbbe)
C            0.75800344033487       -0.60003357597129        0.51161257760630
C            0.66125741571566        0.92080228360188        0.50430753404076
C            1.14238349703015        1.54942402195330       -0.80424021009472
C            0.33918342952632        1.15503385402807       -2.04556876469461
C           -1.15210393886596        1.49241105434725       -1.98740379176930
C           -1.47294592294610        2.96790760482045       -1.74095971602933
C           -0.87540054704884        3.93804358508901       -2.76147747142280
C           -1.31872676183785        3.71016108504804       -4.20765470170570
C           -2.82610925063807        3.82000651174198       -4.44768840463149
C           -3.45099390783425        5.15169825204837       -4.02602277853492
C           -2.82699069997062        6.38870312938360       -4.67473085904728
C           -2.86379853126107        6.41033717771973       -6.20477195450033
C           -4.26193108173406        6.28606222575553       -6.82378445113843
C           -5.26755738467890        7.36616667311892       -6.40992430028597
N           -5.41253818495360        8.54166099235631       -7.32247913261229
C           -6.04113628527919        8.15209167106246       -8.63175902269530
C           -7.41518024558496        7.54661922668305       -8.50792763746756
C           -8.54868779118483        8.35195412073181       -8.56586024199384
C           -9.81104219275340        7.79330985440264       -8.46976177675067
C           -9.95535142055036        6.42418439159755       -8.31934880810963
C           -8.83355337415922        5.61309959533159       -8.27992311970640
C           -7.57028074879319        6.16971116233486       -8.37697888251921
C           -6.27035126990593        9.53215270855796       -6.64515960940463
C           -4.10785308600160        9.16662621793106       -7.59589236149197
H            0.07476253905736       -1.04109069563650       -0.20968970138080
H            0.50593173681206       -0.98814775772856        1.49578626118924
H            1.76940603140900       -0.91782713865777        0.26772812706120
H           -0.36870600206538        1.22096206576585        0.70529240686445
H            1.27798859087347        1.31636713302955        1.31515059950150
H            1.13014716552857        2.63604040053150       -0.69449975757893
H            2.18178545413669        1.25398585710890       -0.96899328185262
H            0.78778244058842        1.64665027764812       -2.91196710308683
H            0.43693428892710        0.07985496864784       -2.20645545776327
H           -1.61112624433408        1.17285293206566       -2.92609956791610
H           -1.61991885881291        0.90876258308593       -1.19237395656414
H           -2.55933583511637        3.08371784627188       -1.72148732268063
H           -1.10621140604515        3.25121794028209       -0.75274978022684
H           -1.13121715550783        4.95584428413357       -2.45709367169880
H            0.21261978457336        3.86288465629278       -2.72852407400630
H           -0.79452619411920        4.42765125973046       -4.84389328038239
H           -1.00046480514377        2.71595962949082       -4.52479811049361
H           -3.01741381325959        3.64276878690221       -5.50922992393731
H           -3.33242967859473        3.02478430895275       -3.89870464854482
H           -4.52205359235164        5.11948832634291       -4.24400682357336
H           -3.35394793303548        5.25936409218296       -2.94511777230355
H           -3.32193103224930        7.27652050339649       -4.26985082768898
H           -1.78179783333530        6.45528589140113       -4.37244761732908
H           -2.36522882021795        7.31919956246610       -6.54541870689337
H           -2.27499235933723        5.57094855736768       -6.57519930814446
H           -4.16110961998527        6.23863478257405       -7.90876448488929
H           -4.67494656050747        5.32680967480530       -6.51060417869796
H           -6.26266763980580        6.92612065752701       -6.32178823414393
H           -4.98285039917265        7.74926383694496       -5.42907242871353
H           -6.09351876107955        9.05520592972846       -9.24363828743379
H           -5.37392652592177        7.44382533102661       -9.12491540246391
H           -8.45024317443680        9.41845549003451       -8.70748315896078
H          -10.68147106892301        8.42808960223360       -8.52126348550527
H          -10.93948767147272        5.98922615929178       -8.24804648997758
H           -8.94042421453819        4.54422990496568       -8.18267257860003
H           -6.70352882267393        5.52517164759259       -8.37073286420035
H           -5.79614482968948        9.87188640195260       -5.72613504897020
H           -6.42995657103662       10.39309809171148       -7.29176625396022
H           -7.23536259974556        9.09061456409149       -6.40330472497991
H           -3.61546451559930        9.42024352620557       -6.65888640938268
H           -3.47097495304045        8.49055002544335       -8.16069426565496
H           -4.24436369746459       10.07801427870684       -8.17607051920170

          :  Hamiltonian                  GFN2-xTB          :
         :: total energy             -73.211507676209 Eh    ::
         :: gradient norm              0.000292704644 Eh/a0 ::
         :: HOMO-LUMO gap              2.820928871284 eV    ::
         :: SCC energy               -74.353185063386 Eh    ::
         :: -> dispersion             -0.059468419238 Eh    ::
         :: repulsion energy           1.141677387177 Eh    ::

    * Orbital Energies and Occupations

         #    Occupation            Energy/Eh            Energy/eV
      -------------------------------------------------------------
         1        2.0000           -0.8560044             -23.2931
       ...           ...                  ...                  ...
        57        2.0000           -0.5271620             -14.3448
        58        2.0000           -0.5224667             -14.2170
        59        2.0000           -0.5163304             -14.0501
        60        2.0000           -0.5117974             -13.9267
        61        2.0000           -0.5037922             -13.7089
        62        2.0000           -0.4994479             -13.5907
        63        2.0000           -0.4939698             -13.4416
        64        2.0000           -0.4847016             -13.1894
        65        2.0000           -0.4818112             -13.1107
        66        2.0000           -0.4784155             -13.0183
        67        2.0000           -0.4659874             -12.6802
        68        2.0000           -0.4617659             -12.5653
        69        2.0000           -0.4599034             -12.5146 (HOMO)
        70                         -0.3562362              -9.6937 (LUMO)
        71                         -0.3455818              -9.4038
        72                         -0.2334861              -6.3535
        73                         -0.2057177              -5.5979
        74                         -0.1509290              -4.1070
        75                         -0.1400166              -3.8100
        76                         -0.1343040              -3.6546
        77                         -0.0622695              -1.6944
        78                         -0.0583617              -1.5881
        79                         -0.0387043              -1.0532
        80                         -0.0294563              -0.8015
       ...                                ...                  ...
       138                          0.5399265              14.6921
      -------------------------------------------------------------
                  HL-Gap            0.1036672 Eh            2.8209 eV

     #   Z          covCN         q      C6AA      α(0)
     1   6 C        3.751    -0.102    22.511     6.766
     2   6 C        3.799    -0.052    21.510     6.603
     3   6 C        3.800    -0.057    21.604     6.618
     4   6 C        3.800    -0.057    21.602     6.618
     5   6 C        3.800    -0.057    21.592     6.616
     6   6 C        3.800    -0.057    21.601     6.617
     7   6 C        3.800    -0.058    21.614     6.619
     8   6 C        3.800    -0.058    21.626     6.621
     9   6 C        3.800    -0.059    21.633     6.622
    10   6 C        3.800    -0.061    21.674     6.629
    11   6 C        3.800    -0.062    21.691     6.631
    12   6 C        3.799    -0.070    21.838     6.654
    13   6 C        3.799    -0.069    21.831     6.653
    14   6 C        3.759    -0.040    21.342     6.586
    15   7 N        3.620     0.128    19.054     6.483
    16   6 C        3.764    -0.039    21.322     6.582
    17   6 C        2.967    -0.007    28.198     8.710
    18   6 C        2.923    -0.039    28.970     8.827
    19   6 C        2.919    -0.022    28.561     8.764
    20   6 C        2.920    -0.018    28.465     8.749
    21   6 C        2.919    -0.023    28.568     8.765
    22   6 C        2.923    -0.039    28.963     8.826
    23   6 C        3.727    -0.091    22.343     6.749
    24   6 C        3.721    -0.090    22.344     6.751
    25   1 H        0.925     0.034     2.532     2.488
    26   1 H        0.925     0.033     2.546     2.495
    27   1 H        0.925     0.035     2.519     2.482
    28   1 H        0.924     0.030     2.592     2.518
    29   1 H        0.924     0.028     2.617     2.530
    30   1 H        0.924     0.027     2.630     2.536
    31   1 H        0.924     0.030     2.585     2.515
    32   1 H        0.924     0.026     2.640     2.541
    33   1 H        0.924     0.034     2.534     2.489
    34   1 H        0.924     0.025     2.660     2.550
    35   1 H        0.924     0.034     2.532     2.488
    36   1 H        0.924     0.024     2.668     2.554
    37   1 H        0.924     0.035     2.520     2.483
    38   1 H        0.924     0.024     2.677     2.559
    39   1 H        0.924     0.037     2.489     2.467
    40   1 H        0.924     0.024     2.678     2.559
    41   1 H        0.924     0.039     2.460     2.453
    42   1 H        0.924     0.022     2.701     2.570
    43   1 H        0.924     0.041     2.439     2.442
    44   1 H        0.924     0.020     2.730     2.584
    45   1 H        0.924     0.045     2.378     2.412
    46   1 H        0.924     0.017     2.781     2.608
    47   1 H        0.925     0.053     2.278     2.360
    48   1 H        0.924     0.032     2.564     2.504
    49   1 H        0.925     0.060     2.197     2.318
    50   1 H        0.924     0.045     2.379     2.412
    51   1 H        0.924     0.074     2.044     2.236
    52   1 H        0.924     0.082     1.962     2.191
    53   1 H        0.924     0.089     1.888     2.149
    54   1 H        0.924     0.081     1.965     2.192
    55   1 H        0.924     0.084     1.937     2.176
    56   1 H        0.926     0.040     2.443     2.444
    57   1 H        0.926     0.058     2.218     2.329
    58   1 H        0.926     0.062     2.180     2.309
    59   1 H        0.926     0.058     2.223     2.332
    60   1 H        0.926     0.042     2.416     2.431
    61   1 H        0.925     0.093     1.849     2.126
    62   1 H        0.925     0.094     1.836     2.119
    63   1 H        0.925     0.099     1.798     2.097
    64   1 H        0.925     0.098     1.806     2.101
    65   1 H        0.925     0.100     1.781     2.087
    66   1 H        0.925     0.091     1.865     2.135

Wiberg/Mayer (AO) data.
largest (>0.10) Wiberg bond orders for each atom

     #   Z sym  total        # sym  WBO       # sym  WBO       # sym  WBO
 ---------------------------------------------------------------------------
     1   6 C    3.997 --     2 C    1.020    27 H    0.988    26 H    0.987
                            25 H    0.986
     2   6 C    3.998 --     1 C    1.020     3 C    1.008    29 H    0.978
                            28 H    0.976
     3   6 C    3.998 --     2 C    1.008     4 C    1.008    31 H    0.977
                            30 H    0.976
     4   6 C    3.997 --     5 C    1.008     3 C    1.008    32 H    0.975
                            33 H    0.975
     5   6 C    3.997 --     4 C    1.008     6 C    1.008    34 H    0.976
                            35 H    0.975
     6   6 C    3.997 --     7 C    1.008     5 C    1.008    36 H    0.975
                            37 H    0.975
     7   6 C    3.997 --     6 C    1.008     8 C    1.008    38 H    0.975
                            39 H    0.974
     8   6 C    3.997 --     7 C    1.008     9 C    1.007    40 H    0.975
                            41 H    0.974
     9   6 C    3.997 --     8 C    1.007    10 C    1.007    42 H    0.976
                            43 H    0.974
    10   6 C    3.996 --    11 C    1.007     9 C    1.007    44 H    0.976
                            45 H    0.973
    11   6 C    3.995 --    12 C    1.007    10 C    1.007    46 H    0.971
                            47 H    0.971
    12   6 C    3.992 --    11 C    1.007    13 C    1.005    48 H    0.974
                            49 H    0.971
    13   6 C    3.985 --    12 C    1.005    14 C    1.004    50 H    0.966
                            51 H    0.965
    14   6 C    3.925 --    13 C    1.004    52 H    0.964    53 H    0.959
                            15 N    0.923
    15   7 N    3.808 --    24 C    0.962    23 C    0.961    14 C    0.923
                            16 C    0.913
    16   6 C    3.930 --    17 C    1.005    54 H    0.965    55 H    0.961
                            15 N    0.913
    17   6 C    3.979 --    18 C    1.408    22 C    1.407    16 C    1.005
                            20 C    0.109
    18   6 C    3.991 --    19 C    1.445    17 C    1.408    56 H    0.968
                            21 C    0.109
    19   6 C    3.990 --    18 C    1.445    20 C    1.438    57 H    0.969
                            22 C    0.109
    20   6 C    3.988 --    21 C    1.438    19 C    1.438    58 H    0.969
                            17 C    0.109
    21   6 C    3.990 --    22 C    1.444    20 C    1.438    59 H    0.969
                            18 C    0.109
    22   6 C    3.991 --    21 C    1.444    17 C    1.407    60 H    0.967
                            19 C    0.109
    23   6 C    3.931 --    61 H    0.975    62 H    0.975    63 H    0.972
                            15 N    0.961
    24   6 C    3.931 --    66 H    0.975    64 H    0.974    65 H    0.971
                            15 N    0.962
    25   1 H    0.999 --     1 C    0.986
    26   1 H    0.999 --     1 C    0.987
    27   1 H    0.999 --     1 C    0.988
    28   1 H    0.999 --     2 C    0.976
    29   1 H    0.999 --     2 C    0.978
    30   1 H    0.999 --     3 C    0.976
    31   1 H    0.999 --     3 C    0.977
    32   1 H    0.999 --     4 C    0.975
    33   1 H    0.999 --     4 C    0.975
    34   1 H    0.999 --     5 C    0.976
    35   1 H    0.999 --     5 C    0.975
    36   1 H    0.999 --     6 C    0.975
    37   1 H    0.999 --     6 C    0.975
    38   1 H    0.999 --     7 C    0.975
    39   1 H    0.999 --     7 C    0.974
    40   1 H    0.999 --     8 C    0.975
    41   1 H    0.998 --     8 C    0.974
    42   1 H    0.999 --     9 C    0.976
    43   1 H    0.998 --     9 C    0.974
    44   1 H    1.000 --    10 C    0.976
    45   1 H    0.998 --    10 C    0.973
    46   1 H    1.000 --    11 C    0.971
    47   1 H    0.997 --    11 C    0.971
    48   1 H    0.999 --    12 C    0.974
    49   1 H    0.996 --    12 C    0.971
    50   1 H    0.998 --    13 C    0.966
    51   1 H    0.994 --    13 C    0.965
    52   1 H    0.993 --    14 C    0.964
    53   1 H    0.992 --    14 C    0.959
    54   1 H    0.993 --    16 C    0.965
    55   1 H    0.993 --    16 C    0.961
    56   1 H    0.998 --    18 C    0.968
    57   1 H    0.996 --    19 C    0.969
    58   1 H    0.996 --    20 C    0.969
    59   1 H    0.996 --    21 C    0.969
    60   1 H    0.998 --    22 C    0.967
    61   1 H    0.991 --    23 C    0.975
    62   1 H    0.991 --    23 C    0.975
    63   1 H    0.990 --    23 C    0.972
    64   1 H    0.990 --    24 C    0.974
    65   1 H    0.990 --    24 C    0.971
    66   1 H    0.992 --    24 C    0.975
 ---------------------------------------------------------------------------

molecular dipole:
                 x           y           z       tot (Debye)
 q only:      -10.523      15.197     -13.502
   full:      -10.533      15.318     -13.589      58.529

           -------------------------------------------------
          | TOTAL ENERGY              -73.211507676209 Eh   |
          | GRADIENT NORM               0.000292704644 Eh/α |
          | HOMO-LUMO GAP               2.820928871284 eV   |
           -------------------------------------------------

 * finished run on 2024/12/20 at 06:42:07.962
