   * xtb version 6.7.1 (edcfbbe) compiled by 'conda@3ef47c1a292c' on 2024-11-25

   ID    Z sym.   atoms
    1    6 C      1, 2, 4-17
    2    7 N      3
    3    1 H      18-37

          program call               : xtb C0365.xyz --opt --namespace C0365 --charge +1
          :  Hamiltonian                  GFN2-xTB          :
 * total energy  :   -46.9479626 Eh     change       -0.5957546E-09 Eh
 * total energy  :   -46.9566640 Eh     change       -0.8701324E-02 Eh
 * total energy  :   -46.9590280 Eh     change       -0.2364033E-02 Eh
 * total energy  :   -46.9593824 Eh     change       -0.3544511E-03 Eh
 * total energy  :   -46.9596291 Eh     change       -0.2466716E-03 Eh
 * total energy  :   -46.9597828 Eh     change       -0.1536815E-03 Eh
 * total energy  :   -46.9599444 Eh     change       -0.1615599E-03 Eh
 * total energy  :   -46.9601498 Eh     change       -0.2054706E-03 Eh
 * total energy  :   -46.9603571 Eh     change       -0.2073095E-03 Eh
 * total energy  :   -46.9604967 Eh     change       -0.1395347E-03 Eh
 * total energy  :   -46.9623357 Eh     change       -0.6870817E-05 Eh
 * total energy  :   -46.9623424 Eh     change       -0.6650072E-05 Eh
 * total energy  :   -46.9623488 Eh     change       -0.6435872E-05 Eh
 * total energy  :   -46.9623550 Eh     change       -0.6200392E-05 Eh
 * total energy  :   -46.9623609 Eh     change       -0.5927948E-05 Eh
 * total energy  :   -46.9623666 Eh     change       -0.5635742E-05 Eh
 * total energy  :   -46.9623719 Eh     change       -0.5345837E-05 Eh
 * total energy  :   -46.9623770 Eh     change       -0.5087862E-05 Eh
 * total energy  :   -46.9623819 Eh     change       -0.4867198E-05 Eh
   *** GEOMETRY OPTIMIZATION CONVERGED AFTER 60 ITERATIONS ***

 final structure:
================
37
 xtb: 6.7.1 (edcfbbe)
C            0.47589967736270        0.03166835945739       -2.26766321571794
C            0.18230267414971        0.59322787958280       -0.88385149302737
N            0.87457061836997        1.93477166024104       -0.62018291996528
C            0.51228690163190        2.33731729067848        0.76426519805147
C           -0.44733979464061        3.30815009698439        1.01124629881756
C           -0.78685249188694        3.63263087538002        2.31541992440029
C           -0.18182440319934        2.99439383653296        3.38185841319593
C            0.76884918809765        2.01937049835396        3.13624394239201
C            1.11218797134735        1.68742758937237        1.83702913117270
C            0.46651694160877        2.95480450469392       -1.60340365838027
C            2.34414375442087        1.79531175478115       -0.72597089954106
C           -1.29870139876752        0.70104481400916       -0.59032995819772
C           -2.22024280822828        1.13183085080149       -1.53968124725598
C           -3.56402673543740        1.22792648671969       -1.22001048837559
C           -4.00765756699671        0.89004241717197        0.04655224333154
C           -3.10210988482181        0.43641254949140        0.99051821581876
C           -1.75997272168171        0.34088965555204        0.67295896259224
H            0.13076445284831        0.67468426262103       -3.07058429358700
H           -0.05565013058763       -0.91320096127888       -2.35646195462176
H            1.53356873711217       -0.17449357549225       -2.40631417973163
H            0.61290298936427       -0.08828931948740       -0.14287469112619
H           -0.95665876582434        3.82668761555764        0.21826155194701
H           -1.53416602268189        4.39055086808500        2.48737888570350
H           -0.45023516700641        3.25021016077856        4.39397004402445
H            1.24750046526996        1.50630892465454        3.95512342193028
H            1.84742811417546        0.91309063831909        1.69032217430198
H            0.86416098178265        3.92425080867894       -1.30758906147462
H            0.86627980406344        2.70223570664895       -2.58262353279163
H           -0.61681349214276        3.00753472583331       -1.67235277651650
H            2.82041309344229        2.66976030779873       -0.28472548760300
H            2.69670720361395        0.90516275491277       -0.21243406074042
H            2.64117081190009        1.72618766167781       -1.76965456387815
H           -1.91106601235987        1.37346401360184       -2.54534674430109
H           -4.26553164114387        1.56251340800447       -1.96822711047582
H           -5.05500400224955        0.96589995141389        0.29191419320105
H           -3.43920594310202        0.14988223183634        1.97411160185391
H           -1.06620539780328       -0.02626130396266        1.41524813457038

          :  Hamiltonian                  GFN2-xTB          :
         :: total energy             -46.962381883206 Eh    ::
         :: gradient norm              0.000170536665 Eh/a0 ::
         :: HOMO-LUMO gap              4.128282566045 eV    ::
         :: SCC energy               -47.793510955071 Eh    ::
         :: -> dispersion             -0.040430924979 Eh    ::
         :: repulsion energy           0.831129071865 Eh    ::

    * Orbital Energies and Occupations

         #    Occupation            Energy/Eh            Energy/eV
      -------------------------------------------------------------
         1        2.0000           -0.8476750             -23.0664
       ...           ...                  ...                  ...
        32        2.0000           -0.6060756             -16.4922
        33        2.0000           -0.5981114             -16.2754
        34        2.0000           -0.5952303             -16.1970
        35        2.0000           -0.5949688             -16.1899
        36        2.0000           -0.5860699             -15.9478
        37        2.0000           -0.5683850             -15.4665
        38        2.0000           -0.5602052             -15.2440
        39        2.0000           -0.5492169             -14.9450
        40        2.0000           -0.5482804             -14.9195
        41        2.0000           -0.5427788             -14.7698
        42        2.0000           -0.5388994             -14.6642
        43        2.0000           -0.5251919             -14.2912
        44        2.0000           -0.5239875             -14.2584 (HOMO)
        45                         -0.3722759             -10.1301 (LUMO)
        46                         -0.3655265              -9.9465
        47                         -0.3529889              -9.6053
        48                         -0.3428107              -9.3284
        49                         -0.2415363              -6.5725
        50                         -0.2326680              -6.3312
        51                         -0.2035647              -5.5393
        52                         -0.1545254              -4.2049
        53                         -0.1308488              -3.5606
        54                         -0.1248277              -3.3967
        55                         -0.0569111              -1.5486
       ...                                ...                  ...
        88                          0.5435384              14.7904
      -------------------------------------------------------------
                  HL-Gap            0.1517116 Eh            4.1283 eV

     #   Z          covCN         q      C6AA      α(0)
     1   6 C        3.753    -0.126    22.982     6.836
     2   6 C        3.803     0.016    20.313     6.416
     3   7 N        3.620     0.109    19.363     6.535
     4   6 C        2.930     0.035    27.217     8.556
     5   6 C        2.921    -0.038    28.952     8.824
     6   6 C        2.922    -0.018    28.463     8.749
     7   6 C        2.918    -0.016    28.419     8.742
     8   6 C        2.921    -0.018    28.466     8.749
     9   6 C        2.922    -0.039    28.967     8.826
    10   6 C        3.717    -0.085    22.256     6.739
    11   6 C        3.721    -0.083    22.212     6.731
    12   6 C        2.969    -0.009    28.247     8.718
    13   6 C        2.922    -0.039    28.965     8.826
    14   6 C        2.919    -0.025    28.616     8.772
    15   6 C        2.920    -0.019    28.490     8.753
    16   6 C        2.919    -0.023    28.570     8.765
    17   6 C        2.925    -0.036    28.903     8.816
    18   1 H        0.925     0.064     2.154     2.295
    19   1 H        0.925     0.083     1.953     2.186
    20   1 H        0.925     0.061     2.193     2.316
    21   1 H        0.924     0.071     2.077     2.254
    22   1 H        0.926     0.059     2.210     2.325
    23   1 H        0.926     0.070     2.086     2.259
    24   1 H        0.926     0.073     2.048     2.238
    25   1 H        0.926     0.070     2.080     2.255
    26   1 H        0.926     0.054     2.273     2.358
    27   1 H        0.925     0.092     1.861     2.133
    28   1 H        0.925     0.093     1.852     2.128
    29   1 H        0.925     0.099     1.797     2.096
    30   1 H        0.925     0.093     1.849     2.126
    31   1 H        0.925     0.092     1.861     2.133
    32   1 H        0.925     0.095     1.833     2.117
    33   1 H        0.926     0.043     2.406     2.426
    34   1 H        0.926     0.057     2.240     2.340
    35   1 H        0.926     0.060     2.196     2.318
    36   1 H        0.926     0.055     2.255     2.348
    37   1 H        0.926     0.034     2.535     2.490

Wiberg/Mayer (AO) data.
largest (>0.10) Wiberg bond orders for each atom

     #   Z sym  total        # sym  WBO       # sym  WBO       # sym  WBO
 ---------------------------------------------------------------------------
     1   6 C    3.984 --     2 C    1.012    20 H    0.980    18 H    0.977
                            19 H    0.972
     2   6 C    3.929 --     1 C    1.012    12 C    0.993    21 H    0.958
                             3 N    0.871
     3   7 N    3.797 --    10 C    0.964    11 C    0.959     4 C    0.914
                             2 C    0.871
     4   6 C    3.927 --     5 C    1.421     9 C    1.408     3 N    0.914
                             7 C    0.108
     5   6 C    3.989 --     6 C    1.431     4 C    1.421    22 H    0.962
                             8 C    0.109
     6   6 C    3.988 --     7 C    1.445     5 C    1.431    23 H    0.967
                             9 C    0.111
     7   6 C    3.986 --     6 C    1.445     8 C    1.435    24 H    0.967
                             4 C    0.108
     8   6 C    3.988 --     9 C    1.443     7 C    1.435    25 H    0.967
                             5 C    0.109
     9   6 C    3.990 --     8 C    1.443     4 C    1.408    26 H    0.962
                             6 C    0.111
    10   6 C    3.932 --    27 H    0.975    28 H    0.971    29 H    0.965
                             3 N    0.964
    11   6 C    3.933 --    30 H    0.976    32 H    0.973    31 H    0.972
                             3 N    0.959
    12   6 C    3.981 --    13 C    1.411    17 C    1.407     2 C    0.993
                            15 C    0.110
    13   6 C    3.991 --    14 C    1.441    12 C    1.411    33 H    0.963
                            16 C    0.109
    14   6 C    3.990 --    13 C    1.441    15 C    1.440    34 H    0.969
                            17 C    0.110
    15   6 C    3.988 --    14 C    1.440    16 C    1.436    35 H    0.969
                            12 C    0.110
    16   6 C    3.990 --    17 C    1.447    15 C    1.436    36 H    0.969
                            13 C    0.109
    17   6 C    3.992 --    16 C    1.447    12 C    1.407    37 H    0.967
                            14 C    0.110
    18   1 H    0.996 --     1 C    0.977
    19   1 H    0.992 --     1 C    0.972
    20   1 H    0.996 --     1 C    0.980
    21   1 H    0.995 --     2 C    0.958
    22   1 H    0.997 --     5 C    0.962
    23   1 H    0.995 --     6 C    0.967
    24   1 H    0.994 --     7 C    0.967
    25   1 H    0.995 --     8 C    0.967
    26   1 H    0.997 --     9 C    0.962
    27   1 H    0.991 --    10 C    0.975
    28   1 H    0.991 --    10 C    0.971
    29   1 H    0.990 --    10 C    0.965
    30   1 H    0.991 --    11 C    0.976
    31   1 H    0.992 --    11 C    0.972
    32   1 H    0.990 --    11 C    0.973
    33   1 H    0.998 --    13 C    0.963
    34   1 H    0.996 --    14 C    0.969
    35   1 H    0.996 --    15 C    0.969
    36   1 H    0.997 --    16 C    0.969
    37   1 H    0.999 --    17 C    0.967
 ---------------------------------------------------------------------------

molecular dipole:
                 x           y           z       tot (Debye)
 q only:        0.626       3.640      -0.457
   full:        0.716       3.596      -0.493       9.403

           -------------------------------------------------
          | TOTAL ENERGY              -46.962381883206 Eh   |
          | GRADIENT NORM               0.000170536665 Eh/α |
          | HOMO-LUMO GAP               4.128282566045 eV   |
           -------------------------------------------------

 * finished run on 2024/12/20 at 06:42:11.689
