   * xtb version 6.7.1 (edcfbbe) compiled by 'conda@3ef47c1a292c' on 2024-11-25

   ID    Z sym.   atoms
    1    6 C      1-3, 5, 6
    2    7 N      4, 7-9
    3    1 H      10-20

          program call               : xtb C0360.xyz --opt --namespace C0360 --charge +1
          :  Hamiltonian                  GFN2-xTB          :
 * total energy  :   -27.5509491 Eh     change       -0.4906298E-10 Eh
 * total energy  :   -27.5610062 Eh     change       -0.1005702E-01 Eh
 * total energy  :   -27.5632793 Eh     change       -0.2273185E-02 Eh
 * total energy  :   -27.5636471 Eh     change       -0.3677301E-03 Eh
 * total energy  :   -27.5639445 Eh     change       -0.2974054E-03 Eh
 * total energy  :   -27.5639934 Eh     change       -0.4893068E-04 Eh
 * total energy  :   -27.5640315 Eh     change       -0.3814574E-04 Eh
 * total energy  :   -27.5640543 Eh     change       -0.2278123E-04 Eh
 * total energy  :   -27.5640629 Eh     change       -0.8575180E-05 Eh
 * total energy  :   -27.5640736 Eh     change       -0.1066457E-04 Eh
 * total energy  :   -27.5640772 Eh     change       -0.3664840E-05 Eh
   *** GEOMETRY OPTIMIZATION CONVERGED AFTER 11 ITERATIONS ***

 final structure:
================
20
 xtb: 6.7.1 (edcfbbe)
C            0.48240153969675       -0.06422487010906       -0.17378636556747
C            0.33192063246376       -1.56968340932845       -0.00348590301991
C            1.21767803926506       -2.13515680806183        1.11526365669976
N            0.78514072382701       -1.66359695852113        2.40462091626895
C            1.15126731370931       -0.54569141562069        3.05155027750424
C            0.39445271040073       -0.50437890303277        4.19965864748908
N           -0.37538452860659       -1.61634734046949        4.14717628014447
N           -0.13502059982305       -2.30937646140530        3.07402517944520
N           -1.34906824862560       -1.97311157389195        4.99731824585751
H            0.14325649415498        0.47877503150172        0.70647467663388
H           -0.11606092449115        0.26885558679989       -1.01634707744883
H            1.51780994270153        0.20047575874209       -0.37424772948547
H           -0.70899998027213       -1.82519984095442        0.20080630476972
H            0.62243755112023       -2.06883322315775       -0.92740220822180
H            1.14848631362551       -3.22400205481191        1.12749938614734
H            2.25511309563275       -1.83114109966222        0.96626818662542
H            1.89932158348077        0.12823948512207        2.68700328168237
H            0.35596708045694        0.20579438898337        4.99902278308219
H           -1.70402917891860       -2.90780070142627        4.83407427923785
H           -1.20190955979844       -1.72426559069578        5.96692718215561

          :  Hamiltonian                  GFN2-xTB          :
         :: total energy             -27.564077234974 Eh    ::
         :: gradient norm              0.000803975649 Eh/a0 ::
         :: HOMO-LUMO gap              3.629967741714 eV    ::
         :: SCC energy               -27.928603824603 Eh    ::
         :: -> dispersion             -0.013313485601 Eh    ::
         :: repulsion energy           0.364526589628 Eh    ::

    * Orbital Energies and Occupations

         #    Occupation            Energy/Eh            Energy/eV
      -------------------------------------------------------------
         1        2.0000           -0.9367267             -25.4896
       ...           ...                  ...                  ...
        13        2.0000           -0.7111976             -19.3527
        14        2.0000           -0.6928538             -18.8535
        15        2.0000           -0.6860744             -18.6690
        16        2.0000           -0.6763714             -18.4050
        17        2.0000           -0.6542119             -17.8020
        18        2.0000           -0.6364362             -17.3183
        19        2.0000           -0.6239682             -16.9790
        20        2.0000           -0.6208772             -16.8949
        21        2.0000           -0.6205003             -16.8847
        22        2.0000           -0.5909021             -16.0793
        23        2.0000           -0.5847716             -15.9124
        24        2.0000           -0.5724113             -15.5761
        25        2.0000           -0.5696612             -15.5013 (HOMO)
        26                         -0.4362624             -11.8713 (LUMO)
        27                         -0.3903652             -10.6224
        28                         -0.2242606              -6.1024
        29                         -0.1577222              -4.2918
        30                         -0.1099792              -2.9927
        31                         -0.0855293              -2.3274
        32                         -0.0572756              -1.5585
        33                         -0.0416564              -1.1335
        34                         -0.0231500              -0.6299
        35                         -0.0065195              -0.1774
        36                          0.0021586               0.0587
       ...                                ...                  ...
        47                          0.4495873              12.2339
      -------------------------------------------------------------
                  HL-Gap            0.1333989 Eh            3.6300 eV

     #   Z          covCN         q      C6AA      α(0)
     1   6 C        3.752    -0.119    22.843     6.816
     2   6 C        3.801    -0.067    21.774     6.644
     3   6 C        3.744    -0.036    21.293     6.583
     4   7 N        3.028     0.155    18.627     6.410
     5   6 C        3.019    -0.001    28.039     8.686
     6   6 C        3.004    -0.033    28.816     8.806
     7   7 N        3.107     0.257    17.107     6.143
     8   7 N        2.152    -0.143    24.623     7.363
     9   7 N        2.716    -0.215    25.674     7.525
    10   1 H        0.925     0.036     2.498     2.472
    11   1 H        0.925     0.071     2.077     2.254
    12   1 H        0.925     0.054     2.269     2.356
    13   1 H        0.924     0.064     2.153     2.295
    14   1 H        0.925     0.081     1.969     2.194
    15   1 H        0.924     0.104     1.750     2.069
    16   1 H        0.924     0.096     1.825     2.113
    17   1 H        0.926     0.121     1.608     1.983
    18   1 H        0.927     0.117     1.642     2.004
    19   1 H        0.860     0.234     0.946     1.524
    20   1 H        0.860     0.225     0.986     1.556

Wiberg/Mayer (AO) data.
largest (>0.10) Wiberg bond orders for each atom

     #   Z sym  total        # sym  WBO       # sym  WBO       # sym  WBO
 ---------------------------------------------------------------------------
     1   6 C    3.991 --     2 C    1.023    12 H    0.985    10 H    0.985
                            11 H    0.980
     2   6 C    3.982 --     1 C    1.023    13 H    0.974     3 C    0.974
                            14 H    0.966
     3   6 C    3.928 --     2 C    0.974     4 N    0.967    16 H    0.960
                            15 H    0.960
     4   7 N    3.744 --     5 C    1.317     8 N    1.274     3 C    0.967
     5   6 C    3.959 --     6 C    1.496     4 N    1.317    17 H    0.957
                             8 N    0.111
     6   6 C    3.941 --     5 C    1.496     7 N    1.251    18 H    0.959
     7   7 N    3.788 --     8 N    1.295     6 C    1.251     9 N    1.109
     8   7 N    2.969 --     7 N    1.295     4 N    1.274     5 C    0.111
                             9 N    0.110
     9   7 N    3.216 --     7 N    1.109    20 H    0.927    19 H    0.926
                             8 N    0.110
    10   1 H    0.999 --     1 C    0.985
    11   1 H    0.995 --     1 C    0.980
    12   1 H    0.997 --     1 C    0.985
    13   1 H    0.996 --     2 C    0.974
    14   1 H    0.993 --     2 C    0.966
    15   1 H    0.989 --     3 C    0.960
    16   1 H    0.990 --     3 C    0.960
    17   1 H    0.985 --     5 C    0.957
    18   1 H    0.986 --     6 C    0.959
    19   1 H    0.945 --     9 N    0.926
    20   1 H    0.949 --     9 N    0.927
 ---------------------------------------------------------------------------

molecular dipole:
                 x           y           z       tot (Debye)
 q only:        0.407      -2.815       6.095
   full:        0.643      -2.720       6.437      17.837

           -------------------------------------------------
          | TOTAL ENERGY              -27.564077234974 Eh   |
          | GRADIENT NORM               0.000803975649 Eh/α |
          | HOMO-LUMO GAP               3.629967741714 eV   |
           -------------------------------------------------

 * finished run on 2024/12/20 at 06:42:03.714
