   * xtb version 6.7.1 (edcfbbe) compiled by 'conda@3ef47c1a292c' on 2024-11-25

   ID    Z sym.   atoms
    1    6 C      1, 2, 4, 6-13, 15-20
    2    7 N      3, 5
    3    8 O      14
    4   35 Br     21
    5    1 H      22-37

          program call               : xtb C0368.xyz --opt --namespace C0368 --charge +1
          :  Hamiltonian                  GFN2-xTB          :
 * total energy  :   -58.1771448 Eh     change       -0.2360970E-08 Eh
 * total energy  :   -58.1830147 Eh     change       -0.5869915E-02 Eh
 * total energy  :   -58.1842355 Eh     change       -0.1220822E-02 Eh
 * total energy  :   -58.1844053 Eh     change       -0.1697565E-03 Eh
 * total energy  :   -58.1845164 Eh     change       -0.1111551E-03 Eh
 * total energy  :   -58.1845873 Eh     change       -0.7090724E-04 Eh
 * total energy  :   -58.1847076 Eh     change       -0.1202282E-03 Eh
 * total energy  :   -58.1848785 Eh     change       -0.1709115E-03 Eh
 * total energy  :   -58.1850739 Eh     change       -0.1953883E-03 Eh
 * total energy  :   -58.1853097 Eh     change       -0.2358302E-03 Eh
 * total energy  :   -58.1911877 Eh     change       -0.1776460E-04 Eh
 * total energy  :   -58.1911963 Eh     change       -0.8538978E-05 Eh
 * total energy  :   -58.1912094 Eh     change       -0.1307836E-04 Eh
 * total energy  :   -58.1912200 Eh     change       -0.1061444E-04 Eh
 * total energy  :   -58.1912385 Eh     change       -0.1855923E-04 Eh
 * total energy  :   -58.1912574 Eh     change       -0.1889830E-04 Eh
 * total energy  :   -58.1912682 Eh     change       -0.1081936E-04 Eh
 * total energy  :   -58.1912754 Eh     change       -0.7189074E-05 Eh
 * total energy  :   -58.1912795 Eh     change       -0.4108882E-05 Eh
   *** GEOMETRY OPTIMIZATION CONVERGED AFTER 64 ITERATIONS ***

 final structure:
================
37
 xtb: 6.7.1 (edcfbbe)
C            2.82649412132383       -0.81755074335174        0.16103416702186
C            1.39146595413210       -0.89132429678807        0.67265074714294
N            1.26104040606639       -0.22408640214986        1.94875465001020
C            1.28904864389314       -0.80151870544305        3.14269040402394
N            1.20791157909526        0.10159219479326        4.12043843247792
C            1.08970600680665        1.34716081274954        3.53208541328456
C            1.13976348150493        1.13721514643079        2.14069766821064
C            1.06297783184799        2.19907890092761        1.24761681273661
C            0.93890450370919        3.46281909640894        1.78666283424395
C            0.89156601605321        3.67120179374805        3.16755755668814
C            0.96530668479494        2.62430874832278        4.06359195896388
C            0.95775407533988       -0.23706868099350        5.49045494797778
C           -0.32670862860720       -1.11082925715664        5.54176476721176
O           -0.77123325476230       -1.53550479743723        4.49895418723237
C           -0.90489379051549       -1.37760673681533        6.85423197506183
C           -0.31102371321673       -0.98634168704772        8.06058734661295
C           -0.91609219428730       -1.28624322588619        9.26175454543096
C           -2.12340063988009       -1.97824274842722        9.27591928579341
C           -2.72770127110576       -2.37795308150268        8.08895900098760
C           -2.11780302085987       -2.08068999770169        6.89087529459215
Br          -2.94807697044381       -2.37594276187460       10.93098449289206
H            3.14381451863803        0.21529984959137        0.04266823781055
H            2.89195549404725       -1.31081943543821       -0.80381080289812
H            3.50716645952422       -1.31476208797342        0.84751370113963
H            0.71106161495327       -0.40946795987919       -0.03268839472832
H            1.08436323996667       -1.93112408246803        0.79826494388555
H            1.39281954758101       -1.85853564129885        3.29743083340002
H            1.09961398222782        2.04682192923506        0.18160701312930
H            0.87763857907765        4.31403974017614        1.12779115951730
H            0.79479099126056        4.67807359524517        3.54092685410114
H            0.92828640264089        2.80100939578584        5.12618089215027
H            1.78701588498813       -0.81992394876668        5.90257681564827
H            0.83016038147669        0.67604079825660        6.07023920318407
H            0.62936072888270       -0.45913694696143        8.07481184517063
H           -0.45834601098587       -0.99032951419103       10.19301272289491
H           -3.66101355773962       -2.91706733872301        8.11149259920645
H           -2.56757407742395       -2.38328192340666        5.95711588779929

          :  Hamiltonian                  GFN2-xTB          :
         :: total energy             -58.191279543408 Eh    ::
         :: gradient norm              0.000930112868 Eh/a0 ::
         :: HOMO-LUMO gap              2.280614372342 eV    ::
         :: SCC energy               -59.086489661774 Eh    ::
         :: -> dispersion             -0.039280465341 Eh    ::
         :: repulsion energy           0.895210118366 Eh    ::

    * Orbital Energies and Occupations

         #    Occupation            Energy/Eh            Energy/eV
      -------------------------------------------------------------
         1        2.0000           -0.9267026             -25.2169
       ...           ...                  ...                  ...
        41        2.0000           -0.5918176             -16.1042
        42        2.0000           -0.5806363             -15.7999
        43        2.0000           -0.5759967             -15.6737
        44        2.0000           -0.5693190             -15.4920
        45        2.0000           -0.5680411             -15.4572
        46        2.0000           -0.5554994             -15.1159
        47        2.0000           -0.5523618             -15.0305
        48        2.0000           -0.5494342             -14.9509
        49        2.0000           -0.5448196             -14.8253
        50        2.0000           -0.5381573             -14.6440
        51        2.0000           -0.5321224             -14.4798
        52        2.0000           -0.5033283             -13.6963
        53        2.0000           -0.5001713             -13.6104 (HOMO)
        54                         -0.4163603             -11.3297 (LUMO)
        55                         -0.4068341             -11.0705
        56                         -0.3597972              -9.7906
        57                         -0.3541601              -9.6372
        58                         -0.3512545              -9.5581
        59                         -0.3272822              -8.9058
        60                         -0.2953890              -8.0379
        61                         -0.2344090              -6.3786
        62                         -0.2205927              -6.0026
        63                         -0.1690748              -4.6008
        64                         -0.1279381              -3.4814
       ...                                ...                  ...
       105                          0.5465333              14.8719
      -------------------------------------------------------------
                  HL-Gap            0.0838110 Eh            2.2806 eV

     #   Z          covCN         q      C6AA      α(0)
     1   6 C        3.753    -0.122    22.905     6.825
     2   6 C        3.740    -0.016    20.938     6.529
     3   7 N        2.826     0.036    20.611     6.743
     4   6 C        3.070     0.079    26.169     8.388
     5   7 N        2.830     0.036    20.622     6.745
     6   6 C        3.112     0.040    26.965     8.507
     7   6 C        3.120     0.042    26.886     8.492
     8   6 C        2.909    -0.032    28.789     8.798
     9   6 C        2.925    -0.019    28.475     8.751
    10   6 C        2.925    -0.018    28.466     8.750
    11   6 C        2.909    -0.033    28.824     8.803
    12   6 C        3.743    -0.043    21.422     6.603
    13   6 C        2.823     0.226    23.246     7.900
    14   8 O        0.857    -0.355    20.800     6.115
    15   6 C        2.969    -0.019    28.468     8.752
    16   6 C        2.920    -0.026    28.648     8.777
    17   6 C        2.992    -0.028    28.687     8.786
    18   6 C        2.915     0.102    25.745     8.320
    19   6 C        2.988    -0.026    28.654     8.781
    20   6 C        2.929    -0.009    28.242     8.715
    21  35 Br       1.072    -0.091   187.542    22.081
    22   1 H        0.925     0.063     2.159     2.298
    23   1 H        0.925     0.080     1.977     2.199
    24   1 H        0.925     0.060     2.204     2.322
    25   1 H        0.924     0.087     1.905     2.158
    26   1 H        0.924     0.082     1.958     2.188
    27   1 H        0.926     0.113     1.670     2.021
    28   1 H        0.926     0.073     2.058     2.243
    29   1 H        0.926     0.079     1.986     2.204
    30   1 H        0.926     0.079     1.994     2.208
    31   1 H        0.926     0.064     2.155     2.295
    32   1 H        0.924     0.096     1.820     2.110
    33   1 H        0.925     0.098     1.799     2.097
    34   1 H        0.926     0.054     2.271     2.357
    35   1 H        0.926     0.080     1.980     2.200
    36   1 H        0.926     0.084     1.942     2.179
    37   1 H        0.926     0.085     1.930     2.173

Wiberg/Mayer (AO) data.
largest (>0.10) Wiberg bond orders for each atom

     #   Z sym  total        # sym  WBO       # sym  WBO       # sym  WBO
 ---------------------------------------------------------------------------
     1   6 C    3.982 --     2 C    1.003    24 H    0.985    22 H    0.984
                            23 H    0.978
     2   6 C    3.942 --     1 C    1.003     3 N    0.968    26 H    0.968
                            25 H    0.962
     3   7 N    3.682 --     4 C    1.375     7 C    1.125     2 C    0.968
     4   6 C    3.953 --     3 N    1.375     5 N    1.344    27 H    0.952
     5   7 N    3.667 --     4 C    1.344     6 C    1.116    12 C    0.997
     6   6 C    3.951 --    11 C    1.345     7 C    1.275     5 N    1.116
     7   6 C    3.954 --     8 C    1.341     6 C    1.275     3 N    1.125
     8   6 C    3.986 --     9 C    1.493     7 C    1.341    28 H    0.963
                            11 C    0.118
     9   6 C    3.986 --     8 C    1.493    10 C    1.381    29 H    0.966
    10   6 C    3.983 --    11 C    1.490     9 C    1.381    30 H    0.966
    11   6 C    3.987 --    10 C    1.490     6 C    1.345    31 H    0.963
                             8 C    0.118
    12   6 C    3.952 --     5 N    0.997    33 H    0.954    32 H    0.943
                            13 C    0.926
    13   6 C    3.918 --    14 O    1.799    15 C    1.081    12 C    0.926
    14   8 O    2.094 --    13 C    1.799
    15   6 C    3.982 --    16 C    1.347    20 C    1.342    13 C    1.081
    16   6 C    3.990 --    17 C    1.483    15 C    1.347    34 H    0.964
    17   6 C    3.987 --    16 C    1.483    18 C    1.375    35 H    0.964
    18   6 C    3.949 --    19 C    1.382    17 C    1.375    21 Br   1.041
    19   6 C    3.986 --    20 C    1.476    18 C    1.382    36 H    0.963
    20   6 C    3.983 --    19 C    1.476    15 C    1.342    37 H    0.961
    21  35 Br   1.199 --    18 C    1.041
    22   1 H    0.996 --     1 C    0.984
    23   1 H    0.993 --     1 C    0.978
    24   1 H    0.996 --     1 C    0.985
    25   1 H    0.992 --     2 C    0.962
    26   1 H    0.993 --     2 C    0.968
    27   1 H    0.986 --     4 C    0.952
    28   1 H    0.994 --     8 C    0.963
    29   1 H    0.993 --     9 C    0.966
    30   1 H    0.993 --    10 C    0.966
    31   1 H    0.995 --    11 C    0.963
    32   1 H    0.989 --    12 C    0.943
    33   1 H    0.990 --    12 C    0.954
    34   1 H    0.997 --    16 C    0.964
    35   1 H    0.993 --    17 C    0.964
    36   1 H    0.992 --    19 C    0.963
    37   1 H    0.993 --    20 C    0.961
 ---------------------------------------------------------------------------

molecular dipole:
                 x           y           z       tot (Debye)
 q only:        2.105       0.468       6.853
   full:        2.263       0.385       6.878      18.431

           -------------------------------------------------
          | TOTAL ENERGY              -58.191279543408 Eh   |
          | GRADIENT NORM               0.000930112868 Eh/α |
          | HOMO-LUMO GAP               2.280614372342 eV   |
           -------------------------------------------------

 * finished run on 2024/12/20 at 06:42:17.435
