   * xtb version 6.7.1 (edcfbbe) compiled by 'conda@3ef47c1a292c' on 2024-11-25

   ID    Z sym.   atoms
    1    6 C      1, 2, 4, 6-12
    2    8 O      3
    3    7 N      5
    4    1 H      13-26

          program call               : xtb C0363.xyz --opt --namespace C0363 --charge +1
          :  Hamiltonian                  GFN2-xTB          :
 * total energy  :   -35.1136452 Eh     change       -0.4223253E-09 Eh
 * total energy  :   -35.1210053 Eh     change       -0.7360101E-02 Eh
 * total energy  :   -35.1225491 Eh     change       -0.1543846E-02 Eh
 * total energy  :   -35.1230379 Eh     change       -0.4887596E-03 Eh
 * total energy  :   -35.1236695 Eh     change       -0.6315851E-03 Eh
 * total energy  :   -35.1241169 Eh     change       -0.4473973E-03 Eh
 * total energy  :   -35.1251857 Eh     change       -0.1068805E-02 Eh
 * total energy  :   -35.1262431 Eh     change       -0.1057450E-02 Eh
 * total energy  :   -35.1269623 Eh     change       -0.7191882E-03 Eh
 * total energy  :   -35.1280455 Eh     change       -0.1083199E-02 Eh
 * total energy  :   -35.1342408 Eh     change       -0.1815636E-03 Eh
 * total energy  :   -35.1343659 Eh     change       -0.1250379E-03 Eh
 * total energy  :   -35.1342913 Eh     change        0.7452400E-04 Eh
 * total energy  :   -35.1345076 Eh     change       -0.2162738E-03 Eh
 * total energy  :   -35.1345322 Eh     change       -0.2459415E-04 Eh
 * total energy  :   -35.1345564 Eh     change       -0.2418374E-04 Eh
 * total energy  :   -35.1345713 Eh     change       -0.1492689E-04 Eh
 * total energy  :   -35.1345782 Eh     change       -0.6916224E-05 Eh
 * total energy  :   -35.1345827 Eh     change       -0.4509912E-05 Eh
   *** GEOMETRY OPTIMIZATION CONVERGED AFTER 37 ITERATIONS ***

 final structure:
================
26
 xtb: 6.7.1 (edcfbbe)
C            2.22801964532998        1.12161284587273       -0.77802493646316
C            0.80118487762464        0.80564125516076       -1.09856068995128
O            0.40223516910566       -0.26788925565008       -1.43683140794731
C           -0.19430194668819        2.00029885781700       -1.04861427335958
N           -0.01266037898446        2.89993129581156        0.06951408309071
C           -0.41994266759260        2.48047791322469        1.29539929831271
C           -1.03511339926413        1.13877751196512        1.45448657883998
C           -0.26575594657144        3.31563975400267        2.39019718475472
C            0.30420245005674        4.56767366656194        2.24029053850286
C            0.72061691286903        4.95986516635983        0.97900433281007
C            0.56071178121029        4.11738902523166       -0.10873123510782
C            1.00665077936383        4.55633127083209       -1.45944134783938
H            2.72566433398217        0.22227216755423       -0.42191080346139
H            2.34030660122954        1.92121189910298       -0.05097950762173
H            2.72864732034067        1.41388619847667       -1.70208774784360
H           -0.07841643693927        2.53427678434971       -1.99129973557240
H           -1.20281112865518        1.58069742448793       -1.03096864320309
H           -0.41332331667135        0.34952092956547        1.03554094793516
H           -1.19467079057715        0.92602893252798        2.50737557466687
H           -2.00447840690634        1.09048154493764        0.95579301330836
H           -0.59665833956009        2.97703128945510        3.35830275329792
H            0.42448511583913        5.22347905008004        3.08753971768862
H            1.17201785949346        5.92724776361500        0.83111038114317
H            1.49256854324534        5.52469035027412       -1.38588398873646
H            1.71423697967973        3.85966347101725       -1.90372209773437
H            0.15909438904505        4.66834288736502       -2.13646798950925

          :  Hamiltonian                  GFN2-xTB          :
         :: total energy             -35.134582751153 Eh    ::
         :: gradient norm              0.000912000824 Eh/a0 ::
         :: HOMO-LUMO gap              2.773073193621 eV    ::
         :: SCC energy               -35.678126846108 Eh    ::
         :: -> dispersion             -0.021886311316 Eh    ::
         :: repulsion energy           0.543544094955 Eh    ::

    * Orbital Energies and Occupations

         #    Occupation            Energy/Eh            Energy/eV
      -------------------------------------------------------------
         1        2.0000           -0.8739800             -23.7822
       ...           ...                  ...                  ...
        20        2.0000           -0.6605106             -17.9734
        21        2.0000           -0.6567173             -17.8702
        22        2.0000           -0.6421885             -17.4748
        23        2.0000           -0.6368171             -17.3287
        24        2.0000           -0.6357413             -17.2994
        25        2.0000           -0.6277524             -17.0820
        26        2.0000           -0.6244725             -16.9928
        27        2.0000           -0.6210116             -16.8986
        28        2.0000           -0.6128250             -16.6758
        29        2.0000           -0.6110479             -16.6275
        30        2.0000           -0.6070652             -16.5191
        31        2.0000           -0.5841845             -15.8965
        32        2.0000           -0.5518634             -15.0170 (HOMO)
        33                         -0.4499548             -12.2439 (LUMO)
        34                         -0.4157232             -11.3124
        35                         -0.4011239             -10.9151
        36                         -0.3005391              -8.1781
        37                         -0.1780563              -4.8452
        38                         -0.1058670              -2.8808
        39                         -0.0942482              -2.5646
        40                         -0.0508146              -1.3827
        41                         -0.0439966              -1.1972
        42                         -0.0384811              -1.0471
        43                         -0.0287907              -0.7834
       ...                                ...                  ...
        62                          0.5093257              13.8595
      -------------------------------------------------------------
                  HL-Gap            0.1019086 Eh            2.7731 eV

     #   Z          covCN         q      C6AA      α(0)
     1   6 C        3.753    -0.150    23.460     6.907
     2   6 C        2.805     0.242    22.963     7.851
     3   8 O        0.857    -0.296    19.704     5.951
     4   6 C        3.756    -0.067    21.842     6.664
     5   7 N        2.751     0.066    20.101     6.659
     6   6 C        2.925     0.087    26.064     8.372
     7   6 C        3.759    -0.140    23.241     6.873
     8   6 C        2.922    -0.031    28.784     8.798
     9   6 C        2.918     0.006    27.898     8.661
    10   6 C        2.922    -0.033    28.818     8.803
    11   6 C        2.918     0.085    26.113     8.380
    12   6 C        3.758    -0.140    23.240     6.873
    13   1 H        0.925     0.103     1.762     2.076
    14   1 H        0.925     0.061     2.184     2.311
    15   1 H        0.924     0.103     1.762     2.076
    16   1 H        0.925     0.114     1.665     2.018
    17   1 H        0.924     0.114     1.659     2.014
    18   1 H        0.925     0.098     1.799     2.097
    19   1 H        0.925     0.096     1.823     2.111
    20   1 H        0.924     0.102     1.763     2.077
    21   1 H        0.926     0.099     1.796     2.096
    22   1 H        0.926     0.100     1.785     2.089
    23   1 H        0.926     0.097     1.809     2.103
    24   1 H        0.925     0.096     1.825     2.113
    25   1 H        0.925     0.093     1.853     2.129
    26   1 H        0.924     0.096     1.820     2.110

Wiberg/Mayer (AO) data.
largest (>0.10) Wiberg bond orders for each atom

     #   Z sym  total        # sym  WBO       # sym  WBO       # sym  WBO
 ---------------------------------------------------------------------------
     1   6 C    3.987 --     2 C    1.020    14 H    0.975    13 H    0.965
                            15 H    0.934
     2   6 C    3.926 --     3 O    1.910     1 C    1.020     4 C    0.917
     3   8 O    2.142 --     2 C    1.910
     4   6 C    3.941 --     5 N    0.987    17 H    0.946    16 H    0.936
                             2 C    0.917
     5   7 N    3.724 --    11 C    1.265     6 C    1.264     4 C    0.987
     6   6 C    3.959 --     8 C    1.422     5 N    1.264     7 C    1.054
     7   6 C    3.979 --     6 C    1.054    19 H    0.973    18 H    0.948
                            20 H    0.937
     8   6 C    3.985 --     9 C    1.429     6 C    1.422    21 H    0.959
     9   6 C    3.969 --     8 C    1.429    10 C    1.422    22 H    0.962
    10   6 C    3.985 --    11 C    1.429     9 C    1.422    23 H    0.960
    11   6 C    3.960 --    10 C    1.429     5 N    1.265    12 C    1.046
    12   6 C    3.980 --    11 C    1.046    24 H    0.973    25 H    0.953
                            26 H    0.944
    13   1 H    0.989 --     1 C    0.965
    14   1 H    0.996 --     1 C    0.975
    15   1 H    0.989 --     1 C    0.934
    16   1 H    0.987 --     4 C    0.936
    17   1 H    0.987 --     4 C    0.946
    18   1 H    0.990 --     7 C    0.948
    19   1 H    0.990 --     7 C    0.973
    20   1 H    0.989 --     7 C    0.937
    21   1 H    0.989 --     8 C    0.959
    22   1 H    0.990 --     9 C    0.962
    23   1 H    0.990 --    10 C    0.960
    24   1 H    0.990 --    12 C    0.973
    25   1 H    0.991 --    12 C    0.953
    26   1 H    0.991 --    12 C    0.944
 ---------------------------------------------------------------------------

molecular dipole:
                 x           y           z       tot (Debye)
 q only:        0.688       6.439       0.836
   full:        0.707       6.652       0.848      17.140

           -------------------------------------------------
          | TOTAL ENERGY              -35.134582751153 Eh   |
          | GRADIENT NORM               0.000912000824 Eh/α |
          | HOMO-LUMO GAP               2.773073193621 eV   |
           -------------------------------------------------

 * finished run on 2024/12/20 at 06:42:08.722
