   * xtb version 6.7.1 (edcfbbe) compiled by 'conda@3ef47c1a292c' on 2024-11-25

   ID    Z sym.   atoms
    1    6 C      1-5, 7-12
    2   15 P      6
    3    1 H      13-36

          program call               : xtb C0361.xyz --opt --namespace C0361 --charge +1
          :  Hamiltonian                  GFN2-xTB          :
 * total energy  :   -37.9289611 Eh     change       -0.5986749E-09 Eh
 * total energy  :   -37.9346173 Eh     change       -0.5656173E-02 Eh
 * total energy  :   -37.9360989 Eh     change       -0.1481670E-02 Eh
 * total energy  :   -37.9362768 Eh     change       -0.1778866E-03 Eh
 * total energy  :   -37.9363401 Eh     change       -0.6323945E-04 Eh
 * total energy  :   -37.9363976 Eh     change       -0.5756708E-04 Eh
 * total energy  :   -37.9364389 Eh     change       -0.4124423E-04 Eh
 * total energy  :   -37.9364987 Eh     change       -0.5983855E-04 Eh
 * total energy  :   -37.9365194 Eh     change       -0.2067152E-04 Eh
 * total energy  :   -37.9365350 Eh     change       -0.1564190E-04 Eh
 * total energy  :   -37.9365452 Eh     change       -0.1021116E-04 Eh
 * total energy  :   -37.9365527 Eh     change       -0.7497247E-05 Eh
 * total energy  :   -37.9365566 Eh     change       -0.3863694E-05 Eh
   *** GEOMETRY OPTIMIZATION CONVERGED AFTER 13 ITERATIONS ***

 final structure:
================
36
 xtb: 6.7.1 (edcfbbe)
C            1.19071993449443        0.10074852003793        0.23979896214099
C            0.21187141419092        1.19673302990339       -0.21095600537047
C           -1.16010770846931        0.51939234061795       -0.37258071854070
C           -0.93251430360782       -0.98888846433614       -0.19805960009793
C            0.57642097685357       -1.18891531057929       -0.31541048854766
P            1.48309974932090        0.05846181170607        2.05966812128296
C            2.31883117416427       -1.50687195169864        2.51006338800581
C            3.51976515361029       -1.85090388052890        1.63422779906527
C            2.64810607000450        1.38856076563562        2.54410227572621
C            2.45336347788446        2.74811349895122        1.88103809928592
C           -0.00233068392245        0.11344211167749        3.13428104002219
C           -0.62926501347806        1.48804552634418        3.33868653649814
H            2.19412433229534        0.26990442972258       -0.16996789027528
H            0.17184131977192        2.03382346859652        0.48321553609974
H            0.54731371606351        1.58783599871831       -1.17135791837252
H           -1.56446338610035        0.73310963028925       -1.35983791627406
H           -1.87940099854300        0.88914157524572        0.35652162080804
H           -1.46647521001716       -1.56551026900932       -0.94996213393446
H           -1.28576229735549       -1.32452145341933        0.77760366472073
H            0.85506642003663       -1.27193227729180       -1.36679725282141
H            0.90928917024599       -2.09248444637112        0.19281102233621
H            2.63419921450027       -1.39556636385991        3.55271724081570
H            1.57539834443974       -2.30847441353221        2.47522614292907
H            4.26993013249116       -1.06395044096883        1.65392773343539
H            3.98674952954737       -2.75992745778864        2.00527912960379
H            3.22807554932050       -2.02379641169468        0.60167898688403
H            2.57166816921665        1.47796711848573        3.63261765038919
H            3.65051988779874        1.01592941846380        2.31359803627517
H            1.48285273641534        3.17929548118720        2.11041850894745
H            3.21450933364941        3.43232980855409        2.24933893855099
H            2.56192292349765        2.68072967335840        0.80166156774173
H           -0.73662069976283       -0.58362704464763        2.72488956097726
H            0.33092029971861       -0.28486753637944        4.09918388822206
H           -1.00683707827789        1.90463750992012        2.40963921281009
H           -1.46881486254842        1.39508665330711        4.02399174636014
H            0.07965321255043        2.18524935138275        3.77822351429999

          :  Hamiltonian                  GFN2-xTB          :
         :: total energy             -37.936556607725 Eh    ::
         :: gradient norm              0.000415219836 Eh/a0 ::
         :: HOMO-LUMO gap              6.446575302945 eV    ::
         :: SCC energy               -38.491526807635 Eh    ::
         :: -> dispersion             -0.031720282297 Eh    ::
         :: repulsion energy           0.554970199910 Eh    ::

    * Orbital Energies and Occupations

         #    Occupation            Energy/Eh            Energy/eV
      -------------------------------------------------------------
         1        2.0000           -0.8493307             -23.1115
       ...           ...                  ...                  ...
        24        2.0000           -0.6132672             -16.6878
        25        2.0000           -0.6034335             -16.4203
        26        2.0000           -0.5959457             -16.2165
        27        2.0000           -0.5945386             -16.1782
        28        2.0000           -0.5932142             -16.1422
        29        2.0000           -0.5884725             -16.0132
        30        2.0000           -0.5875369             -15.9877
        31        2.0000           -0.5756535             -15.6643
        32        2.0000           -0.5729005             -15.5894
        33        2.0000           -0.5724032             -15.5759
        34        2.0000           -0.5706448             -15.5280
        35        2.0000           -0.5568854             -15.1536
        36        2.0000           -0.5425728             -14.7642 (HOMO)
        37                         -0.3056656              -8.3176 (LUMO)
        38                         -0.2861576              -7.7867
        39                         -0.2700240              -7.3477
        40                         -0.1969451              -5.3591
        41                         -0.1262650              -3.4358
        42                         -0.0882825              -2.4023
        43                         -0.0709688              -1.9312
        44                         -0.0673629              -1.8330
        45                         -0.0532403              -1.4487
        46                         -0.0456515              -1.2422
        47                         -0.0322864              -0.8786
       ...                                ...                  ...
        77                          0.7754192              21.1002
      -------------------------------------------------------------
                  HL-Gap            0.2369073 Eh            6.4466 eV

     #   Z          covCN         q      C6AA      α(0)
     1   6 C        3.816    -0.018    20.881     6.504
     2   6 C        3.867    -0.066    21.724     6.628
     3   6 C        3.814    -0.067    21.763     6.640
     4   6 C        3.816    -0.064    21.707     6.631
     5   6 C        3.876    -0.066    21.709     6.625
     6  15 P        3.972     0.185   152.272    22.167
     7   6 C        3.749    -0.076    22.010     6.691
     8   6 C        3.807    -0.117    22.728     6.786
     9   6 C        3.749    -0.070    21.906     6.675
    10   6 C        3.790    -0.116    22.724     6.789
    11   6 C        3.749    -0.067    21.853     6.667
    12   6 C        3.795    -0.114    22.688     6.783
    13   1 H        0.929     0.080     1.982     2.201
    14   1 H        0.925     0.055     2.258     2.350
    15   1 H        0.925     0.063     2.165     2.301
    16   1 H        0.925     0.059     2.206     2.323
    17   1 H        0.925     0.046     2.369     2.407
    18   1 H        0.925     0.061     2.193     2.316
    19   1 H        0.924     0.037     2.489     2.467
    20   1 H        0.924     0.067     2.118     2.276
    21   1 H        0.925     0.051     2.306     2.375
    22   1 H        0.927     0.087     1.910     2.161
    23   1 H        0.926     0.088     1.902     2.157
    24   1 H        0.925     0.059     2.216     2.328
    25   1 H        0.925     0.077     2.010     2.217
    26   1 H        0.925     0.064     2.155     2.296
    27   1 H        0.927     0.089     1.887     2.148
    28   1 H        0.927     0.089     1.885     2.147
    29   1 H        0.925     0.062     2.176     2.307
    30   1 H        0.925     0.075     2.033     2.230
    31   1 H        0.925     0.063     2.166     2.302
    32   1 H        0.926     0.095     1.830     2.115
    33   1 H        0.928     0.088     1.898     2.155
    34   1 H        0.925     0.064     2.148     2.292
    35   1 H        0.925     0.074     2.037     2.232
    36   1 H        0.925     0.062     2.180     2.309

Wiberg/Mayer (AO) data.
largest (>0.10) Wiberg bond orders for each atom

     #   Z sym  total        # sym  WBO       # sym  WBO       # sym  WBO
 ---------------------------------------------------------------------------
     1   6 C    3.982 --     5 C    0.979     2 C    0.976     6 P    0.963
                            13 H    0.924
     2   6 C    3.990 --     3 C    1.002     1 C    0.976    15 H    0.976
                            14 H    0.962
     3   6 C    3.993 --     4 C    1.003     2 C    1.002    16 H    0.980
                            17 H    0.979
     4   6 C    3.994 --     5 C    1.008     3 C    1.003    18 H    0.977
                            19 H    0.972
     5   6 C    3.990 --     4 C    1.008     1 C    0.979    20 H    0.971
                            21 H    0.965
     6  15 P    4.527 --     7 C    1.013     9 C    1.009    11 C    1.002
                             1 C    0.963
     7   6 C    3.991 --     6 P    1.013     8 C    1.004    23 H    0.937
                            22 H    0.935
     8   6 C    3.984 --     7 C    1.004    26 H    0.979    24 H    0.977
                            25 H    0.977
     9   6 C    3.989 --     6 P    1.009    10 C    1.003    27 H    0.934
                            28 H    0.933
    10   6 C    3.985 --     9 C    1.003    31 H    0.980    29 H    0.978
                            30 H    0.977
    11   6 C    3.988 --    12 C    1.003     6 P    1.002    33 H    0.932
                            32 H    0.931
    12   6 C    3.984 --    11 C    1.003    36 H    0.978    35 H    0.977
                            34 H    0.977
    13   1 H    0.994 --     1 C    0.924
    14   1 H    0.997 --     2 C    0.962
    15   1 H    0.996 --     2 C    0.976
    16   1 H    0.996 --     3 C    0.980
    17   1 H    0.998 --     3 C    0.979
    18   1 H    0.996 --     4 C    0.977
    19   1 H    0.999 --     4 C    0.972
    20   1 H    0.995 --     5 C    0.971
    21   1 H    0.997 --     5 C    0.965
    22   1 H    0.992 --     7 C    0.935
    23   1 H    0.992 --     7 C    0.937
    24   1 H    0.997 --     8 C    0.977
    25   1 H    0.994 --     8 C    0.977
    26   1 H    0.996 --     8 C    0.979
    27   1 H    0.992 --     9 C    0.934
    28   1 H    0.992 --     9 C    0.933
    29   1 H    0.996 --    10 C    0.978
    30   1 H    0.994 --    10 C    0.977
    31   1 H    0.996 --    10 C    0.980
    32   1 H    0.991 --    11 C    0.931
    33   1 H    0.992 --    11 C    0.932
    34   1 H    0.996 --    12 C    0.977
    35   1 H    0.994 --    12 C    0.977
    36   1 H    0.996 --    12 C    0.978
 ---------------------------------------------------------------------------

molecular dipole:
                 x           y           z       tot (Debye)
 q only:        2.510       0.290       3.490
   full:        2.620       0.212       3.600      11.329

           -------------------------------------------------
          | TOTAL ENERGY              -37.936556607725 Eh   |
          | GRADIENT NORM               0.000415219836 Eh/α |
          | HOMO-LUMO GAP               6.446575302945 eV   |
           -------------------------------------------------

 * finished run on 2024/12/20 at 06:42:04.597
