   * xtb version 6.7.1 (edcfbbe) compiled by 'conda@3ef47c1a292c' on 2024-11-25

   ID    Z sym.   atoms
    1    7 N      1, 5, 9
    2    6 C      2-4, 6, 7, 10-17, 19-24
    3    8 O      8, 18
    4    1 H      25-42

          program call               : xtb C0367.xyz --opt --namespace C0367 --charge +1
          :  Hamiltonian                  GFN2-xTB          :
 * total energy  :   -66.3023847 Eh     change       -0.5962733E-09 Eh
 * total energy  :   -66.3400345 Eh     change       -0.3764987E-01 Eh
 * total energy  :   -66.3440192 Eh     change       -0.3984638E-02 Eh
 * total energy  :   -66.3452722 Eh     change       -0.1253039E-02 Eh
 * total energy  :   -66.3459948 Eh     change       -0.7225951E-03 Eh
 * total energy  :   -66.3467238 Eh     change       -0.7289458E-03 Eh
 * total energy  :   -66.3473466 Eh     change       -0.6228839E-03 Eh
 * total energy  :   -66.3478092 Eh     change       -0.4625955E-03 Eh
 * total energy  :   -66.3481729 Eh     change       -0.3636930E-03 Eh
 * total energy  :   -66.3484237 Eh     change       -0.2508255E-03 Eh
 * total energy  :   -66.3582390 Eh     change       -0.2792026E-04 Eh
 * total energy  :   -66.3582599 Eh     change       -0.2084121E-04 Eh
 * total energy  :   -66.3582782 Eh     change       -0.1834693E-04 Eh
 * total energy  :   -66.3583080 Eh     change       -0.2978355E-04 Eh
 * total energy  :   -66.3583241 Eh     change       -0.1611457E-04 Eh
 * total energy  :   -66.3583392 Eh     change       -0.1504931E-04 Eh
 * total energy  :   -66.3583494 Eh     change       -0.1027945E-04 Eh
 * total energy  :   -66.3583546 Eh     change       -0.5205646E-05 Eh
 * total energy  :   -66.3583575 Eh     change       -0.2843715E-05 Eh
   *** GEOMETRY OPTIMIZATION CONVERGED AFTER 83 ITERATIONS ***

 final structure:
================
42
 xtb: 6.7.1 (edcfbbe)
N            0.71829373440673       -0.63783259819630        1.95249094128098
C            1.52492038645816       -0.41583164890815        1.17504988088224
C            2.62918665738389       -0.16192462516089        0.28269382470811
C            3.86087722658681        0.27617825198042        1.09851977508144
N            4.06263210034602       -0.60783395958836        2.22512690127358
C            3.65761659382596       -0.38963588183562        3.48156668216095
C            3.04858764452108        0.90853279111115        3.93007998461024
O            3.93435829647708        1.96380961499553        3.69160546276920
N            3.92542020937749       -1.45709542864842        4.24162428171262
C            4.53732730380688       -2.41292264200247        3.45059854676669
C            4.61387026117691       -1.87084355532616        2.15627598884657
C            5.17581154075068       -2.58332727410911        1.10466313291111
C            5.65000452694103       -3.84761157111628        1.38833716182671
C            5.57218860211586       -4.38811044959817        2.67386068705012
C            5.01929854504367       -3.68604653921449        3.72564503707011
C            3.81160273060112       -1.51219930426553        5.67293360229962
C            4.76176337885937       -0.46299072351500        6.30379885606252
O            5.29828177803227        0.34520313546639        5.57415999663371
C            4.93629287371404       -0.50567863210668        7.75035839670455
C            4.21932877810016       -1.36759923400911        8.58904066764158
C            4.43212109249438       -1.33611475339807        9.95256478285967
C            5.35698586394521       -0.45709793896855       10.49990930246447
C            6.07190116482070        0.40205682718156        9.67881648210613
C            5.86315643005568        0.38123357660388        8.31546322035072
H            2.83217095064429       -1.08073780546608       -0.27451232098537
H            2.35576954748156        0.62171924678689       -0.42632188324002
H            4.75276732866812        0.24555690046791        0.46889485011617
H            3.73571608042970        1.29243577174610        1.47740841430558
H            2.14578590131323        1.11158844685038        3.34387819174696
H            2.75985972070292        0.84772923687455        4.98424525262473
H            4.68863979115115        1.88399722396345        4.29656174127318
H            5.24624523542524       -2.17284188788721        0.11069176680709
H            6.09244330825334       -4.43500354583085        0.59988123929449
H            5.95670279804585       -5.38026586992608        2.84768329190287
H            4.97126309842178       -4.11873817208063        4.71153810651253
H            2.78487797981784       -1.30195193245832        5.98575917291124
H            4.08598822317029       -2.51318331337802        6.00438084436711
H            3.48846017035226       -2.05302221445887        8.18970560761475
H            3.87505217704447       -1.99957735906306       10.59571742042199
H            5.51666535417987       -0.44214544081093       11.56691442118163
H            6.78854538227577        1.08704233650997       10.10367363711330
H            6.41008923277855        1.04244094076720        7.66077664999340

          :  Hamiltonian                  GFN2-xTB          :
         :: total energy             -66.358357494236 Eh    ::
         :: gradient norm              0.000542619196 Eh/a0 ::
         :: HOMO-LUMO gap              3.058078079691 eV    ::
         :: SCC energy               -67.421854629780 Eh    ::
         :: -> dispersion             -0.047042983889 Eh    ::
         :: repulsion energy           1.063497135544 Eh    ::

    * Orbital Energies and Occupations

         #    Occupation            Energy/Eh            Energy/eV
      -------------------------------------------------------------
         1        2.0000           -0.8722011             -23.7338
       ...           ...                  ...                  ...
        48        2.0000           -0.5859742             -15.9452
        49        2.0000           -0.5807281             -15.8024
        50        2.0000           -0.5778465             -15.7240
        51        2.0000           -0.5706972             -15.5295
        52        2.0000           -0.5562152             -15.1354
        53        2.0000           -0.5543195             -15.0838
        54        2.0000           -0.5462217             -14.8634
        55        2.0000           -0.5445883             -14.8190
        56        2.0000           -0.5436629             -14.7938
        57        2.0000           -0.5379509             -14.6384
        58        2.0000           -0.5299463             -14.4206
        59        2.0000           -0.5282917             -14.3755
        60        2.0000           -0.5253138             -14.2945 (HOMO)
        61                         -0.4129315             -11.2364 (LUMO)
        62                         -0.4084966             -11.1158
        63                         -0.3602288              -9.8023
        64                         -0.3534491              -9.6178
        65                         -0.3416239              -9.2961
        66                         -0.3296221              -8.9695
        67                         -0.3228084              -8.7841
        68                         -0.3148642              -8.5679
        69                         -0.2350377              -6.3957
        70                         -0.2048133              -5.5733
        71                         -0.1788537              -4.8669
       ...                                ...                  ...
       114                          1.0246972              27.8834
      -------------------------------------------------------------
                  HL-Gap            0.1123823 Eh            3.0581 eV

     #   Z          covCN         q      C6AA      α(0)
     1   7 N        0.911    -0.221    25.826     7.350
     2   6 C        1.900     0.115    28.275     8.588
     3   6 C        3.804    -0.065    21.744     6.639
     4   6 C        3.748    -0.014    20.886     6.518
     5   7 N        2.832     0.016    20.962     6.800
     6   6 C        3.079     0.113    25.423     8.266
     7   6 C        3.677     0.073    19.572     6.338
     8   8 O        1.656    -0.419    21.226     6.219
     9   7 N        2.831     0.022    20.857     6.783
    10   6 C        3.099     0.041    26.958     8.509
    11   6 C        3.100     0.042    26.946     8.507
    12   6 C        2.909    -0.034    28.842     8.806
    13   6 C        2.926    -0.019    28.473     8.751
    14   6 C        2.926    -0.018    28.470     8.750
    15   6 C        2.909    -0.032    28.803     8.800
    16   6 C        3.741    -0.040    21.372     6.596
    17   6 C        2.822     0.228    23.220     7.896
    18   8 O        0.857    -0.379    21.263     6.182
    19   6 C        2.970    -0.019    28.469     8.752
    20   6 C        2.919    -0.026    28.663     8.779
    21   6 C        2.917    -0.018    28.467     8.749
    22   6 C        2.920    -0.006    28.160     8.702
    23   6 C        2.916    -0.017    28.444     8.746
    24   6 C        2.927    -0.009    28.234     8.714
    25   1 H        0.924     0.091     1.867     2.137
    26   1 H        0.924     0.106     1.733     2.059
    27   1 H        0.924     0.090     1.879     2.144
    28   1 H        0.924     0.110     1.697     2.037
    29   1 H        0.924     0.096     1.826     2.113
    30   1 H        0.924     0.060     2.199     2.319
    31   1 H        0.804     0.331     0.635     1.251
    32   1 H        0.926     0.068     2.113     2.273
    33   1 H        0.926     0.079     1.985     2.203
    34   1 H        0.926     0.079     1.986     2.204
    35   1 H        0.926     0.065     2.141     2.288
    36   1 H        0.924     0.096     1.826     2.113
    37   1 H        0.925     0.101     1.780     2.086
    38   1 H        0.926     0.044     2.403     2.424
    39   1 H        0.926     0.063     2.163     2.300
    40   1 H        0.926     0.069     2.097     2.265
    41   1 H        0.926     0.067     2.119     2.276
    42   1 H        0.926     0.072     2.062     2.246

Wiberg/Mayer (AO) data.
largest (>0.10) Wiberg bond orders for each atom

     #   Z sym  total        # sym  WBO       # sym  WBO       # sym  WBO
 ---------------------------------------------------------------------------
     1   7 N    3.014 --     2 C    2.857
     2   6 C    3.948 --     1 N    2.857     3 C    1.052
     3   6 C    3.989 --     2 C    1.052     4 C    0.966    25 H    0.942
                            26 H    0.938
     4   6 C    3.944 --     5 N    0.976     3 C    0.966    27 H    0.961
                            28 H    0.959
     5   7 N    3.662 --     6 C    1.334    11 C    1.122     4 C    0.976
     6   6 C    3.949 --     5 N    1.334     9 N    1.332     7 C    0.991
     7   6 C    3.958 --     8 O    1.015     6 C    0.991    30 H    0.961
                            29 H    0.943
     8   8 O    1.978 --     7 C    1.015    31 H    0.863
     9   7 N    3.663 --     6 C    1.332    10 C    1.113    16 C    0.992
    10   6 C    3.951 --    15 C    1.345    11 C    1.277     9 N    1.113
    11   6 C    3.954 --    12 C    1.343    10 C    1.277     5 N    1.122
    12   6 C    3.985 --    13 C    1.490    11 C    1.343    32 H    0.963
                            15 C    0.118
    13   6 C    3.984 --    12 C    1.490    14 C    1.383    33 H    0.966
    14   6 C    3.982 --    15 C    1.489    13 C    1.383    34 H    0.966
    15   6 C    3.985 --    14 C    1.489    10 C    1.345    35 H    0.962
                            12 C    0.118
    16   6 C    3.950 --     9 N    0.992    37 H    0.950    36 H    0.942
                            17 C    0.934
    17   6 C    3.928 --    18 O    1.777    19 C    1.087    16 C    0.934
    18   8 O    2.077 --    17 C    1.777
    19   6 C    3.983 --    20 C    1.349    24 C    1.347    17 C    1.087
    20   6 C    3.991 --    21 C    1.475    19 C    1.349    38 H    0.966
                            23 C    0.101
    21   6 C    3.990 --    20 C    1.475    22 C    1.416    39 H    0.968
    22   6 C    3.985 --    23 C    1.426    21 C    1.416    40 H    0.968
    23   6 C    3.988 --    24 C    1.465    22 C    1.426    41 H    0.967
                            20 C    0.101
    24   6 C    3.984 --    23 C    1.465    19 C    1.347    42 H    0.965
    25   1 H    0.992 --     3 C    0.942
    26   1 H    0.988 --     3 C    0.938
    27   1 H    0.991 --     4 C    0.961
    28   1 H    0.987 --     4 C    0.959
    29   1 H    0.989 --     7 C    0.943
    30   1 H    0.996 --     7 C    0.961
    31   1 H    0.890 --     8 O    0.863
    32   1 H    0.995 --    12 C    0.963
    33   1 H    0.993 --    13 C    0.966
    34   1 H    0.993 --    14 C    0.966
    35   1 H    0.995 --    15 C    0.962
    36   1 H    0.990 --    16 C    0.942
    37   1 H    0.989 --    16 C    0.950
    38   1 H    0.998 --    20 C    0.966
    39   1 H    0.996 --    21 C    0.968
    40   1 H    0.995 --    22 C    0.968
    41   1 H    0.995 --    23 C    0.967
    42   1 H    0.995 --    24 C    0.965
 ---------------------------------------------------------------------------

molecular dipole:
                 x           y           z       tot (Debye)
 q only:        8.494      -2.705       7.877
   full:        8.704      -2.836       7.812      30.589

           -------------------------------------------------
          | TOTAL ENERGY              -66.358357494236 Eh   |
          | GRADIENT NORM               0.000542619196 Eh/α |
          | HOMO-LUMO GAP               3.058078079691 eV   |
           -------------------------------------------------

 * finished run on 2024/12/20 at 06:42:15.468
