   * xtb version 6.7.1 (edcfbbe) compiled by 'conda@3ef47c1a292c' on 2024-11-25

   ID    Z sym.   atoms
    1    6 C      1-4, 6-11
    2    7 N      5
    3    1 H      12-35

          program call               : xtb C0364.xyz --opt --namespace C0364 --charge +1
          :  Hamiltonian                  GFN2-xTB          :
 * total energy  :   -36.1729120 Eh     change       -0.2047784E-10 Eh
 * total energy  :   -36.1787922 Eh     change       -0.5880150E-02 Eh
 * total energy  :   -36.1801282 Eh     change       -0.1336026E-02 Eh
 * total energy  :   -36.1801903 Eh     change       -0.6210965E-04 Eh
 * total energy  :   -36.1802348 Eh     change       -0.4448233E-04 Eh
 * total energy  :   -36.1802576 Eh     change       -0.2279730E-04 Eh
 * total energy  :   -36.1803088 Eh     change       -0.5121587E-04 Eh
 * total energy  :   -36.1803298 Eh     change       -0.2097993E-04 Eh
 * total energy  :   -36.1803398 Eh     change       -0.1004070E-04 Eh
 * total energy  :   -36.1803498 Eh     change       -0.1003458E-04 Eh
 * total energy  :   -36.1817954 Eh     change       -0.2714186E-04 Eh
 * total energy  :   -36.1818137 Eh     change       -0.1829478E-04 Eh
 * total energy  :   -36.1818382 Eh     change       -0.2449394E-04 Eh
 * total energy  :   -36.1818638 Eh     change       -0.2564934E-04 Eh
 * total energy  :   -36.1818840 Eh     change       -0.2022258E-04 Eh
 * total energy  :   -36.1818957 Eh     change       -0.1162550E-04 Eh
 * total energy  :   -36.1819059 Eh     change       -0.1029564E-04 Eh
 * total energy  :   -36.1819135 Eh     change       -0.7542429E-05 Eh
 * total energy  :   -36.1819175 Eh     change       -0.4049903E-05 Eh
   *** GEOMETRY OPTIMIZATION CONVERGED AFTER 58 ITERATIONS ***

 final structure:
================
35
 xtb: 6.7.1 (edcfbbe)
C            2.14129335252258        0.46634326760158       -0.19292923642114
C            0.86204449977832        0.64002876865691       -1.00255529920364
C            0.63793525570175       -0.49892015249957       -2.00451108789437
C            0.28361407116757       -1.84406589912398       -1.35625262751211
N           -1.15668116705692       -2.24993954416897       -1.39771088161630
C           -1.63291904497526       -2.50365575418532       -2.79403753402566
C           -1.00212494299124       -3.69332046443438       -3.53024131436752
C           -1.89573923630285       -4.93793779419505       -3.59128590388503
C           -3.09898772041858       -4.75225978536569       -4.50772154686154
C           -1.31683223837454       -3.46604758768459       -0.57794598476399
C           -1.99930890945043       -1.19210020936879       -0.80818897116501
H            2.11796129410000       -0.43035670297032        0.42170955950309
H            2.28053420239733        1.31765970449071        0.46662059012906
H            3.00316133697396        0.40547914380495       -0.85152906273085
H            0.01214496728504        0.73733304148976       -0.32598064410018
H            0.93583103460296        1.57105707016755       -1.56545761433536
H           -0.11917073261979       -0.19772092513346       -2.72785153995665
H            1.56386332519760       -0.62950857592211       -2.56637416673361
H            0.85410449091818       -2.64063411037642       -1.83323865169116
H            0.57708194706124       -1.81375220824348       -0.30554719240164
H           -2.71197816415490       -2.65795905235542       -2.74068796428482
H           -1.46000067654289       -1.58975546975514       -3.36182392807074
H           -0.79809179227584       -3.38438991246787       -4.55640822683454
H           -0.04035068291947       -3.96221585527303       -3.09453779974557
H           -1.29497876335520       -5.76250159044954       -3.97638032662186
H           -2.23609352835241       -5.22310061543218       -2.59509768126768
H           -2.77563156991756       -4.50433331870984       -5.51481841002903
H           -3.67377245789097       -5.67231656102370       -4.55516553225775
H           -3.76142444511360       -3.96379500115462       -4.15858949837474
H           -1.05542096046250       -3.25640913920170        0.45799737788547
H           -2.35158168365236       -3.80192389669526       -0.61230457958539
H           -0.67492412422625       -4.26423924175669       -0.94209854227733
H           -1.65753997258326       -0.96559680903935        0.20007192109218
H           -1.95608406860785       -0.28577397246785       -1.40691046822262
H           -3.03498289546089       -1.52394084675582       -0.75599723137460

          :  Hamiltonian                  GFN2-xTB          :
         :: total energy             -36.181917541011 Eh    ::
         :: gradient norm              0.000698244639 Eh/a0 ::
         :: HOMO-LUMO gap              8.679937024520 eV    ::
         :: SCC energy               -36.705793229757 Eh    ::
         :: -> dispersion             -0.024818745707 Eh    ::
         :: repulsion energy           0.523875688746 Eh    ::

    * Orbital Energies and Occupations

         #    Occupation            Energy/Eh            Energy/eV
      -------------------------------------------------------------
         1        2.0000           -0.8620902             -23.4587
       ...           ...                  ...                  ...
        22        2.0000           -0.6354599             -17.2917
        23        2.0000           -0.6284360             -17.1006
        24        2.0000           -0.6174557             -16.8018
        25        2.0000           -0.6057031             -16.4820
        26        2.0000           -0.6019723             -16.3805
        27        2.0000           -0.5932690             -16.1437
        28        2.0000           -0.5917701             -16.1029
        29        2.0000           -0.5688400             -15.4789
        30        2.0000           -0.5658941             -15.3988
        31        2.0000           -0.5570515             -15.1581
        32        2.0000           -0.5561040             -15.1324
        33        2.0000           -0.5502557             -14.9732
        34        2.0000           -0.5495724             -14.9546 (HOMO)
        35                         -0.2305905              -6.2747 (LUMO)
        36                         -0.1731999              -4.7130
        37                         -0.1485025              -4.0410
        38                         -0.1422764              -3.8715
        39                         -0.0821073              -2.2343
        40                         -0.0682378              -1.8568
        41                         -0.0587421              -1.5985
        42                         -0.0401972              -1.0938
        43                         -0.0341576              -0.9295
        44                         -0.0192541              -0.5239
        45                         -0.0021748              -0.0592
       ...                                ...                  ...
        68                          0.1919669               5.2237
      -------------------------------------------------------------
                  HL-Gap            0.3189818 Eh            8.6799 eV

     #   Z          covCN         q      C6AA      α(0)
     1   6 C        3.752    -0.115    22.757     6.803
     2   6 C        3.800    -0.065    21.749     6.640
     3   6 C        3.800    -0.073    21.902     6.663
     4   6 C        3.758    -0.041    21.354     6.588
     5   7 N        3.620     0.129    19.036     6.480
     6   6 C        3.758    -0.041    21.354     6.588
     7   6 C        3.800    -0.073    21.902     6.663
     8   6 C        3.800    -0.065    21.749     6.640
     9   6 C        3.752    -0.115    22.757     6.803
    10   6 C        3.725    -0.093    22.378     6.755
    11   6 C        3.725    -0.093    22.378     6.755
    12   1 H        0.925     0.034     2.536     2.491
    13   1 H        0.925     0.057     2.232     2.336
    14   1 H        0.925     0.050     2.316     2.380
    15   1 H        0.924     0.037     2.485     2.465
    16   1 H        0.924     0.057     2.235     2.338
    17   1 H        0.925     0.050     2.323     2.384
    18   1 H        0.924     0.073     2.051     2.239
    19   1 H        0.925     0.082     1.963     2.191
    20   1 H        0.924     0.090     1.880     2.144
    21   1 H        0.924     0.090     1.880     2.144
    22   1 H        0.925     0.082     1.963     2.191
    23   1 H        0.924     0.073     2.051     2.239
    24   1 H        0.925     0.050     2.323     2.384
    25   1 H        0.924     0.057     2.235     2.338
    26   1 H        0.924     0.037     2.485     2.465
    27   1 H        0.925     0.050     2.316     2.380
    28   1 H        0.925     0.057     2.232     2.336
    29   1 H        0.925     0.034     2.536     2.491
    30   1 H        0.925     0.094     1.845     2.124
    31   1 H        0.925     0.098     1.807     2.102
    32   1 H        0.925     0.101     1.775     2.083
    33   1 H        0.925     0.098     1.807     2.102
    34   1 H        0.925     0.101     1.775     2.083
    35   1 H        0.925     0.094     1.845     2.124

Wiberg/Mayer (AO) data.
largest (>0.10) Wiberg bond orders for each atom

     #   Z sym  total        # sym  WBO       # sym  WBO       # sym  WBO
 ---------------------------------------------------------------------------
     1   6 C    3.993 --     2 C    1.021    14 H    0.986    13 H    0.984
                            12 H    0.984
     2   6 C    3.993 --     1 C    1.021     3 C    1.005    15 H    0.975
                            16 H    0.975
     3   6 C    3.985 --     2 C    1.005     4 C    1.003    18 H    0.969
                            17 H    0.964
     4   6 C    3.928 --     3 C    1.003    19 H    0.964    20 H    0.962
                             5 N    0.925
     5   7 N    3.809 --    11 C    0.960    10 C    0.960     4 C    0.925
                             6 C    0.925
     6   6 C    3.928 --     7 C    1.003    22 H    0.964    21 H    0.962
                             5 N    0.925
     7   6 C    3.985 --     8 C    1.005     6 C    1.003    23 H    0.969
                            24 H    0.964
     8   6 C    3.993 --     9 C    1.021     7 C    1.005    26 H    0.975
                            25 H    0.975
     9   6 C    3.993 --     8 C    1.021    27 H    0.986    28 H    0.984
                            29 H    0.984
    10   6 C    3.930 --    30 H    0.975    31 H    0.973    32 H    0.972
                             5 N    0.960
    11   6 C    3.930 --    35 H    0.975    33 H    0.973    34 H    0.972
                             5 N    0.960
    12   1 H    0.999 --     1 C    0.984
    13   1 H    0.997 --     1 C    0.984
    14   1 H    0.997 --     1 C    0.986
    15   1 H    0.999 --     2 C    0.975
    16   1 H    0.996 --     2 C    0.975
    17   1 H    0.998 --     3 C    0.964
    18   1 H    0.994 --     3 C    0.969
    19   1 H    0.993 --     4 C    0.964
    20   1 H    0.992 --     4 C    0.962
    21   1 H    0.992 --     6 C    0.962
    22   1 H    0.993 --     6 C    0.964
    23   1 H    0.994 --     7 C    0.969
    24   1 H    0.998 --     7 C    0.964
    25   1 H    0.996 --     8 C    0.975
    26   1 H    0.999 --     8 C    0.975
    27   1 H    0.997 --     9 C    0.986
    28   1 H    0.997 --     9 C    0.984
    29   1 H    0.999 --     9 C    0.984
    30   1 H    0.991 --    10 C    0.975
    31   1 H    0.990 --    10 C    0.973
    32   1 H    0.990 --    10 C    0.972
    33   1 H    0.990 --    11 C    0.973
    34   1 H    0.990 --    11 C    0.972
    35   1 H    0.991 --    11 C    0.975
 ---------------------------------------------------------------------------

molecular dipole:
                 x           y           z       tot (Debye)
 q only:       -1.971      -4.218      -2.943
   full:       -2.000      -4.222      -2.903      13.980

           -------------------------------------------------
          | TOTAL ENERGY              -36.181917541011 Eh   |
          | GRADIENT NORM               0.000698244639 Eh/α |
          | HOMO-LUMO GAP               8.679937024520 eV   |
           -------------------------------------------------

 * finished run on 2024/12/20 at 06:42:10.008
