   * xtb version 6.7.1 (edcfbbe) compiled by 'conda@3ef47c1a292c' on 2024-11-25

   ID    Z sym.   atoms
    1    6 C      1-4, 6-9, 11, 12
    2    7 N      5
    3    8 O      10
    4    1 H      13-34

          program call               : xtb C0370.xyz --opt --namespace C0370 --charge +1
          :  Hamiltonian                  GFN2-xTB          :
 * total energy  :   -39.1680268 Eh     change       -0.4914114E-10 Eh
 * total energy  :   -39.1768516 Eh     change       -0.8824769E-02 Eh
 * total energy  :   -39.1794290 Eh     change       -0.2577420E-02 Eh
 * total energy  :   -39.1796737 Eh     change       -0.2446837E-03 Eh
 * total energy  :   -39.1798460 Eh     change       -0.1723148E-03 Eh
 * total energy  :   -39.1799213 Eh     change       -0.7532134E-04 Eh
 * total energy  :   -39.1799731 Eh     change       -0.5171317E-04 Eh
 * total energy  :   -39.1800375 Eh     change       -0.6446387E-04 Eh
 * total energy  :   -39.1801014 Eh     change       -0.6385631E-04 Eh
 * total energy  :   -39.1801430 Eh     change       -0.4164786E-04 Eh
 * total energy  :   -39.1811109 Eh     change       -0.1545604E-04 Eh
 * total energy  :   -39.1811201 Eh     change       -0.9207957E-05 Eh
 * total energy  :   -39.1811393 Eh     change       -0.1916567E-04 Eh
 * total energy  :   -39.1811534 Eh     change       -0.1410557E-04 Eh
 * total energy  :   -39.1811624 Eh     change       -0.9007978E-05 Eh
 * total energy  :   -39.1811749 Eh     change       -0.1258499E-04 Eh
 * total energy  :   -39.1811837 Eh     change       -0.8775739E-05 Eh
 * total energy  :   -39.1811894 Eh     change       -0.5717144E-05 Eh
 * total energy  :   -39.1811941 Eh     change       -0.4612173E-05 Eh
   *** GEOMETRY OPTIMIZATION CONVERGED AFTER 53 ITERATIONS ***

 final structure:
================
34
 xtb: 6.7.1 (edcfbbe)
C            2.06660122204463        0.07075350128257        0.26576509931540
C            0.80780012938981        0.23640482785324        1.10910537976820
C            0.48854901313726        1.70607241593949        1.41014917918905
C           -0.00016349469202        2.49719980067670        0.18906337797496
N           -1.46797995365743        2.78082121519755        0.13714121444839
C           -1.95788431675570        3.54891177611008        1.31279040647666
C           -1.12646165049630        4.74634383978071        1.83274589634114
C           -1.05932623661721        5.91011798391743        0.86892159173216
C           -2.02222089080828        6.80863787614786        0.76391508287951
O           -1.81455395005954        5.06651291853264        3.02026305022552
C           -1.74454767260588        3.53661599187132       -1.10122618080341
C           -2.22485429810562        1.51471706663342        0.07780643947760
H            1.96639142749633        0.53523017621051       -0.71277612623048
H            2.27404556602814       -0.98432999576097        0.11370133753041
H            2.92263564922391        0.51420212108565        0.76737568489263
H           -0.03090189359376       -0.24948353021851        0.60794523907162
H            0.95975609531771       -0.27603554370460        2.05964582087829
H           -0.23422354153144        1.76097165107469        2.22318862458578
H            1.40449917424074        2.17154383575480        1.77738578478169
H            0.51105442830245        3.45795765169928        0.12871813767939
H            0.24714622314367        1.93688073031280       -0.71484429586729
H           -2.95295633784422        3.93508171410246        1.08237793935367
H           -2.06363204173095        2.87845191902429        2.16746444257871
H           -0.10438695122073        4.41937653050469        2.08102213087424
H           -0.14328513400056        6.00389270036158        0.30104824209126
H           -1.94859753155396        7.64832995255018        0.09661885008591
H           -2.92005451501181        6.73870463655145        1.35678782763967
H           -1.47516923066543        5.89171392821538        3.38502248864600
H           -1.38064779783644        2.98629001021710       -1.96726158577875
H           -2.81619830668735        3.69058565371239       -1.21324314415253
H           -1.25913406744492        4.50939684813371       -1.06681195641244
H           -1.94432609979833        0.95645939238349       -0.81373176308833
H           -2.01973873995683        0.90572131647353        0.95464440930895
H           -3.29318427563839        1.72023908736851        0.03981137450161

          :  Hamiltonian                  GFN2-xTB          :
         :: total energy             -39.181194054048 Eh    ::
         :: gradient norm              0.000333838277 Eh/a0 ::
         :: HOMO-LUMO gap              5.197090891207 eV    ::
         :: SCC energy               -39.718209646498 Eh    ::
         :: -> dispersion             -0.025981787755 Eh    ::
         :: repulsion energy           0.537015592451 Eh    ::

    * Orbital Energies and Occupations

         #    Occupation            Energy/Eh            Energy/eV
      -------------------------------------------------------------
         1        2.0000           -0.8640266             -23.5114
       ...           ...                  ...                  ...
        24        2.0000           -0.6360625             -17.3081
        25        2.0000           -0.6283901             -17.0994
        26        2.0000           -0.6217633             -16.9190
        27        2.0000           -0.6068013             -16.5119
        28        2.0000           -0.6041423             -16.4395
        29        2.0000           -0.6025264             -16.3956
        30        2.0000           -0.5930420             -16.1375
        31        2.0000           -0.5677849             -15.4502
        32        2.0000           -0.5665128             -15.4156
        33        2.0000           -0.5566496             -15.1472
        34        2.0000           -0.5538151             -15.0701
        35        2.0000           -0.5499351             -14.9645
        36        2.0000           -0.5393987             -14.6778 (HOMO)
        37                         -0.3484091              -9.4807 (LUMO)
        38                         -0.2326800              -6.3315
        39                         -0.1757651              -4.7828
        40                         -0.1514609              -4.1215
        41                         -0.1466182              -3.9897
        42                         -0.0768807              -2.0920
        43                         -0.0705710              -1.9203
        44                         -0.0587289              -1.5981
        45                         -0.0524114              -1.4262
        46                         -0.0388925              -1.0583
        47                         -0.0289550              -0.7879
       ...                                ...                  ...
        70                          0.4744498              12.9104
      -------------------------------------------------------------
                  HL-Gap            0.1909896 Eh            5.1971 eV

     #   Z          covCN         q      C6AA      α(0)
     1   6 C        3.752    -0.115    22.762     6.804
     2   6 C        3.799    -0.065    21.751     6.640
     3   6 C        3.800    -0.075    21.935     6.668
     4   6 C        3.759    -0.041    21.357     6.589
     5   7 N        3.621     0.129    19.032     6.479
     6   6 C        3.766    -0.045    21.419     6.596
     7   6 C        3.727     0.112    18.843     6.198
     8   6 C        2.884    -0.065    29.618     8.922
     9   6 C        2.837    -0.079    29.962     8.970
    10   8 O        1.659    -0.434    21.520     6.262
    11   6 C        3.727    -0.099    22.496     6.772
    12   6 C        3.727    -0.096    22.431     6.762
    13   1 H        0.925     0.034     2.533     2.489
    14   1 H        0.925     0.058     2.228     2.334
    15   1 H        0.925     0.050     2.318     2.381
    16   1 H        0.924     0.038     2.480     2.462
    17   1 H        0.924     0.058     2.225     2.333
    18   1 H        0.925     0.056     2.251     2.346
    19   1 H        0.924     0.072     2.068     2.249
    20   1 H        0.925     0.080     1.977     2.199
    21   1 H        0.924     0.092     1.860     2.133
    22   1 H        0.924     0.099     1.790     2.092
    23   1 H        0.924     0.105     1.740     2.063
    24   1 H        0.923     0.038     2.477     2.461
    25   1 H        0.925     0.041     2.439     2.442
    26   1 H        0.926     0.069     2.098     2.265
    27   1 H        0.926     0.072     2.067     2.248
    28   1 H        0.805     0.314     0.680     1.296
    29   1 H        0.925     0.097     1.809     2.103
    30   1 H        0.925     0.098     1.804     2.100
    31   1 H        0.925     0.102     1.769     2.080
    32   1 H        0.925     0.099     1.792     2.094
    33   1 H        0.925     0.105     1.736     2.060
    34   1 H        0.925     0.097     1.813     2.106

Wiberg/Mayer (AO) data.
largest (>0.10) Wiberg bond orders for each atom

     #   Z sym  total        # sym  WBO       # sym  WBO       # sym  WBO
 ---------------------------------------------------------------------------
     1   6 C    3.993 --     2 C    1.021    15 H    0.986    14 H    0.984
                            13 H    0.984
     2   6 C    3.993 --     1 C    1.021     3 C    1.005    16 H    0.975
                            17 H    0.975
     3   6 C    3.984 --     2 C    1.005     4 C    1.002    19 H    0.970
                            18 H    0.966
     4   6 C    3.925 --     3 C    1.002    20 H    0.968    21 H    0.961
                             5 N    0.923
     5   7 N    3.809 --    11 C    0.958    12 C    0.957     6 C    0.936
                             4 C    0.923
     6   6 C    3.926 --     7 C    0.970    22 H    0.963    23 H    0.959
                             5 N    0.936
     7   6 C    3.958 --    10 O    0.996     8 C    0.993     6 C    0.970
                            24 H    0.955
     8   6 C    3.987 --     9 C    1.981     7 C    0.993    25 H    0.963
     9   6 C    3.984 --     8 C    1.981    26 H    0.973    27 H    0.971
    10   8 O    1.962 --     7 C    0.996    28 H    0.883
    11   6 C    3.927 --    29 H    0.975    30 H    0.974    31 H    0.966
                             5 N    0.958
    12   6 C    3.925 --    34 H    0.975    32 H    0.974    33 H    0.970
                             5 N    0.957
    13   1 H    0.999 --     1 C    0.984
    14   1 H    0.997 --     1 C    0.984
    15   1 H    0.997 --     1 C    0.986
    16   1 H    0.999 --     2 C    0.975
    17   1 H    0.996 --     2 C    0.975
    18   1 H    0.997 --     3 C    0.966
    19   1 H    0.995 --     3 C    0.970
    20   1 H    0.994 --     4 C    0.968
    21   1 H    0.992 --     4 C    0.961
    22   1 H    0.990 --     6 C    0.963
    23   1 H    0.989 --     6 C    0.959
    24   1 H    0.999 --     7 C    0.955
    25   1 H    0.998 --     8 C    0.963
    26   1 H    0.995 --     9 C    0.973
    27   1 H    0.995 --     9 C    0.971
    28   1 H    0.901 --    10 O    0.883
    29   1 H    0.990 --    11 C    0.975
    30   1 H    0.990 --    11 C    0.974
    31   1 H    0.990 --    11 C    0.966
    32   1 H    0.990 --    12 C    0.974
    33   1 H    0.989 --    12 C    0.970
    34   1 H    0.991 --    12 C    0.975
 ---------------------------------------------------------------------------

molecular dipole:
                 x           y           z       tot (Debye)
 q only:       -2.257       5.603       0.334
   full:       -2.147       5.806       0.286      15.752

           -------------------------------------------------
          | TOTAL ENERGY              -39.181194054048 Eh   |
          | GRADIENT NORM               0.000333838277 Eh/α |
          | HOMO-LUMO GAP               5.197090891207 eV   |
           -------------------------------------------------

 * finished run on 2024/12/20 at 06:42:19.529
