   * xtb version 6.7.1 (edcfbbe) compiled by 'conda@3ef47c1a292c' on 2024-11-25

   ID    Z sym.   atoms
    1    6 C      1-4, 8-14
    2    7 N      5-7
    3    1 H      15-30

          program call               : xtb C0379.xyz --opt --namespace C0379 --charge +1
          :  Hamiltonian                  GFN2-xTB          :
 * total energy  :   -40.0808657 Eh     change       -0.8760992E-11 Eh
 * total energy  :   -40.0906579 Eh     change       -0.9792166E-02 Eh
 * total energy  :   -40.0918140 Eh     change       -0.1156078E-02 Eh
 * total energy  :   -40.0919075 Eh     change       -0.9352884E-04 Eh
 * total energy  :   -40.0920081 Eh     change       -0.1005980E-03 Eh
 * total energy  :   -40.0920598 Eh     change       -0.5163064E-04 Eh
 * total energy  :   -40.0921354 Eh     change       -0.7562220E-04 Eh
 * total energy  :   -40.0922205 Eh     change       -0.8516360E-04 Eh
 * total energy  :   -40.0922779 Eh     change       -0.5735743E-04 Eh
 * total energy  :   -40.0923276 Eh     change       -0.4973883E-04 Eh
 * total energy  :   -40.0933529 Eh     change       -0.2584103E-04 Eh
 * total energy  :   -40.0933706 Eh     change       -0.1775550E-04 Eh
 * total energy  :   -40.0933470 Eh     change        0.2367365E-04 Eh
 * total energy  :   -40.0933937 Eh     change       -0.4679204E-04 Eh
 * total energy  :   -40.0934029 Eh     change       -0.9141421E-05 Eh
 * total energy  :   -40.0934128 Eh     change       -0.9926916E-05 Eh
 * total energy  :   -40.0934205 Eh     change       -0.7664450E-05 Eh
 * total energy  :   -40.0934235 Eh     change       -0.3013294E-05 Eh
 * total energy  :   -40.0934261 Eh     change       -0.2567582E-05 Eh
   *** GEOMETRY OPTIMIZATION CONVERGED AFTER 38 ITERATIONS ***

 final structure:
================
30
 xtb: 6.7.1 (edcfbbe)
C            1.71761338053618       -0.71977807463771       -0.22817569572049
C            0.90013183184564       -1.59781930300274        0.71227382761623
C            1.05131783675458       -1.19734839622739        2.18014779202045
C            0.33731231753681        0.11080974772821        2.54687077658194
N           -1.09248006353538       -0.05964999167257        2.54856978293587
N           -1.69094888850885       -0.55181700253800        3.58908619037764
N           -2.96036455771228       -0.65067893707311        3.33872121250337
C           -3.23950596146509       -0.20861107395062        2.07778430441253
C           -1.98862077774115        0.18502040268597        1.54708381953090
C           -1.88397120336767        0.70513481533504        0.25695711921892
C           -3.05316872531166        0.80699298048089       -0.45963521778810
C           -4.29464000381361        0.41335255375135        0.06969064381979
C           -4.41715145008617       -0.09911650113758        1.33985570426275
C           -3.87326419625329       -1.15773227064705        4.31884103344269
H            1.42186541008404        0.32565702281053       -0.17467111770483
H            1.59074967290561       -1.05261921212282       -1.25451108452029
H            2.77384144410332       -0.78371941876442        0.01950547561431
H           -0.15323731925961       -1.58085882695116        0.41969298843223
H            1.24484220328918       -2.62729370547964        0.60755003202077
H            0.66767861405954       -1.98941823103305        2.82606974904545
H            2.10998316113151       -1.06881128147394        2.40579659355307
H            0.62757813709289        0.41085015936789        3.55543294263495
H            0.58997888744584        0.90375224219767        1.84306567826323
H           -0.93831505522776        1.00745857085245       -0.16007434439367
H           -3.02245266256584        1.20227582452425       -1.46248422609819
H           -5.17498864610594        0.52065234581290       -0.54371032447054
H           -5.36876243621504       -0.39866889307711        1.74607550201743
H           -3.30341494152544       -1.43833122821527        5.20244990014507
H           -4.60509722214514       -0.39285580381246        4.58335539099548
H           -4.39858878594618       -2.03026851373055        3.92758555125082

          :  Hamiltonian                  GFN2-xTB          :
         :: total energy             -40.093426057474 Eh    ::
         :: gradient norm              0.000511819100 Eh/a0 ::
         :: HOMO-LUMO gap              2.637157679970 eV    ::
         :: SCC energy               -40.711216433644 Eh    ::
         :: -> dispersion             -0.026277307605 Eh    ::
         :: repulsion energy           0.617790376170 Eh    ::

    * Orbital Energies and Occupations

         #    Occupation            Energy/Eh            Energy/eV
      -------------------------------------------------------------
         1        2.0000           -0.9139926             -24.8710
       ...           ...                  ...                  ...
        25        2.0000           -0.6369180             -17.3314
        26        2.0000           -0.6173573             -16.7991
        27        2.0000           -0.6092406             -16.5783
        28        2.0000           -0.6016532             -16.3718
        29        2.0000           -0.5983531             -16.2820
        30        2.0000           -0.5955915             -16.2069
        31        2.0000           -0.5885353             -16.0149
        32        2.0000           -0.5865964             -15.9621
        33        2.0000           -0.5779440             -15.7267
        34        2.0000           -0.5620934             -15.2953
        35        2.0000           -0.5592092             -15.2169
        36        2.0000           -0.5523781             -15.0310
        37        2.0000           -0.5446661             -14.8211 (HOMO)
        38                         -0.4477523             -12.1840 (LUMO)
        39                         -0.3815053             -10.3813
        40                         -0.3737276             -10.1696
        41                         -0.2559065              -6.9636
        42                         -0.1853663              -5.0441
        43                         -0.1470522              -4.0015
        44                         -0.0694778              -1.8906
        45                         -0.0668778              -1.8198
        46                         -0.0492581              -1.3404
        47                         -0.0306215              -0.8333
        48                         -0.0188578              -0.5131
       ...                                ...                  ...
        72                          0.5309314              14.4474
      -------------------------------------------------------------
                  HL-Gap            0.0969138 Eh            2.6372 eV

     #   Z          covCN         q      C6AA      α(0)
     1   6 C        3.752    -0.112    22.706     6.795
     2   6 C        3.800    -0.060    21.651     6.625
     3   6 C        3.802    -0.070    21.844     6.654
     4   6 C        3.743    -0.028    21.143     6.560
     5   7 N        2.983     0.126    19.094     6.490
     6   7 N        2.145    -0.096    23.648     7.216
     7   7 N        2.981     0.130    19.020     6.477
     8   6 C        3.070     0.035    27.149     8.544
     9   6 C        3.067     0.039    27.062     8.530
    10   6 C        2.906    -0.029    28.731     8.789
    11   6 C        2.926    -0.012    28.311     8.726
    12   6 C        2.927    -0.011    28.284     8.722
    13   6 C        2.906    -0.031    28.776     8.796
    14   6 C        3.693    -0.087    22.350     6.764
    15   1 H        0.925     0.031     2.577     2.511
    16   1 H        0.925     0.053     2.288     2.365
    17   1 H        0.925     0.053     2.286     2.364
    18   1 H        0.924     0.026     2.638     2.540
    19   1 H        0.924     0.058     2.219     2.330
    20   1 H        0.924     0.058     2.227     2.334
    21   1 H        0.925     0.078     2.000     2.211
    22   1 H        0.924     0.097     1.816     2.107
    23   1 H        0.925     0.091     1.871     2.139
    24   1 H        0.926     0.081     1.967     2.193
    25   1 H        0.926     0.087     1.909     2.161
    26   1 H        0.926     0.087     1.907     2.160
    27   1 H        0.926     0.079     1.991     2.207
    28   1 H        0.925     0.117     1.640     2.003
    29   1 H        0.924     0.106     1.730     2.057
    30   1 H        0.924     0.106     1.733     2.059

Wiberg/Mayer (AO) data.
largest (>0.10) Wiberg bond orders for each atom

     #   Z sym  total        # sym  WBO       # sym  WBO       # sym  WBO
 ---------------------------------------------------------------------------
     1   6 C    3.993 --     2 C    1.021    17 H    0.986    16 H    0.985
                            15 H    0.983
     2   6 C    3.994 --     1 C    1.021     3 C    1.009    18 H    0.976
                            19 H    0.973
     3   6 C    3.981 --     2 C    1.009     4 C    0.975    20 H    0.974
                            21 H    0.966
     4   6 C    3.933 --     3 C    0.975     5 N    0.969    22 H    0.960
                            23 H    0.959
     5   7 N    3.727 --     6 N    1.333     9 C    1.184     4 C    0.969
                             7 N    0.122
     6   7 N    3.015 --     5 N    1.333     7 N    1.329
     7   7 N    3.729 --     6 N    1.329     8 C    1.182    14 C    0.992
                             5 N    0.122
     8   6 C    3.961 --    13 C    1.304     9 C    1.246     7 N    1.182
     9   6 C    3.963 --    10 C    1.302     8 C    1.246     5 N    1.184
    10   6 C    3.985 --    11 C    1.530     9 C    1.302    24 H    0.960
                            13 C    0.121
    11   6 C    3.983 --    10 C    1.530    12 C    1.339    25 H    0.965
    12   6 C    3.984 --    13 C    1.529    11 C    1.339    26 H    0.965
    13   6 C    3.984 --    12 C    1.529     8 C    1.304    27 H    0.963
                            10 C    0.121
    14   6 C    3.931 --     7 N    0.992    28 H    0.971    30 H    0.959
                            29 H    0.958
    15   1 H    0.999 --     1 C    0.983
    16   1 H    0.997 --     1 C    0.985
    17   1 H    0.997 --     1 C    0.986
    18   1 H    0.999 --     2 C    0.976
    19   1 H    0.996 --     2 C    0.973
    20   1 H    0.997 --     3 C    0.974
    21   1 H    0.993 --     3 C    0.966
    22   1 H    0.989 --     4 C    0.960
    23   1 H    0.991 --     4 C    0.959
    24   1 H    0.993 --    10 C    0.960
    25   1 H    0.992 --    11 C    0.965
    26   1 H    0.992 --    12 C    0.965
    27   1 H    0.993 --    13 C    0.963
    28   1 H    0.986 --    14 C    0.971
    29   1 H    0.988 --    14 C    0.958
    30   1 H    0.988 --    14 C    0.959
 ---------------------------------------------------------------------------

molecular dipole:
                 x           y           z       tot (Debye)
 q only:       -4.084      -0.557       4.116
   full:       -4.261      -0.452       3.976      14.857

           -------------------------------------------------
          | TOTAL ENERGY              -40.093426057474 Eh   |
          | GRADIENT NORM               0.000511819100 Eh/α |
          | HOMO-LUMO GAP               2.637157679970 eV   |
           -------------------------------------------------

 * finished run on 2024/12/20 at 06:42:41.221
