   * xtb version 6.7.1 (edcfbbe) compiled by 'conda@3ef47c1a292c' on 2024-11-25

   ID    Z sym.   atoms
    1    7 N      1-3, 5, 8
    2    6 C      4, 6, 7
    3    1 H      9-12

          program call               : xtb C0377.xyz --opt --namespace C0377 --charge +1
          :  Hamiltonian                  GFN2-xTB          :
 * total energy  :   -22.4810796 Eh     change       -0.7671730E-10 Eh
 * total energy  :   -22.5167265 Eh     change       -0.3564688E-01 Eh
 * total energy  :   -22.5307551 Eh     change       -0.1402864E-01 Eh
 * total energy  :   -22.5348234 Eh     change       -0.4068271E-02 Eh
 * total energy  :   -22.5336465 Eh     change        0.1176861E-02 Eh
 * total energy  :   -22.5374207 Eh     change       -0.3774169E-02 Eh
 * total energy  :   -22.5382330 Eh     change       -0.8122664E-03 Eh
 * total energy  :   -22.5391482 Eh     change       -0.9152073E-03 Eh
 * total energy  :   -22.5396021 Eh     change       -0.4538954E-03 Eh
 * total energy  :   -22.5397980 Eh     change       -0.1959485E-03 Eh
 * total energy  :   -22.5398783 Eh     change       -0.8026702E-04 Eh
 * total energy  :   -22.5399164 Eh     change       -0.3812909E-04 Eh
 * total energy  :   -22.5399333 Eh     change       -0.1686585E-04 Eh
 * total energy  :   -22.5399418 Eh     change       -0.8513865E-05 Eh
 * total energy  :   -22.5399482 Eh     change       -0.6370280E-05 Eh
 * total energy  :   -22.5399520 Eh     change       -0.3827074E-05 Eh
 * total energy  :   -22.5399541 Eh     change       -0.2157453E-05 Eh
   *** GEOMETRY OPTIMIZATION CONVERGED AFTER 17 ITERATIONS ***

 final structure:
================
12
 xtb: 6.7.1 (edcfbbe)
N            1.18971384866355       -0.13486556100788       -0.77236744262188
N            2.17306868610449       -0.22142830060185       -0.26842568846037
N            3.26097308572738       -0.09712037471327        0.24320733467868
C            4.05160036808394       -0.98837268739340        0.81779565840143
N            3.95433538490793       -2.23254519683255        1.02426510179178
C            5.09320774101159       -2.67147596499595        1.67633294516612
C            5.95753338735656       -1.67184803881671        1.89885126059006
N            5.37948227279775       -0.44238989489081        1.36340576537078
H            5.17935181200393       -3.71078310888504        1.93074804404446
H            6.91865850279167       -1.66517541146875        2.37060996578866
H            5.23148401591949        0.27844520455263        2.08441036593057
H            5.95446089463191       -0.01311066494635        0.62419668931952

          :  Hamiltonian                  GFN2-xTB          :
         :: total energy             -22.539954140646 Eh    ::
         :: gradient norm              0.000635873078 Eh/a0 ::
         :: HOMO-LUMO gap              3.035487169800 eV    ::
         :: SCC energy               -22.880484222903 Eh    ::
         :: -> dispersion             -0.007626680334 Eh    ::
         :: repulsion energy           0.340530082257 Eh    ::

    * Orbital Energies and Occupations

         #    Occupation            Energy/Eh            Energy/eV
      -------------------------------------------------------------
         1        2.0000           -0.9249220             -25.1684
       ...           ...                  ...                  ...
         8        2.0000           -0.8166987             -22.2235
         9        2.0000           -0.7980223             -21.7153
        10        2.0000           -0.7944403             -21.6178
        11        2.0000           -0.7784170             -21.1818
        12        2.0000           -0.7480024             -20.3542
        13        2.0000           -0.7117964             -19.3690
        14        2.0000           -0.6973313             -18.9753
        15        2.0000           -0.6799440             -18.5022
        16        2.0000           -0.6611049             -17.9896
        17        2.0000           -0.6527115             -17.7612
        18        2.0000           -0.6325791             -17.2134
        19        2.0000           -0.6028550             -16.4045
        20        2.0000           -0.5936668             -16.1545 (HOMO)
        21                         -0.4821147             -13.1190 (LUMO)
        22                         -0.4438800             -12.0786
        23                         -0.4080620             -11.1039
        24                         -0.3552783              -9.6676
        25                         -0.2929022              -7.9703
        26                         -0.2248706              -6.1190
        27                         -0.1410426              -3.8380
        28                         -0.1007896              -2.7426
        29                         -0.0807559              -2.1975
        30                         -0.0038827              -0.1057
        31                          0.0183170               0.4984
       ...                                ...                  ...
        36                          0.9280795              25.2543
      -------------------------------------------------------------
                  HL-Gap            0.1115521 Eh            3.0355 eV

     #   Z          covCN         q      C6AA      α(0)
     1   7 N        0.991    -0.041    21.660     6.691
     2   7 N        1.986     0.364    16.138     5.958
     3   7 N        1.906    -0.133    24.663     7.363
     4   6 C        2.999     0.220    23.373     7.931
     5   7 N        1.874    -0.184    25.797     7.529
     6   6 C        3.050     0.060    26.609     8.460
     7   6 C        2.913    -0.017    28.437     8.744
     8   7 N        3.570    -0.055    22.301     7.014
     9   1 H        0.926     0.133     1.512     1.923
    10   1 H        0.926     0.121     1.605     1.981
    11   1 H        0.859     0.267     0.822     1.420
    12   1 H        0.859     0.266     0.822     1.421

Wiberg/Mayer (AO) data.
largest (>0.10) Wiberg bond orders for each atom

     #   Z sym  total        # sym  WBO       # sym  WBO       # sym  WBO
 ---------------------------------------------------------------------------
     1   7 N    2.985 --     2 N    2.357     3 N    0.465
     2   7 N    3.856 --     1 N    2.357     3 N    1.448
     3   7 N    3.301 --     2 N    1.448     4 C    1.235     1 N    0.465
     4   6 C    3.942 --     5 N    1.676     3 N    1.235     8 N    0.833
     5   7 N    3.135 --     4 C    1.676     6 C    1.136
     6   6 C    3.961 --     7 C    1.794     5 N    1.136     9 H    0.951
     7   6 C    3.859 --     6 C    1.794     8 N    0.963    10 H    0.956
     8   7 N    3.717 --     7 C    0.963    12 H    0.889    11 H    0.888
                             4 C    0.833
     9   1 H    0.981 --     6 C    0.951
    10   1 H    0.985 --     7 C    0.956
    11   1 H    0.929 --     8 N    0.888
    12   1 H    0.929 --     8 N    0.889
 ---------------------------------------------------------------------------

molecular dipole:
                 x           y           z       tot (Debye)
 q only:        9.230      -1.135       2.176
   full:        9.804      -0.791       2.391      25.728

           -------------------------------------------------
          | TOTAL ENERGY              -22.539954140646 Eh   |
          | GRADIENT NORM               0.000635873078 Eh/α |
          | HOMO-LUMO GAP               3.035487169800 eV   |
           -------------------------------------------------

 * finished run on 2024/12/20 at 06:42:39.495
