   * xtb version 6.7.1 (edcfbbe) compiled by 'conda@3ef47c1a292c' on 2024-11-25

   ID    Z sym.   atoms
    1    6 C      1, 3, 4, 6-8, 10-19
    2    7 N      2, 5
    3    8 O      9
    4    1 H      20-34

          program call               : xtb C0371.xyz --opt --namespace C0371 --charge +1
          :  Hamiltonian                  GFN2-xTB          :
 * total energy  :   -51.4165432 Eh     change       -0.6626806E-09 Eh
 * total energy  :   -51.4247141 Eh     change       -0.8170859E-02 Eh
 * total energy  :   -51.4268668 Eh     change       -0.2152725E-02 Eh
 * total energy  :   -51.4272114 Eh     change       -0.3445917E-03 Eh
 * total energy  :   -51.4274599 Eh     change       -0.2485184E-03 Eh
 * total energy  :   -51.4276022 Eh     change       -0.1422436E-03 Eh
 * total energy  :   -51.4278305 Eh     change       -0.2283894E-03 Eh
 * total energy  :   -51.4281859 Eh     change       -0.3553197E-03 Eh
 * total energy  :   -51.4286100 Eh     change       -0.4241186E-03 Eh
 * total energy  :   -51.4290685 Eh     change       -0.4585263E-03 Eh
 * total energy  :   -51.4362959 Eh     change       -0.1390379E-04 Eh
 * total energy  :   -51.4363123 Eh     change       -0.1640308E-04 Eh
 * total energy  :   -51.4363299 Eh     change       -0.1759521E-04 Eh
 * total energy  :   -51.4363467 Eh     change       -0.1679577E-04 Eh
 * total energy  :   -51.4363620 Eh     change       -0.1534204E-04 Eh
 * total energy  :   -51.4363764 Eh     change       -0.1431366E-04 Eh
 * total energy  :   -51.4363902 Eh     change       -0.1385066E-04 Eh
 * total energy  :   -51.4364049 Eh     change       -0.1473048E-04 Eh
 * total energy  :   -51.4364079 Eh     change       -0.2931529E-05 Eh
   *** GEOMETRY OPTIMIZATION CONVERGED AFTER 68 ITERATIONS ***

 final structure:
================
34
 xtb: 6.7.1 (edcfbbe)
C            0.57252707476808       -1.42309609644160        2.02912210469637
N            0.38936336241788       -1.69411105806354        0.62931068097598
C           -0.02611109886590       -0.78827189086660       -0.30066578122276
C           -0.05809862199762       -1.42477472368550       -1.50184654537027
N            0.32339147698549       -2.71674254743335       -1.28631542530322
C            0.60473741773143       -2.85162763755032        0.01041334598873
C            0.65835949351200       -3.68685262959978       -2.28228930832768
C            2.20002424104049       -3.94069663521218       -2.20963424080858
O            2.75873020282724       -3.63224432382238       -1.18104667466834
C            2.80448755939202       -4.58428371918630       -3.36853488517016
C            2.37499202542625       -4.27143367197466       -4.64886532096337
C            2.96892223491370       -4.83895199898815       -5.77488593125318
C            3.98602543336861       -5.74557164724109       -5.63139729653741
C            4.45718092764139       -6.10543340164626       -4.35461955738681
C            3.88124942692271       -5.51489051573817       -3.19358500729962
C            4.37539866450387       -5.90850411525491       -1.93509284916536
C            5.39300885988112       -6.81928340249492       -1.83023020836008
C            5.96577603272782       -7.39160710396892       -2.97427702412746
C            5.50358494809981       -7.04206308436683       -4.21125097025492
H           -0.37249637752977       -1.11936216124921        2.48101771224674
H            1.29548998321783       -0.61750760778919        2.16107434935894
H            0.94038726475426       -2.31401816580580        2.53218418226585
H           -0.26284876476507        0.22578701743035       -0.05123300313489
H           -0.32695341824811       -1.05589320188457       -2.47031768825258
H            0.92658778897857       -3.75670515264727        0.48582411237716
H            0.17951078761816       -4.64730545075552       -2.06821944002805
H            0.33148573327869       -3.34185178263556       -3.26018598118198
H            1.60895087729891       -3.52789910346464       -4.80751329852301
H            2.62323143503381       -4.55239057494783       -6.75567054840597
H            4.44918358101423       -6.18980007770308       -6.49964384810461
H            3.95995945727240       -5.47774136227666       -1.03874465233454
H            5.76057646824549       -7.10217575268491       -0.85565419568156
H            6.76578349596408       -8.10784184500038       -2.86980431306129
H            5.92644202657937       -7.47986457505451       -5.10292249296476

          :  Hamiltonian                  GFN2-xTB          :
         :: total energy             -51.436407864913 Eh    ::
         :: gradient norm              0.000199166039 Eh/a0 ::
         :: HOMO-LUMO gap              2.192673788823 eV    ::
         :: SCC energy               -52.294403744935 Eh    ::
         :: -> dispersion             -0.034261373208 Eh    ::
         :: repulsion energy           0.857995880021 Eh    ::

    * Orbital Energies and Occupations

         #    Occupation            Energy/Eh            Energy/eV
      -------------------------------------------------------------
         1        2.0000           -0.8825441             -24.0152
       ...           ...                  ...                  ...
        35        2.0000           -0.5920834             -16.1114
        36        2.0000           -0.5778640             -15.7245
        37        2.0000           -0.5756062             -15.6630
        38        2.0000           -0.5733343             -15.6012
        39        2.0000           -0.5617066             -15.2848
        40        2.0000           -0.5584014             -15.1949
        41        2.0000           -0.5544477             -15.0873
        42        2.0000           -0.5383669             -14.6497
        43        2.0000           -0.5340287             -14.5317
        44        2.0000           -0.5187174             -14.1150
        45        2.0000           -0.5090058             -13.8508
        46        2.0000           -0.5058549             -13.7650
        47        2.0000           -0.4853381             -13.2067 (HOMO)
        48                         -0.4047588             -11.0140 (LUMO)
        49                         -0.3916452             -10.6572
        50                         -0.3599034              -9.7935
        51                         -0.3481382              -9.4733
        52                         -0.3337981              -9.0831
        53                         -0.2880483              -7.8382
        54                         -0.2475821              -6.7371
        55                         -0.1676551              -4.5621
        56                         -0.1621652              -4.4127
        57                         -0.1172302              -3.1900
        58                         -0.0814902              -2.2175
       ...                                ...                  ...
        91                          0.5927927              16.1307
      -------------------------------------------------------------
                  HL-Gap            0.0805793 Eh            2.1927 eV

     #   Z          covCN         q      C6AA      α(0)
     1   6 C        3.692    -0.085    22.311     6.759
     2   7 N        2.867     0.076    19.919     6.629
     3   6 C        3.069    -0.009    28.163     8.702
     4   6 C        3.065    -0.008    28.162     8.702
     5   7 N        2.871     0.072    19.990     6.640
     6   6 C        3.093     0.058    26.604     8.454
     7   6 C        3.744    -0.051    21.564     6.625
     8   6 C        2.819     0.228    23.212     7.894
     9   8 O        0.857    -0.360    20.906     6.130
    10   6 C        2.964    -0.024    28.607     8.773
    11   6 C        2.921    -0.024    28.615     8.772
    12   6 C        2.912    -0.026    28.654     8.778
    13   6 C        2.921    -0.015    28.375     8.735
    14   6 C        2.986     0.022    27.504     8.603
    15   6 C        2.983     0.026    27.422     8.590
    16   6 C        2.916    -0.034    28.849     8.808
    17   6 C        2.917    -0.017    28.442     8.746
    18   6 C        2.914    -0.020    28.495     8.753
    19   6 C        2.921    -0.027    28.672     8.781
    20   1 H        0.924     0.103     1.757     2.073
    21   1 H        0.924     0.107     1.726     2.055
    22   1 H        0.925     0.100     1.789     2.092
    23   1 H        0.926     0.107     1.722     2.052
    24   1 H        0.926     0.102     1.767     2.079
    25   1 H        0.926     0.122     1.597     1.976
    26   1 H        0.924     0.100     1.785     2.089
    27   1 H        0.925     0.098     1.799     2.098
    28   1 H        0.926     0.038     2.478     2.462
    29   1 H        0.926     0.058     2.221     2.330
    30   1 H        0.926     0.064     2.154     2.295
    31   1 H        0.926     0.055     2.255     2.348
    32   1 H        0.926     0.054     2.275     2.358
    33   1 H        0.926     0.057     2.238     2.340
    34   1 H        0.926     0.055     2.256     2.349

Wiberg/Mayer (AO) data.
largest (>0.10) Wiberg bond orders for each atom

     #   Z sym  total        # sym  WBO       # sym  WBO       # sym  WBO
 ---------------------------------------------------------------------------
     1   6 C    3.935 --     2 N    0.991    22 H    0.976    20 H    0.964
                            21 H    0.963
     2   7 N    3.715 --     6 C    1.358     3 C    1.220     1 C    0.991
     3   6 C    3.949 --     4 C    1.602     2 N    1.220    23 H    0.962
     4   6 C    3.947 --     3 C    1.602     5 N    1.211    24 H    0.962
     5   7 N    3.707 --     6 C    1.340     4 C    1.211     7 C    0.999
     6   6 C    3.943 --     2 N    1.358     5 N    1.340    25 H    0.952
     7   6 C    3.944 --     5 N    0.999    27 H    0.953    26 H    0.941
                             8 C    0.910
     8   6 C    3.929 --     9 O    1.794    10 C    1.085     7 C    0.910
     9   8 O    2.108 --     8 C    1.794
    10   6 C    3.979 --    11 C    1.436    15 C    1.207     8 C    1.085
    11   6 C    3.990 --    10 C    1.436    12 C    1.369    28 H    0.963
    12   6 C    3.990 --    13 C    1.512    11 C    1.369    29 H    0.967
    13   6 C    3.985 --    12 C    1.512    14 C    1.292    30 H    0.965
    14   6 C    3.989 --    13 C    1.292    19 C    1.275    15 C    1.244
    15   6 C    3.985 --    16 C    1.306    14 C    1.244    10 C    1.207
    16   6 C    3.990 --    17 C    1.538    15 C    1.306    31 H    0.962
                            19 C    0.116
    17   6 C    3.989 --    16 C    1.538    18 C    1.326    32 H    0.969
    18   6 C    3.990 --    19 C    1.555    17 C    1.326    33 H    0.968
    19   6 C    3.986 --    18 C    1.555    14 C    1.275    34 H    0.966
                            16 C    0.116
    20   1 H    0.988 --     1 C    0.964
    21   1 H    0.988 --     1 C    0.963
    22   1 H    0.990 --     1 C    0.976
    23   1 H    0.988 --     3 C    0.962
    24   1 H    0.989 --     4 C    0.962
    25   1 H    0.985 --     6 C    0.952
    26   1 H    0.989 --     7 C    0.941
    27   1 H    0.990 --     7 C    0.953
    28   1 H    0.998 --    11 C    0.963
    29   1 H    0.995 --    12 C    0.967
    30   1 H    0.995 --    13 C    0.965
    31   1 H    0.996 --    16 C    0.962
    32   1 H    0.997 --    17 C    0.969
    33   1 H    0.996 --    18 C    0.968
    34   1 H    0.996 --    19 C    0.966
 ---------------------------------------------------------------------------

molecular dipole:
                 x           y           z       tot (Debye)
 q only:        1.844      -5.756      -2.211
   full:        1.692      -5.764      -2.329      16.377

           -------------------------------------------------
          | TOTAL ENERGY              -51.436407864913 Eh   |
          | GRADIENT NORM               0.000199166039 Eh/α |
          | HOMO-LUMO GAP               2.192673788823 eV   |
           -------------------------------------------------

 * finished run on 2024/12/20 at 06:42:21.248
