   * xtb version 6.7.1 (edcfbbe) compiled by 'conda@3ef47c1a292c' on 2024-11-25

   ID    Z sym.   atoms
    1    6 C      1-10, 12, 14, 15, 17, 18, 20-29
    2    8 O      11, 19
    3    7 N      13, 16
    4    1 H      30-78

          program call               : xtb C0374.xyz --opt --namespace C0374 --charge +1
          :  Hamiltonian                  GFN2-xTB          :
 * total energy  :   -92.1441204 Eh     change       -0.3544187E-09 Eh
 * total energy  :   -92.1513597 Eh     change       -0.7239307E-02 Eh
 * total energy  :   -92.1531534 Eh     change       -0.1793708E-02 Eh
 * total energy  :   -92.1534733 Eh     change       -0.3198762E-03 Eh
 * total energy  :   -92.1536708 Eh     change       -0.1975524E-03 Eh
 * total energy  :   -92.1537338 Eh     change       -0.6294863E-04 Eh
 * total energy  :   -92.1538218 Eh     change       -0.8801187E-04 Eh
 * total energy  :   -92.1539210 Eh     change       -0.9923179E-04 Eh
 * total energy  :   -92.1540344 Eh     change       -0.1133313E-03 Eh
 * total energy  :   -92.1541384 Eh     change       -0.1040669E-03 Eh
 * total energy  :   -92.1567497 Eh     change       -0.1316370E-04 Eh
 * total energy  :   -92.1567583 Eh     change       -0.8640253E-05 Eh
 * total energy  :   -92.1567678 Eh     change       -0.9425760E-05 Eh
 * total energy  :   -92.1567679 Eh     change       -0.1368437E-06 Eh
 * total energy  :   -92.1567809 Eh     change       -0.1301338E-04 Eh
 * total energy  :   -92.1567939 Eh     change       -0.1299587E-04 Eh
 * total energy  :   -92.1568095 Eh     change       -0.1559457E-04 Eh
 * total energy  :   -92.1568158 Eh     change       -0.6297664E-05 Eh
 * total energy  :   -92.1568200 Eh     change       -0.4175839E-05 Eh
   *** GEOMETRY OPTIMIZATION CONVERGED AFTER 95 ITERATIONS ***

 final structure:
================
78
 xtb: 6.7.1 (edcfbbe)
C            1.40276254744135        0.20012464453667       -1.40946883788642
C            0.88971253631483        0.47641074015492       -0.00164970563202
C            1.47714102749606        1.74576496623746        0.61782105010491
C            1.17429316113784        3.03790340929160       -0.14472072236455
C           -0.31239151268524        3.34884181158097       -0.33117024705027
C           -1.11562773059253        3.46562020429364        0.96519105559208
C           -0.63152540148109        4.55031549732205        1.92928108458223
C           -0.64627253337119        5.97498093857023        1.36787197055563
C           -2.01762350539517        6.46737125929676        0.89068790942351
C           -3.10049123661105        6.55034114089338        1.97073432283079
O           -3.33150497642392        7.86364888887109        2.49741707730195
C           -2.28321607190159        8.49538269904686        3.10911657171936
N           -1.95324411819504        7.85907533173849        4.39759923262657
C           -2.87781525108408        7.36933676327119        5.27192424408871
C           -2.19561936813559        6.82418645792914        6.31610633421556
N           -0.86738930155093        6.99652325251393        6.06366962120168
C           -0.74449850923153        7.62198156719411        4.89671402817665
C            0.26052780796876        6.57956500653185        6.92022533814227
O            1.39489908823550        6.39472682046240        6.17840048068002
C            1.49700592640146        5.17062279841756        5.43617969876943
C            1.82054929071210        3.93438589916825        6.28138084923262
C            0.63336863359138        3.12566701280179        6.82190985082035
C           -0.41926574634567        2.72892580269312        5.78354572868523
C            0.13399276991485        2.00262164006093        4.55647121185559
C            0.81655168219874        0.66590003281815        4.84864070455430
C           -0.09386951011193       -0.40537583429835        5.45121280881198
C           -1.33079297319001       -0.74891537806026        4.61754937455705
C           -1.04175249393095       -1.18018419989868        3.17879904647115
C           -0.18448482221289       -2.43622923126530        3.08673666060183
H            1.06148201307863        0.95798769492279       -2.10982054631261
H            1.04198179893229       -0.76503030497293       -1.75655153277658
H            2.49028340506998        0.18277356906977       -1.42197172963514
H           -0.20015810953370        0.53787577062872       -0.01702269307716
H            1.15781954059303       -0.36656123098677        0.64002294385510
H            1.11332476766779        1.83485561033226        1.64418777568802
H            2.56323488045286        1.63478591227713        0.66952753413358
H            1.65827157161069        3.86633782653449        0.37899938296406
H            1.63232044905521        2.98031983664139       -1.13302039148031
H           -0.40089418327302        4.27623398662929       -0.90132750232399
H           -0.76629488340434        2.56248255425504       -0.93556893920769
H           -2.16254702298944        3.64647413347919        0.71266586046663
H           -1.07814074766182        2.51047310462582        1.49114648346465
H           -1.24930042746845        4.49933394955551        2.83186624323061
H            0.39232355616736        4.32268521687025        2.23122975594162
H           -0.24111373026272        6.64463608640914        2.13379140622471
H            0.03472064658713        6.02036115371750        0.51749693957864
H           -1.91390901142391        7.45287573875206        0.43097877585870
H           -2.36676145802774        5.79431017673707        0.10929501103087
H           -4.07334221486005        6.28998320074719        1.55290912087442
H           -2.88619083219773        5.85816368661258        2.79402000302917
H           -1.36165867843645        8.51614947578208        2.51227443370357
H           -2.61475915444231        9.52193959232621        3.30852517044874
H           -3.92922331919742        7.43913398619214        5.07688765618778
H           -2.55719149608821        6.33876904864022        7.19945083764054
H            0.19446273710589        7.89076315985336        4.45198511720088
H            0.46587677707050        7.39214584990201        7.62840907210177
H           -0.06669015169511        5.68784353722490        7.46838010520966
H            0.59103123608769        5.01936506375695        4.84005458171823
H            2.32889647664916        5.36843294327539        4.75794647101787
H            2.42740724621157        3.27264420917512        5.66359589794566
H            2.44546768297432        4.25347620657718        7.11758397002016
H            1.04278750408435        2.21785060350244        7.26619124579581
H            0.13469541383171        3.66313215096338        7.63337694613091
H           -1.15302763331089        2.08941748725543        6.27598707684785
H           -0.96098568720629        3.61897926483022        5.44270543806252
H           -0.69359492823729        1.83312377734574        3.86579344385305
H            0.85147486626462        2.65060830108119        4.04806708961312
H            1.23269373085077        0.29147032605524        3.91186929680979
H            1.65701506016471        0.82508486187443        5.52707522067725
H            0.50034938631295       -1.30910367774502        5.59268704443814
H           -0.42645377645524       -0.08751720785162        6.44207668268824
H           -1.85990330337985       -1.55971094938565        5.12326165887400
H           -2.00647521292591        0.10977758775392        4.59615428725449
H           -1.99795066644472       -1.37073665415494        2.68560536903692
H           -0.55456078749827       -0.36826496017304        2.63599226943557
H           -0.63723443537999       -3.24818203614092        3.65040081992641
H           -0.09143095974645       -2.75142321960238        2.05022646289954
H            0.81444265590982       -2.26134634330974        3.47740569025120

          :  Hamiltonian                  GFN2-xTB          :
         :: total energy             -92.156819966074 Eh    ::
         :: gradient norm              0.000509482681 Eh/a0 ::
         :: HOMO-LUMO gap              1.950285287860 eV    ::
         :: SCC energy               -93.409764686957 Eh    ::
         :: -> dispersion             -0.073512205705 Eh    ::
         :: repulsion energy           1.252944720883 Eh    ::

    * Orbital Energies and Occupations

         #    Occupation            Energy/Eh            Energy/eV
      -------------------------------------------------------------
         1        2.0000           -0.8982477             -24.4426
       ...           ...                  ...                  ...
        73        2.0000           -0.5225630             -14.2197
        74        2.0000           -0.5145138             -14.0006
        75        2.0000           -0.5119400             -13.9306
        76        2.0000           -0.5078792             -13.8201
        77        2.0000           -0.5068093             -13.7910
        78        2.0000           -0.5053408             -13.7510
        79        2.0000           -0.5027342             -13.6801
        80        2.0000           -0.4895385             -13.3210
        81        2.0000           -0.4870136             -13.2523
        82        2.0000           -0.4853663             -13.2075
        83        2.0000           -0.4834909             -13.1565
        84        2.0000           -0.4822921             -13.1238
        85        2.0000           -0.4811865             -13.0938 (HOMO)
        86                         -0.4095148             -11.1435 (LUMO)
        87                         -0.3726179             -10.1394
        88                         -0.2054889              -5.5916
        89                         -0.1515507              -4.1239
        90                         -0.1226188              -3.3366
        91                         -0.1141396              -3.1059
        92                         -0.0636893              -1.7331
        93                         -0.0532484              -1.4490
        94                         -0.0413994              -1.1265
        95                         -0.0357007              -0.9715
        96                         -0.0337795              -0.9192
       ...                                ...                  ...
       165                          0.4610058              12.5446
      -------------------------------------------------------------
                  HL-Gap            0.0716717 Eh            1.9503 eV

     #   Z          covCN         q      C6AA      α(0)
     1   6 C        3.751    -0.104    22.550     6.772
     2   6 C        3.799    -0.052    21.514     6.604
     3   6 C        3.800    -0.057    21.604     6.618
     4   6 C        3.800    -0.059    21.628     6.622
     5   6 C        3.800    -0.060    21.658     6.626
     6   6 C        3.800    -0.060    21.656     6.626
     7   6 C        3.799    -0.055    21.561     6.611
     8   6 C        3.799    -0.060    21.651     6.625
     9   6 C        3.799    -0.078    21.997     6.678
    10   6 C        3.688     0.062    19.729     6.358
    11   8 O        1.701    -0.284    18.715     5.841
    12   6 C        3.630     0.125    18.918     6.263
    13   7 N        2.869     0.033    20.663     6.751
    14   6 C        3.068     0.007    27.803     8.646
    15   6 C        3.066    -0.004    28.056     8.686
    16   7 N        2.869     0.032    20.676     6.753
    17   6 C        3.085     0.065    26.462     8.433
    18   6 C        3.631     0.124    18.934     6.264
    19   8 O        1.701    -0.291    18.841     5.860
    20   6 C        3.689     0.063    19.710     6.354
    21   6 C        3.798    -0.077    21.978     6.675
    22   6 C        3.799    -0.061    21.676     6.629
    23   6 C        3.799    -0.055    21.564     6.612
    24   6 C        3.800    -0.058    21.609     6.619
    25   6 C        3.800    -0.059    21.639     6.623
    26   6 C        3.800    -0.059    21.638     6.623
    27   6 C        3.800    -0.058    21.613     6.619
    28   6 C        3.799    -0.052    21.517     6.605
    29   6 C        3.752    -0.103    22.537     6.770
    30   1 H        0.925     0.035     2.514     2.479
    31   1 H        0.925     0.036     2.498     2.472
    32   1 H        0.925     0.036     2.498     2.472
    33   1 H        0.924     0.030     2.589     2.516
    34   1 H        0.924     0.031     2.576     2.510
    35   1 H        0.924     0.023     2.694     2.567
    36   1 H        0.924     0.031     2.574     2.509
    37   1 H        0.924     0.022     2.707     2.573
    38   1 H        0.924     0.040     2.446     2.446
    39   1 H        0.924     0.028     2.612     2.527
    40   1 H        0.924     0.043     2.410     2.428
    41   1 H        0.924     0.029     2.602     2.522
    42   1 H        0.924     0.042     2.429     2.437
    43   1 H        0.924     0.007     2.933     2.678
    44   1 H        0.924     0.038     2.471     2.458
    45   1 H        0.924     0.005     2.976     2.698
    46   1 H        0.924     0.055     2.260     2.351
    47   1 H        0.924     0.052     2.291     2.367
    48   1 H        0.925     0.067     2.123     2.278
    49   1 H        0.924     0.080     1.984     2.203
    50   1 H        0.924     0.032     2.558     2.501
    51   1 H        0.923     0.075     2.035     2.231
    52   1 H        0.924     0.102     1.770     2.080
    53   1 H        0.926     0.121     1.601     1.979
    54   1 H        0.926     0.108     1.712     2.046
    55   1 H        0.926     0.121     1.602     1.979
    56   1 H        0.924     0.099     1.790     2.092
    57   1 H        0.924     0.085     1.930     2.172
    58   1 H        0.924     0.034     2.530     2.488
    59   1 H        0.924     0.072     2.067     2.248
    60   1 H        0.925     0.062     2.174     2.306
    61   1 H        0.924     0.058     2.221     2.330
    62   1 H        0.924     0.056     2.252     2.347
    63   1 H        0.924     0.019     2.745     2.591
    64   1 H        0.924     0.045     2.384     2.415
    65   1 H        0.924     0.001     3.036     2.725
    66   1 H        0.924     0.037     2.487     2.466
    67   1 H        0.924     0.023     2.686     2.563
    68   1 H        0.924     0.040     2.447     2.446
    69   1 H        0.924     0.029     2.598     2.520
    70   1 H        0.924     0.040     2.447     2.446
    71   1 H        0.924     0.026     2.637     2.540
    72   1 H        0.924     0.034     2.525     2.485
    73   1 H        0.924     0.022     2.706     2.573
    74   1 H        0.924     0.029     2.605     2.524
    75   1 H        0.924     0.028     2.610     2.527
    76   1 H        0.925     0.037     2.482     2.464
    77   1 H        0.925     0.035     2.520     2.482
    78   1 H        0.925     0.035     2.519     2.482

Wiberg/Mayer (AO) data.
largest (>0.10) Wiberg bond orders for each atom

     #   Z sym  total        # sym  WBO       # sym  WBO       # sym  WBO
 ---------------------------------------------------------------------------
     1   6 C    3.996 --     2 C    1.020    32 H    0.987    31 H    0.987
                            30 H    0.986
     2   6 C    3.998 --     1 C    1.020     3 C    1.008    34 H    0.977
                            33 H    0.976
     3   6 C    3.998 --     2 C    1.008     4 C    1.007    36 H    0.977
                            35 H    0.974
     4   6 C    3.997 --     5 C    1.008     3 C    1.007    37 H    0.975
                            38 H    0.975
     5   6 C    3.996 --     6 C    1.008     4 C    1.008    39 H    0.975
                            40 H    0.974
     6   6 C    3.996 --     5 C    1.008     7 C    1.007    41 H    0.975
                            42 H    0.972
     7   6 C    3.997 --     6 C    1.007     8 C    1.007    43 H    0.972
                            44 H    0.972
     8   6 C    3.995 --     9 C    1.007     7 C    1.007    45 H    0.973
                            46 H    0.972
     9   6 C    3.991 --     8 C    1.007    10 C    1.001    47 H    0.971
                            48 H    0.969
    10   6 C    3.925 --     9 C    1.001    49 H    0.969    50 H    0.966
                            11 O    0.941
    11   8 O    2.131 --    12 C    1.058    10 C    0.941
    12   6 C    3.931 --    11 O    1.058    51 H    0.948    52 H    0.944
                            13 N    0.919
    13   7 N    3.699 --    17 C    1.365    14 C    1.226    12 C    0.919
    14   6 C    3.946 --    15 C    1.597    13 N    1.226    53 H    0.958
    15   6 C    3.946 --    14 C    1.597    16 N    1.223    54 H    0.961
    16   7 N    3.699 --    17 C    1.369    15 C    1.223    18 C    0.917
    17   6 C    3.945 --    16 N    1.369    13 N    1.365    55 H    0.951
    18   6 C    3.928 --    19 O    1.060    56 H    0.944    57 H    0.943
                            16 N    0.917
    19   8 O    2.126 --    18 C    1.060    20 C    0.938
    20   6 C    3.924 --    21 C    1.000    59 H    0.970    58 H    0.966
                            19 O    0.938
    21   6 C    3.990 --    22 C    1.006    20 C    1.000    61 H    0.973
                            60 H    0.971
    22   6 C    3.995 --    23 C    1.007    21 C    1.006    62 H    0.972
                            63 H    0.970
    23   6 C    3.996 --    22 C    1.007    24 C    1.007    65 H    0.974
                            64 H    0.973
    24   6 C    3.997 --    25 C    1.008    23 C    1.007    67 H    0.973
                            66 H    0.972
    25   6 C    3.997 --    26 C    1.008    24 C    1.008    69 H    0.975
                            68 H    0.973
    26   6 C    3.997 --    25 C    1.008    27 C    1.007    71 H    0.976
                            70 H    0.975
    27   6 C    3.997 --    28 C    1.008    26 C    1.007    72 H    0.977
                            73 H    0.976
    28   6 C    3.998 --    29 C    1.020    27 C    1.008    74 H    0.978
                            75 H    0.974
    29   6 C    3.997 --    28 C    1.020    76 H    0.987    77 H    0.987
                            78 H    0.986
    30   1 H    0.999 --     1 C    0.986
    31   1 H    0.999 --     1 C    0.987
    32   1 H    0.999 --     1 C    0.987
    33   1 H    0.999 --     2 C    0.976
    34   1 H    0.999 --     2 C    0.977
    35   1 H    0.999 --     3 C    0.974
    36   1 H    0.999 --     3 C    0.977
    37   1 H    1.000 --     4 C    0.975
    38   1 H    0.998 --     4 C    0.975
    39   1 H    0.999 --     5 C    0.975
    40   1 H    0.998 --     5 C    0.974
    41   1 H    0.999 --     6 C    0.975
    42   1 H    0.998 --     6 C    0.972
    43   1 H    1.000 --     7 C    0.972
    44   1 H    0.999 --     7 C    0.972
    45   1 H    1.000 --     8 C    0.973
    46   1 H    0.997 --     8 C    0.972
    47   1 H    0.997 --     9 C    0.971
    48   1 H    0.995 --     9 C    0.969
    49   1 H    0.994 --    10 C    0.969
    50   1 H    0.999 --    10 C    0.966
    51   1 H    0.994 --    12 C    0.948
    52   1 H    0.989 --    12 C    0.944
    53   1 H    0.985 --    14 C    0.958
    54   1 H    0.988 --    15 C    0.961
    55   1 H    0.985 --    17 C    0.951
    56   1 H    0.990 --    18 C    0.944
    57   1 H    0.992 --    18 C    0.943
    58   1 H    0.999 --    20 C    0.966
    59   1 H    0.995 --    20 C    0.970
    60   1 H    0.996 --    21 C    0.971
    61   1 H    0.997 --    21 C    0.973
    62   1 H    0.997 --    22 C    0.972
    63   1 H    1.000 --    22 C    0.970
    64   1 H    0.998 --    23 C    0.973
    65   1 H    1.000 --    23 C    0.974
    66   1 H    0.999 --    24 C    0.972
    67   1 H    0.999 --    24 C    0.973
    68   1 H    0.998 --    25 C    0.973
    69   1 H    0.999 --    25 C    0.975
    70   1 H    0.998 --    26 C    0.975
    71   1 H    0.999 --    26 C    0.976
    72   1 H    0.999 --    27 C    0.977
    73   1 H    1.000 --    27 C    0.976
    74   1 H    0.999 --    28 C    0.978
    75   1 H    0.999 --    28 C    0.974
    76   1 H    0.999 --    29 C    0.987
    77   1 H    0.999 --    29 C    0.987
    78   1 H    0.999 --    29 C    0.986
 ---------------------------------------------------------------------------

molecular dipole:
                 x           y           z       tot (Debye)
 q only:       -2.106      12.111       9.025
   full:       -2.075      12.202       9.168      39.151

           -------------------------------------------------
          | TOTAL ENERGY              -92.156819966074 Eh   |
          | GRADIENT NORM               0.000509482681 Eh/α |
          | HOMO-LUMO GAP               1.950285287860 eV   |
           -------------------------------------------------

 * finished run on 2024/12/20 at 06:42:35.009
