   * xtb version 6.7.1 (edcfbbe) compiled by 'conda@3ef47c1a292c' on 2024-11-25

   ID    Z sym.   atoms
    1    6 C      1-16, 18-24, 26, 27
    2    7 N      17
    3    8 O      25
    4    1 H      28-73

          program call               : xtb C0372.xyz --opt --namespace C0372 --charge +1
          :  Hamiltonian                  GFN2-xTB          :
 * total energy  :   -83.5952567 Eh     change       -0.1268475E-08 Eh
 * total energy  :   -83.6036314 Eh     change       -0.8374727E-02 Eh
 * total energy  :   -83.6062604 Eh     change       -0.2628964E-02 Eh
 * total energy  :   -83.6065938 Eh     change       -0.3334099E-03 Eh
 * total energy  :   -83.6067956 Eh     change       -0.2018144E-03 Eh
 * total energy  :   -83.6068762 Eh     change       -0.8055274E-04 Eh
 * total energy  :   -83.6069925 Eh     change       -0.1163179E-03 Eh
 * total energy  :   -83.6071071 Eh     change       -0.1146236E-03 Eh
 * total energy  :   -83.6072069 Eh     change       -0.9974250E-04 Eh
 * total energy  :   -83.6072751 Eh     change       -0.6822722E-04 Eh
 * total energy  :   -83.6191521 Eh     change       -0.3015552E-04 Eh
 * total energy  :   -83.6191641 Eh     change       -0.1204366E-04 Eh
 * total energy  :   -83.6191729 Eh     change       -0.8774064E-05 Eh
 * total energy  :   -83.6191841 Eh     change       -0.1113342E-04 Eh
 * total energy  :   -83.6191951 Eh     change       -0.1108187E-04 Eh
 * total energy  :   -83.6192059 Eh     change       -0.1071677E-04 Eh
 * total energy  :   -83.6192147 Eh     change       -0.8807439E-05 Eh
 * total energy  :   -83.6192250 Eh     change       -0.1032735E-04 Eh
 * total energy  :   -83.6192298 Eh     change       -0.4825669E-05 Eh
   *** GEOMETRY OPTIMIZATION CONVERGED AFTER 68 ITERATIONS ***

 final structure:
================
73
 xtb: 6.7.1 (edcfbbe)
C            1.28360800908948       -0.49511287304238        0.80864172537733
C            1.28535041874116        0.87831483485575        1.46925835377662
C            1.64121368156995        2.01198829384246        0.50611582137289
C            0.68226814597363        2.18231666171298       -0.67406909216858
C           -0.77543707715180        2.44478795167195       -0.29143463164540
C           -1.00364702713988        3.68833867986535        0.56979755460100
C           -0.54997324385494        5.00559263842757       -0.06267246921239
C           -1.21186845348876        5.34396277028996       -1.40014253515389
C           -2.73999679159156        5.40904451937929       -1.36691431698246
C           -3.32194865293322        6.42298730280390       -0.38039910521865
C           -2.93610664090128        7.87931739779057       -0.64738323792118
C           -3.35192829118464        8.41859854353180       -2.01825918581097
C           -4.84026689667149        8.27881981091674       -2.34703772391605
C           -5.78881242654945        8.95364406779617       -1.35275254095955
C           -5.70792652981826       10.48490155919911       -1.35223111647340
C           -6.28997223511554       11.14609446835252       -2.60737700428641
N           -7.68058458742027       11.68356931427836       -2.49669399383522
C           -7.74269503221398       12.86866410494137       -1.57574926575998
C           -6.99449301751095       14.08179031776585       -2.05472154433431
C           -5.65594575309171       14.28452480931612       -1.73662087275738
C           -4.99322642494661       15.42785685625848       -2.14195927189464
C           -5.67378334992396       16.39835190416058       -2.85883451928500
C           -7.01045621309650       16.22690451243384       -3.16460388181808
C           -7.67780274729934       15.07471336920742       -2.76835741715732
O           -8.99420858452033       14.87102532954401       -3.05251504359766
C           -8.11493533409380       12.08860522399857       -3.84669573603549
C           -8.61283930279533       10.65851383540530       -1.99956450298485
H            0.48656535396301       -0.57670473666687        0.07404730967103
H            1.13472626034743       -1.27202011771753        1.55514208924830
H            2.23266790316320       -0.67814202088593        0.30940412396067
H            0.30943791258722        1.06603900632129        1.92058981606961
H            2.02104939496369        0.87904369247248        2.27743744906512
H            1.69110786042841        2.94609112133854        1.06981518747882
H            2.64016595683592        1.82461742066455        0.10369783668701
H            1.04684240288264        3.00494673668203       -1.29332580339849
H            0.71437618346691        1.28257309443890       -1.29154630834049
H           -1.35982077903648        2.52897098056196       -1.21064131448882
H           -1.16312913378921        1.58089508644892        0.25202012899568
H           -2.06841749954462        3.74903805692876        0.80712842475544
H           -0.47477211216505        3.56825618610326        1.51719435359050
H           -0.74192107460055        5.81112400021823        0.65021630558179
H            0.52973659090138        4.97332707005714       -0.21944998077983
H           -0.81472018574197        6.30123634808139       -1.74631923818848
H           -0.92313558256253        4.59528257361658       -2.14012393102445
H           -3.09512872254315        5.63553297639121       -2.37509437195836
H           -3.13159457335976        4.42402925106500       -1.10714511093790
H           -4.41043241205981        6.32599571491938       -0.38974837682440
H           -2.99149699798359        6.16732318553570        0.62738820902019
H           -3.37231260625208        8.50110201420658        0.13882701637818
H           -1.85336861548113        7.98154607237256       -0.56307336668896
H           -3.05545927628045        9.46903077913571       -2.07986256849524
H           -2.79238186904438        7.88976706295797       -2.79078896516368
H           -5.00577314450232        8.67629825269085       -3.35234865879032
H           -5.09146704200952        7.21862467502999       -2.38124008220775
H           -6.80680089386681        8.62573990211591       -1.56882591513065
H           -5.54728412122682        8.60169230647330       -0.35044146090954
H           -6.18585314138676       10.86844601519989       -0.45037184767376
H           -4.65585645804122       10.76211396139840       -1.28407800205520
H           -5.66346332983308       11.98576127901544       -2.91318244298956
H           -6.28986939218055       10.41502186633119       -3.41810330537690
H           -8.79551891092381       13.13729986892595       -1.46760758720978
H           -7.35495856015454       12.56061185888667       -0.60440347331294
H           -5.13401556642821       13.54706782020519       -1.14489429989306
H           -3.95540647840843       15.56856303127982       -1.88806532416581
H           -5.16705372041193       17.29746839096119       -3.17053286836790
H           -7.54790636838298       16.99157702907137       -3.70693815234662
H           -9.37060745488463       15.66491365020995       -3.45223834688566
H           -8.18488163882232       11.21742607237604       -4.49513956294206
H           -9.08665530827595       12.57548141938548       -3.79272395619170
H           -7.40154791123850       12.79069275131673       -4.27365733790001
H           -8.57038437610279        9.77827626279275       -2.63842990935682
H           -8.36177628069389       10.37126744555694       -0.98154486732833
H           -9.62986992325223       11.04710838096119       -2.01065595918364

          :  Hamiltonian                  GFN2-xTB          :
         :: total energy             -83.619229811845 Eh    ::
         :: gradient norm              0.000348992383 Eh/a0 ::
         :: HOMO-LUMO gap              2.612823083729 eV    ::
         :: SCC energy               -84.861393671599 Eh    ::
         :: -> dispersion             -0.066321310311 Eh    ::
         :: repulsion energy           1.242163859754 Eh    ::

    * Orbital Energies and Occupations

         #    Occupation            Energy/Eh            Energy/eV
      -------------------------------------------------------------
         1        2.0000           -0.8484362             -23.0871
       ...           ...                  ...                  ...
        66        2.0000           -0.5085472             -13.8383
        67        2.0000           -0.5043410             -13.7238
        68        2.0000           -0.5011532             -13.6371
        69        2.0000           -0.4943959             -13.4532
        70        2.0000           -0.4889833             -13.3059
        71        2.0000           -0.4852019             -13.2030
        72        2.0000           -0.4810776             -13.0908
        73        2.0000           -0.4714897             -12.8299
        74        2.0000           -0.4700613             -12.7910
        75        2.0000           -0.4675405             -12.7224
        76        2.0000           -0.4574243             -12.4471
        77        2.0000           -0.4522032             -12.3051
        78        2.0000           -0.4510122             -12.2727 (HOMO)
        79                         -0.3549927              -9.6598 (LUMO)
        80                         -0.3382080              -9.2031
        81                         -0.2294306              -6.2431
        82                         -0.2003630              -5.4522
        83                         -0.1447086              -3.9377
        84                         -0.1318388              -3.5875
        85                         -0.1270200              -3.4564
        86                         -0.0621729              -1.6918
        87                         -0.0561351              -1.5275
        88                         -0.0463308              -1.2607
        89                         -0.0338997              -0.9225
       ...                                ...                  ...
       154                          0.5371188              14.6157
      -------------------------------------------------------------
                  HL-Gap            0.0960195 Eh            2.6128 eV

     #   Z          covCN         q      C6AA      α(0)
     1   6 C        3.751    -0.102    22.501     6.765
     2   6 C        3.799    -0.052    21.506     6.603
     3   6 C        3.800    -0.057    21.599     6.617
     4   6 C        3.800    -0.057    21.596     6.617
     5   6 C        3.800    -0.056    21.585     6.615
     6   6 C        3.800    -0.057    21.592     6.616
     7   6 C        3.800    -0.057    21.595     6.616
     8   6 C        3.800    -0.057    21.598     6.617
     9   6 C        3.800    -0.057    21.608     6.618
    10   6 C        3.800    -0.059    21.629     6.622
    11   6 C        3.800    -0.059    21.640     6.623
    12   6 C        3.800    -0.060    21.662     6.627
    13   6 C        3.800    -0.063    21.705     6.633
    14   6 C        3.800    -0.070    21.838     6.654
    15   6 C        3.799    -0.070    21.846     6.655
    16   6 C        3.759    -0.041    21.348     6.587
    17   7 N        3.621     0.130    19.026     6.478
    18   6 C        3.766    -0.038    21.292     6.577
    19   6 C        2.966    -0.029    28.711     8.789
    20   6 C        2.923    -0.040    28.998     8.831
    21   6 C        2.917    -0.035    28.869     8.811
    22   6 C        2.921    -0.020    28.502     8.755
    23   6 C        2.917    -0.063    29.571     8.917
    24   6 C        2.849     0.139    24.974     8.190
    25   8 O        1.659    -0.400    20.848     6.164
    26   6 C        3.727    -0.093    22.379     6.754
    27   6 C        3.722    -0.091    22.361     6.753
    28   1 H        0.925     0.034     2.533     2.489
    29   1 H        0.925     0.032     2.562     2.503
    30   1 H        0.925     0.034     2.529     2.487
    31   1 H        0.924     0.030     2.591     2.517
    32   1 H        0.924     0.027     2.628     2.535
    33   1 H        0.924     0.028     2.620     2.531
    34   1 H        0.924     0.029     2.602     2.523
    35   1 H        0.924     0.027     2.628     2.535
    36   1 H        0.924     0.032     2.558     2.501
    37   1 H        0.924     0.026     2.647     2.544
    38   1 H        0.924     0.032     2.559     2.502
    39   1 H        0.924     0.025     2.657     2.549
    40   1 H        0.924     0.033     2.548     2.496
    41   1 H        0.924     0.025     2.661     2.551
    42   1 H        0.924     0.034     2.535     2.490
    43   1 H        0.924     0.025     2.661     2.551
    44   1 H        0.924     0.034     2.527     2.486
    45   1 H        0.924     0.024     2.671     2.556
    46   1 H        0.924     0.036     2.509     2.477
    47   1 H        0.924     0.023     2.687     2.563
    48   1 H        0.924     0.039     2.466     2.456
    49   1 H        0.924     0.022     2.696     2.568
    50   1 H        0.924     0.041     2.429     2.437
    51   1 H        0.924     0.022     2.699     2.569
    52   1 H        0.924     0.044     2.390     2.418
    53   1 H        0.924     0.021     2.718     2.578
    54   1 H        0.925     0.050     2.314     2.379
    55   1 H        0.924     0.031     2.578     2.511
    56   1 H        0.925     0.060     2.202     2.321
    57   1 H        0.924     0.045     2.379     2.412
    58   1 H        0.925     0.072     2.060     2.244
    59   1 H        0.924     0.082     1.957     2.188
    60   1 H        0.924     0.086     1.914     2.163
    61   1 H        0.924     0.098     1.801     2.099
    62   1 H        0.924     0.083     1.948     2.182
    63   1 H        0.926     0.048     2.340     2.392
    64   1 H        0.926     0.061     2.190     2.314
    65   1 H        0.926     0.065     2.141     2.288
    66   1 H        0.926     0.053     2.277     2.360
    67   1 H        0.805     0.317     0.673     1.288
    68   1 H        0.925     0.089     1.890     2.150
    69   1 H        0.925     0.110     1.699     2.038
    70   1 H        0.925     0.094     1.837     2.120
    71   1 H        0.925     0.095     1.830     2.116
    72   1 H        0.925     0.100     1.788     2.091
    73   1 H        0.925     0.094     1.841     2.122

Wiberg/Mayer (AO) data.
largest (>0.10) Wiberg bond orders for each atom

     #   Z sym  total        # sym  WBO       # sym  WBO       # sym  WBO
 ---------------------------------------------------------------------------
     1   6 C    3.997 --     2 C    1.020    30 H    0.988    29 H    0.987
                            28 H    0.986
     2   6 C    3.998 --     1 C    1.020     3 C    1.008    32 H    0.978
                            31 H    0.976
     3   6 C    3.998 --     2 C    1.008     4 C    1.008    34 H    0.977
                            33 H    0.976
     4   6 C    3.998 --     5 C    1.008     3 C    1.008    36 H    0.975
                            35 H    0.975
     5   6 C    3.998 --     4 C    1.008     6 C    1.008    37 H    0.975
                            38 H    0.975
     6   6 C    3.998 --     5 C    1.008     7 C    1.008    39 H    0.975
                            40 H    0.975
     7   6 C    3.997 --     6 C    1.008     8 C    1.008    41 H    0.975
                            42 H    0.975
     8   6 C    3.997 --     9 C    1.008     7 C    1.008    43 H    0.976
                            44 H    0.975
     9   6 C    3.997 --    10 C    1.008     8 C    1.008    45 H    0.975
                            46 H    0.974
    10   6 C    3.997 --     9 C    1.008    11 C    1.008    47 H    0.975
                            48 H    0.974
    11   6 C    3.997 --    10 C    1.008    12 C    1.007    49 H    0.975
                            50 H    0.974
    12   6 C    3.996 --    13 C    1.007    11 C    1.007    51 H    0.974
                            52 H    0.974
    13   6 C    3.995 --    14 C    1.007    12 C    1.007    53 H    0.973
                            54 H    0.972
    14   6 C    3.992 --    13 C    1.007    15 C    1.005    55 H    0.975
                            56 H    0.970
    15   6 C    3.985 --    14 C    1.005    16 C    1.004    58 H    0.965
                            57 H    0.965
    16   6 C    3.928 --    15 C    1.004    59 H    0.965    60 H    0.961
                            17 N    0.926
    17   7 N    3.809 --    27 C    0.963    26 C    0.959    16 C    0.926
                            18 C    0.913
    18   6 C    3.931 --    19 C    1.010    61 H    0.960    62 H    0.960
                            17 N    0.913
    19   6 C    3.974 --    20 C    1.411    24 C    1.338    18 C    1.010
                            22 C    0.104
    20   6 C    3.990 --    21 C    1.446    19 C    1.411    63 H    0.966
                            23 C    0.106
    21   6 C    3.990 --    20 C    1.446    22 C    1.426    64 H    0.968
    22   6 C    3.988 --    23 C    1.452    21 C    1.426    65 H    0.968
                            19 C    0.104
    23   6 C    3.988 --    22 C    1.452    24 C    1.377    66 H    0.964
                            20 C    0.106
    24   6 C    3.940 --    23 C    1.377    19 C    1.338    25 O    1.073
    25   8 O    2.120 --    24 C    1.073    67 H    0.877
    26   6 C    3.928 --    68 H    0.976    70 H    0.974    69 H    0.970
                            17 N    0.959
    27   6 C    3.932 --    73 H    0.975    71 H    0.973    72 H    0.972
                            17 N    0.963
    28   1 H    0.999 --     1 C    0.986
    29   1 H    0.999 --     1 C    0.987
    30   1 H    0.999 --     1 C    0.988
    31   1 H    0.999 --     2 C    0.976
    32   1 H    0.999 --     2 C    0.978
    33   1 H    0.999 --     3 C    0.976
    34   1 H    0.999 --     3 C    0.977
    35   1 H    0.999 --     4 C    0.975
    36   1 H    0.999 --     4 C    0.975
    37   1 H    0.999 --     5 C    0.975
    38   1 H    0.999 --     5 C    0.975
    39   1 H    0.999 --     6 C    0.975
    40   1 H    0.999 --     6 C    0.975
    41   1 H    0.999 --     7 C    0.975
    42   1 H    0.999 --     7 C    0.975
    43   1 H    0.999 --     8 C    0.976
    44   1 H    0.999 --     8 C    0.975
    45   1 H    0.999 --     9 C    0.975
    46   1 H    0.999 --     9 C    0.974
    47   1 H    0.999 --    10 C    0.975
    48   1 H    0.998 --    10 C    0.974
    49   1 H    0.999 --    11 C    0.975
    50   1 H    0.998 --    11 C    0.974
    51   1 H    0.999 --    12 C    0.974
    52   1 H    0.998 --    12 C    0.974
    53   1 H    1.000 --    13 C    0.973
    54   1 H    0.997 --    13 C    0.972
    55   1 H    0.999 --    14 C    0.975
    56   1 H    0.996 --    14 C    0.970
    57   1 H    0.998 --    15 C    0.965
    58   1 H    0.994 --    15 C    0.965
    59   1 H    0.993 --    16 C    0.965
    60   1 H    0.992 --    16 C    0.961
    61   1 H    0.990 --    18 C    0.960
    62   1 H    0.993 --    18 C    0.960
    63   1 H    0.998 --    20 C    0.966
    64   1 H    0.996 --    21 C    0.968
    65   1 H    0.995 --    22 C    0.968
    66   1 H    0.997 --    23 C    0.964
    67   1 H    0.900 --    25 O    0.877
    68   1 H    0.992 --    26 C    0.976
    69   1 H    0.988 --    26 C    0.970
    70   1 H    0.991 --    26 C    0.974
    71   1 H    0.990 --    27 C    0.973
    72   1 H    0.990 --    27 C    0.972
    73   1 H    0.991 --    27 C    0.975
 ---------------------------------------------------------------------------

molecular dipole:
                 x           y           z       tot (Debye)
 q only:      -13.714      22.645      -4.777
   full:      -13.848      22.911      -4.873      69.164

           -------------------------------------------------
          | TOTAL ENERGY              -83.619229811845 Eh   |
          | GRADIENT NORM               0.000348992383 Eh/α |
          | HOMO-LUMO GAP               2.612823083729 eV   |
           -------------------------------------------------

 * finished run on 2024/12/20 at 06:42:26.723
