   * xtb version 6.7.1 (edcfbbe) compiled by 'conda@3ef47c1a292c' on 2024-11-25

   ID    Z sym.   atoms
    1    6 C      1-7, 9-11
    2    7 N      8
    3    1 H      12-35

          program call               : xtb C0373.xyz --opt --namespace C0373 --charge +1
          :  Hamiltonian                  GFN2-xTB          :
 * total energy  :   -36.1733978 Eh     change       -0.5390888E-10 Eh
 * total energy  :   -36.1790271 Eh     change       -0.5629359E-02 Eh
 * total energy  :   -36.1803323 Eh     change       -0.1305191E-02 Eh
 * total energy  :   -36.1804047 Eh     change       -0.7236523E-04 Eh
 * total energy  :   -36.1804831 Eh     change       -0.7835849E-04 Eh
 * total energy  :   -36.1805140 Eh     change       -0.3092861E-04 Eh
 * total energy  :   -36.1805606 Eh     change       -0.4659000E-04 Eh
 * total energy  :   -36.1805878 Eh     change       -0.2718933E-04 Eh
 * total energy  :   -36.1806207 Eh     change       -0.3292910E-04 Eh
 * total energy  :   -36.1806548 Eh     change       -0.3411765E-04 Eh
 * total energy  :   -36.1806856 Eh     change       -0.1336998E-04 Eh
 * total energy  :   -36.1807001 Eh     change       -0.1451084E-04 Eh
 * total energy  :   -36.1807143 Eh     change       -0.1420005E-04 Eh
 * total energy  :   -36.1807241 Eh     change       -0.9822527E-05 Eh
 * total energy  :   -36.1807316 Eh     change       -0.7470569E-05 Eh
 * total energy  :   -36.1807401 Eh     change       -0.8526657E-05 Eh
 * total energy  :   -36.1807491 Eh     change       -0.8955553E-05 Eh
 * total energy  :   -36.1807548 Eh     change       -0.5778039E-05 Eh
 * total energy  :   -36.1807589 Eh     change       -0.4087661E-05 Eh
   *** GEOMETRY OPTIMIZATION CONVERGED AFTER 20 ITERATIONS ***

 final structure:
================
35
 xtb: 6.7.1 (edcfbbe)
C            1.12346914190725        0.62537820230714        0.21549106747741
C            0.82039381574040        1.00840211454399       -1.22789748597976
C            1.22662356905155       -0.06859065346250       -2.23585712494181
C            0.49323011710811       -1.40405245531684       -2.08193410083747
C           -1.02849283083669       -1.32309091931680       -2.22222213346799
C           -1.53162056177520       -0.72333293041405       -3.53992238276729
C           -0.99988297190880       -1.30935109975835       -4.85115292283137
N           -1.54849605637703       -2.62076370769777       -5.33166209659634
C           -3.02180394845249       -2.62325652759409       -5.31129530542477
C           -1.09446984515145       -2.80977573597714       -6.72469742176516
C           -1.04764351363140       -3.74975492938981       -4.52867347952194
H            0.50996684373955       -0.20967373747691        0.54443150784438
H            0.92373663112083        1.46671150042517        0.87361286717958
H            2.16977304645764        0.34993797270142        0.32401595691370
H           -0.24156377523430        1.24161663769532       -1.32851125370860
H            1.37329566733290        1.91748447027872       -1.47232671896177
H            1.08202623263828        0.32342158713200       -3.24598036976609
H            2.29471442540224       -0.26236676866526       -2.11781277660693
H            0.90465320130296       -2.11154179348686       -2.80706390143148
H            0.71311558116565       -1.81100895335431       -1.09492874013441
H           -1.45381179913930       -2.31408217649122       -2.04925285876955
H           -1.41434542269433       -0.68870560450695       -1.42369509723906
H           -2.62162755352448       -0.71363659756459       -3.53503873653902
H           -1.21874256317378        0.32243060895164       -3.55655201798007
H           -1.21583638755822       -0.58408521580032       -5.63909127582481
H            0.08336981923087       -1.41670909992106       -4.78038198530964
H           -3.40657924476770       -1.74920629076742       -5.83426155192437
H           -3.39769642221879       -3.51853583991677       -5.80412238067388
H           -3.38969137445113       -2.61607253423680       -4.28789398455266
H           -0.00784923351405       -2.76535185488306       -6.77715681212573
H           -1.42021950905874       -3.77937866129484       -7.09773736254955
H           -1.50683567764643       -2.03526934184299       -7.36904730267675
H            0.04004153848808       -3.77572444561756       -4.55154113235244
H           -1.37367016529924       -3.65750450094774       -3.49663328126637
H           -1.42617077427445       -4.68859071833086       -4.93013740488993

          :  Hamiltonian                  GFN2-xTB          :
         :: total energy             -36.180758928852 Eh    ::
         :: gradient norm              0.000342863220 Eh/a0 ::
         :: HOMO-LUMO gap              7.623601341583 eV    ::
         :: SCC energy               -36.703369746348 Eh    ::
         :: -> dispersion             -0.025116835882 Eh    ::
         :: repulsion energy           0.522610817496 Eh    ::

    * Orbital Energies and Occupations

         #    Occupation            Energy/Eh            Energy/eV
      -------------------------------------------------------------
         1        2.0000           -0.8691671             -23.6512
       ...           ...                  ...                  ...
        22        2.0000           -0.6369403             -17.3320
        23        2.0000           -0.6230377             -16.9537
        24        2.0000           -0.6149878             -16.7347
        25        2.0000           -0.5979083             -16.2699
        26        2.0000           -0.5935750             -16.1520
        27        2.0000           -0.5786134             -15.7449
        28        2.0000           -0.5731643             -15.5966
        29        2.0000           -0.5565742             -15.1452
        30        2.0000           -0.5494618             -14.9516
        31        2.0000           -0.5434125             -14.7870
        32        2.0000           -0.5224554             -14.2167
        33        2.0000           -0.5163319             -14.0501
        34        2.0000           -0.5109965             -13.9049 (HOMO)
        35                         -0.2308343              -6.2813 (LUMO)
        36                         -0.1622472              -4.4150
        37                         -0.1526253              -4.1531
        38                         -0.1442382              -3.9249
        39                         -0.0802712              -2.1843
        40                         -0.0660027              -1.7960
        41                         -0.0390260              -1.0620
        42                         -0.0273948              -0.7455
        43                         -0.0139961              -0.3809
        44                         -0.0079696              -0.2169
        45                         -0.0014799              -0.0403
       ...                                ...                  ...
        68                          0.2156060               5.8669
      -------------------------------------------------------------
                  HL-Gap            0.2801622 Eh            7.6236 eV

     #   Z          covCN         q      C6AA      α(0)
     1   6 C        3.752    -0.107    22.614     6.782
     2   6 C        3.799    -0.056    21.582     6.615
     3   6 C        3.800    -0.063    21.705     6.633
     4   6 C        3.800    -0.065    21.743     6.639
     5   6 C        3.799    -0.067    21.788     6.646
     6   6 C        3.799    -0.075    21.940     6.669
     7   6 C        3.758    -0.043    21.394     6.594
     8   7 N        3.621     0.145    18.789     6.438
     9   6 C        3.721    -0.096    22.452     6.767
    10   6 C        3.732    -0.098    22.472     6.766
    11   6 C        3.722    -0.096    22.451     6.767
    12   1 H        0.925     0.035     2.523     2.484
    13   1 H        0.925     0.044     2.402     2.424
    14   1 H        0.925     0.041     2.429     2.437
    15   1 H        0.924     0.029     2.605     2.524
    16   1 H        0.924     0.039     2.460     2.453
    17   1 H        0.924     0.022     2.710     2.574
    18   1 H        0.924     0.044     2.399     2.422
    19   1 H        0.924     0.019     2.756     2.596
    20   1 H        0.925     0.055     2.263     2.353
    21   1 H        0.924     0.027     2.625     2.534
    22   1 H        0.924     0.064     2.151     2.293
    23   1 H        0.925     0.054     2.270     2.356
    24   1 H        0.924     0.080     1.975     2.198
    25   1 H        0.924     0.080     1.975     2.197
    26   1 H        0.924     0.092     1.855     2.130
    27   1 H        0.925     0.099     1.798     2.097
    28   1 H        0.925     0.098     1.803     2.100
    29   1 H        0.925     0.104     1.751     2.070
    30   1 H        0.925     0.099     1.794     2.094
    31   1 H        0.925     0.100     1.786     2.090
    32   1 H        0.925     0.098     1.799     2.098
    33   1 H        0.925     0.097     1.815     2.107
    34   1 H        0.925     0.107     1.719     2.051
    35   1 H        0.925     0.095     1.827     2.114

Wiberg/Mayer (AO) data.
largest (>0.10) Wiberg bond orders for each atom

     #   Z sym  total        # sym  WBO       # sym  WBO       # sym  WBO
 ---------------------------------------------------------------------------
     1   6 C    3.995 --     2 C    1.021    14 H    0.987    13 H    0.986
                            12 H    0.986
     2   6 C    3.997 --     1 C    1.021     3 C    1.008    16 H    0.977
                            15 H    0.975
     3   6 C    3.996 --     2 C    1.008     4 C    1.007    17 H    0.976
                            18 H    0.976
     4   6 C    3.995 --     5 C    1.008     3 C    1.007    19 H    0.974
                            20 H    0.972
     5   6 C    3.992 --     4 C    1.008     6 C    1.005    22 H    0.969
                            21 H    0.968
     6   6 C    3.982 --     7 C    1.006     5 C    1.005    23 H    0.970
                            24 H    0.960
     7   6 C    3.924 --     6 C    1.006    25 H    0.969    26 H    0.962
                             8 N    0.917
     8   7 N    3.816 --     9 C    0.959    11 C    0.958    10 C    0.958
                             7 C    0.917
     9   6 C    3.928 --    27 H    0.975    28 H    0.974    29 H    0.972
                             8 N    0.959
    10   6 C    3.928 --    30 H    0.975    32 H    0.975    31 H    0.974
                             8 N    0.958
    11   6 C    3.926 --    35 H    0.975    33 H    0.974    34 H    0.963
                             8 N    0.958
    12   1 H    0.999 --     1 C    0.986
    13   1 H    0.998 --     1 C    0.986
    14   1 H    0.998 --     1 C    0.987
    15   1 H    0.999 --     2 C    0.975
    16   1 H    0.998 --     2 C    0.977
    17   1 H    1.000 --     3 C    0.976
    18   1 H    0.998 --     3 C    0.976
    19   1 H    1.000 --     4 C    0.974
    20   1 H    0.997 --     4 C    0.972
    21   1 H    0.999 --     5 C    0.968
    22   1 H    0.996 --     5 C    0.969
    23   1 H    0.997 --     6 C    0.970
    24   1 H    0.993 --     6 C    0.960
    25   1 H    0.994 --     7 C    0.969
    26   1 H    0.991 --     7 C    0.962
    27   1 H    0.990 --     9 C    0.975
    28   1 H    0.990 --     9 C    0.974
    29   1 H    0.989 --     9 C    0.972
    30   1 H    0.990 --    10 C    0.975
    31   1 H    0.990 --    10 C    0.974
    32   1 H    0.990 --    10 C    0.975
    33   1 H    0.991 --    11 C    0.974
    34   1 H    0.988 --    11 C    0.963
    35   1 H    0.991 --    11 C    0.975
 ---------------------------------------------------------------------------

molecular dipole:
                 x           y           z       tot (Debye)
 q only:       -2.742      -4.581      -9.488
   full:       -2.755      -4.615      -9.600      27.966

           -------------------------------------------------
          | TOTAL ENERGY              -36.180758928852 Eh   |
          | GRADIENT NORM               0.000342863220 Eh/α |
          | HOMO-LUMO GAP               7.623601341583 eV   |
           -------------------------------------------------

 * finished run on 2024/12/20 at 06:42:27.556
