   * xtb version 6.7.1 (edcfbbe) compiled by 'conda@3ef47c1a292c' on 2024-11-25

   ID    Z sym.   atoms
    1    6 C      1, 3, 5, 7, 9-11, 14-21, 24
    2    8 O      2, 4, 12, 22, 23
    3    7 N      6, 8, 13
    4    1 H      25-42

          program call               : xtb C0376.xyz --opt --namespace C0376 --charge +1
          :  Hamiltonian                  GFN2-xTB          :
 * total energy  :   -72.1703475 Eh     change       -0.1035502E-08 Eh
 * total energy  :   -72.1844290 Eh     change       -0.1408149E-01 Eh
 * total energy  :   -72.1888990 Eh     change       -0.4469936E-02 Eh
 * total energy  :   -72.1899470 Eh     change       -0.1048058E-02 Eh
 * total energy  :   -72.1905353 Eh     change       -0.5882940E-03 Eh
 * total energy  :   -72.1908429 Eh     change       -0.3075905E-03 Eh
 * total energy  :   -72.1911561 Eh     change       -0.3131690E-03 Eh
 * total energy  :   -72.1914229 Eh     change       -0.2668370E-03 Eh
 * total energy  :   -72.1916425 Eh     change       -0.2196284E-03 Eh
 * total energy  :   -72.1918003 Eh     change       -0.1577721E-03 Eh
 * total energy  :   -72.1923405 Eh     change       -0.1817697E-04 Eh
 * total energy  :   -72.1923596 Eh     change       -0.1907943E-04 Eh
 * total energy  :   -72.1923753 Eh     change       -0.1571046E-04 Eh
 * total energy  :   -72.1924003 Eh     change       -0.2502165E-04 Eh
 * total energy  :   -72.1924148 Eh     change       -0.1450608E-04 Eh
 * total energy  :   -72.1924237 Eh     change       -0.8822715E-05 Eh
 * total energy  :   -72.1924275 Eh     change       -0.3864550E-05 Eh
 * total energy  :   -72.1924352 Eh     change       -0.7671032E-05 Eh
 * total energy  :   -72.1924395 Eh     change       -0.4276837E-05 Eh
   *** GEOMETRY OPTIMIZATION CONVERGED AFTER 33 ITERATIONS ***

 final structure:
================
42
 xtb: 6.7.1 (edcfbbe)
C           -1.02256807192186       -0.89434023174323       -0.80403344690950
O           -0.17841507118019       -1.95196249718761       -1.26434415968025
C            0.77992056901313       -1.59740965287249       -2.10564399796997
O            0.96203707166627       -0.51842310949770       -2.57251351719318
C            1.64850457146613       -2.82445922516498       -2.49696290930758
N            1.43395505575421       -3.93721994974801       -1.61980443238365
C            0.67142480123913       -4.99340470712803       -1.87810388709259
N            0.62983863588965       -5.78308733649112       -0.80286983153828
C            1.37655832259895       -5.20389241858033        0.17581426304637
C            1.90063335094572       -4.04590690522898       -0.33402694825940
C            2.64252552921677       -2.92515511885741        0.33068569694939
O            2.41007779954476       -1.77829824047112        0.00934647461825
N            3.48520556558435       -3.25676842688973        1.32372673549452
C            4.00512276661692       -4.52138924767196        1.67300588792569
C            4.15896245130956       -4.83516293018232        3.01883308553545
C            4.68972828024528       -6.05905255476336        3.38528850634277
C            5.07260628212263       -6.97127660858446        2.41558918288566
C            4.93774597162584       -6.65020578863643        1.07473760607146
C            4.41131685124437       -5.42721852783802        0.69873312433356
C           -0.18716947083111       -6.95553567198055       -0.67848090288264
C           -1.66873307049760       -6.57665081716806       -0.93458008375133
O           -1.97449662235937       -5.56411020993409       -1.49982873852824
O           -2.46182019097642       -7.51141260101071       -0.47632534969635
C           -3.87275126677558       -7.34430671732098       -0.66034488490227
H           -1.78464477680428       -1.36394762782754       -0.18806993441716
H           -1.47424321655475       -0.37652515009219       -1.65126718344750
H           -0.43436951646398       -0.18373620295337       -0.22187577183683
H            1.39263075540058       -3.10421314585921       -3.52117155839746
H            2.68889172627612       -2.49383902430647       -2.46322881937522
H            0.16243233342768       -5.17959871215580       -2.80352763337110
H            1.49489474155494       -5.63955523014348        1.14722050902188
H            3.83894140416397       -2.46506730523913        1.85030085632369
H            3.86595065269148       -4.11865052297219        3.77102504115004
H            4.80977675587044       -6.29693040496720        4.43040661756076
H            5.49167713689724       -7.92225340579053        2.70316459062199
H            5.26222233395660       -7.34602773704559        0.31653267164925
H            4.34434898698461       -5.16181157116047       -0.34598500955635
H            0.09395962944091       -7.70691141637997       -1.42323116262310
H           -0.08115562766742       -7.39034081373557        0.31563959590469
H           -4.07464148292182       -6.82209211018948       -1.59579130185168
H           -4.29929557758509       -8.34390667541115       -0.67280749248283
H           -4.28178637021082       -6.77155344881660        0.17243851201685

          :  Hamiltonian                  GFN2-xTB          :
         :: total energy             -72.192439483840 Eh    ::
         :: gradient norm              0.000587026345 Eh/a0 ::
         :: HOMO-LUMO gap              2.719983773179 eV    ::
         :: SCC energy               -73.115713683810 Eh    ::
         :: -> dispersion             -0.042804760196 Eh    ::
         :: repulsion energy           0.923274199970 Eh    ::

    * Orbital Energies and Occupations

         #    Occupation            Energy/Eh            Energy/eV
      -------------------------------------------------------------
         1        2.0000           -0.8931367             -24.3035
       ...           ...                  ...                  ...
        51        2.0000           -0.5949963             -16.1907
        52        2.0000           -0.5805877             -15.7986
        53        2.0000           -0.5766236             -15.6907
        54        2.0000           -0.5760219             -15.6744
        55        2.0000           -0.5684095             -15.4672
        56        2.0000           -0.5617251             -15.2853
        57        2.0000           -0.5509574             -14.9923
        58        2.0000           -0.5489498             -14.9377
        59        2.0000           -0.5409127             -14.7190
        60        2.0000           -0.5354441             -14.5702
        61        2.0000           -0.5330067             -14.5038
        62        2.0000           -0.5232928             -14.2395
        63        2.0000           -0.5083512             -13.8329 (HOMO)
        64                         -0.4083937             -11.1130 (LUMO)
        65                         -0.3972955             -10.8110
        66                         -0.3719630             -10.1216
        67                         -0.3433112              -9.3420
        68                         -0.3411620              -9.2835
        69                         -0.3372344              -9.1766
        70                         -0.3049923              -8.2993
        71                         -0.2096176              -5.7040
        72                         -0.1836247              -4.9967
        73                         -0.1506501              -4.0994
        74                         -0.1283206              -3.4918
       ...                                ...                  ...
       114                          0.5849486              15.9173
      -------------------------------------------------------------
                  HL-Gap            0.0999576 Eh            2.7200 eV

     #   Z          covCN         q      C6AA      α(0)
     1   6 C        3.660     0.020    20.519     6.500
     2   8 O        1.703    -0.247    18.094     5.743
     3   6 C        2.722     0.374    20.661     7.441
     4   8 O        0.856    -0.343    20.572     6.081
     5   6 C        3.742    -0.053    21.607     6.632
     6   7 N        2.866     0.083    19.806     6.610
     7   6 C        3.081     0.055    26.684     8.469
     8   7 N        2.863     0.074    19.958     6.635
     9   6 C        3.063    -0.010    28.202     8.708
    10   6 C        3.106     0.020    27.421     8.580
    11   6 C        2.749     0.279    22.274     7.728
    12   8 O        0.860    -0.404    21.750     6.253
    13   7 N        2.694    -0.151    24.262     7.316
    14   6 C        2.907     0.058    26.690     8.471
    15   6 C        2.923    -0.044    29.099     8.846
    16   6 C        2.920    -0.021    28.531     8.759
    17   6 C        2.919    -0.026    28.657     8.779
    18   6 C        2.920    -0.026    28.650     8.778
    19   6 C        2.921    -0.050    29.232     8.866
    20   6 C        3.743    -0.059    21.714     6.648
    21   6 C        2.717     0.360    20.892     7.482
    22   8 O        0.856    -0.386    21.395     6.201
    23   8 O        1.704    -0.221    17.670     5.675
    24   6 C        3.653     0.013    20.672     6.529
    25   1 H        0.925     0.083     1.950     2.184
    26   1 H        0.924     0.082     1.959     2.189
    27   1 H        0.924     0.085     1.924     2.169
    28   1 H        0.924     0.107     1.724     2.053
    29   1 H        0.924     0.126     1.565     1.956
    30   1 H        0.926     0.131     1.530     1.934
    31   1 H        0.926     0.104     1.753     2.071
    32   1 H        0.860     0.219     1.016     1.579
    33   1 H        0.926     0.055     2.256     2.349
    34   1 H        0.926     0.062     2.170     2.304
    35   1 H        0.926     0.060     2.195     2.317
    36   1 H        0.926     0.053     2.277     2.360
    37   1 H        0.926     0.031     2.575     2.510
    38   1 H        0.924     0.116     1.648     2.008
    39   1 H        0.924     0.116     1.644     2.005
    40   1 H        0.925     0.088     1.895     2.153
    41   1 H        0.925     0.099     1.792     2.093
    42   1 H        0.924     0.087     1.907     2.160

Wiberg/Mayer (AO) data.
largest (>0.10) Wiberg bond orders for each atom

     #   Z sym  total        # sym  WBO       # sym  WBO       # sym  WBO
 ---------------------------------------------------------------------------
     1   6 C    3.901 --    25 H    0.980    26 H    0.976    27 H    0.975
                             2 O    0.935
     2   8 O    2.326 --     3 C    1.163     1 C    0.935     4 O    0.185
     3   6 C    3.938 --     4 O    1.799     2 O    1.163     5 C    0.901
     4   8 O    2.114 --     3 C    1.799     2 O    0.185
     5   6 C    3.939 --     6 N    0.993    28 H    0.951    29 H    0.946
                             3 C    0.901
     6   7 N    3.722 --     7 C    1.368    10 C    1.191     5 C    0.993
     7   6 C    3.940 --     6 N    1.368     8 N    1.333    30 H    0.949
     8   7 N    3.709 --     7 C    1.333     9 C    1.224    20 C    0.996
     9   6 C    3.945 --    10 C    1.538     8 N    1.224    31 H    0.961
    10   6 C    3.943 --     9 C    1.538     6 N    1.191    11 C    0.967
    11   6 C    3.966 --    12 O    1.662    13 N    1.261    10 C    0.967
    12   8 O    2.036 --    11 C    1.662    13 N    0.204
    13   7 N    3.507 --    11 C    1.261    14 C    1.024    32 H    0.914
                            12 O    0.204
    14   6 C    3.952 --    15 C    1.387    19 C    1.383    13 N    1.024
                            17 C    0.103
    15   6 C    3.988 --    16 C    1.447    14 C    1.387    33 H    0.967
                            18 C    0.108
    16   6 C    3.989 --    15 C    1.447    17 C    1.436    34 H    0.968
                            19 C    0.109
    17   6 C    3.982 --    16 C    1.436    18 C    1.435    35 H    0.969
                            14 C    0.103
    18   6 C    3.990 --    19 C    1.448    17 C    1.435    36 H    0.969
                            15 C    0.108
    19   6 C    3.990 --    18 C    1.448    14 C    1.383    37 H    0.968
                            16 C    0.109
    20   6 C    3.947 --     8 N    0.996    39 H    0.957    38 H    0.939
                            21 C    0.913
    21   6 C    3.937 --    22 O    1.749    23 O    1.209    20 C    0.913
    22   8 O    2.076 --    21 C    1.749    23 O    0.193
    23   8 O    2.368 --    21 C    1.209    24 C    0.927    22 O    0.193
    24   6 C    3.888 --    40 H    0.976    41 H    0.975    42 H    0.972
                            23 O    0.927
    25   1 H    0.993 --     1 C    0.980
    26   1 H    0.993 --     1 C    0.976
    27   1 H    0.993 --     1 C    0.975
    28   1 H    0.988 --     5 C    0.951
    29   1 H    0.984 --     5 C    0.946
    30   1 H    0.982 --     7 C    0.949
    31   1 H    0.989 --     9 C    0.961
    32   1 H    0.951 --    13 N    0.914
    33   1 H    0.997 --    15 C    0.967
    34   1 H    0.995 --    16 C    0.968
    35   1 H    0.996 --    17 C    0.969
    36   1 H    0.997 --    18 C    0.969
    37   1 H    0.999 --    19 C    0.968
    38   1 H    0.986 --    20 C    0.939
    39   1 H    0.986 --    20 C    0.957
    40   1 H    0.992 --    24 C    0.976
    41   1 H    0.990 --    24 C    0.975
    42   1 H    0.992 --    24 C    0.972
 ---------------------------------------------------------------------------

molecular dipole:
                 x           y           z       tot (Debye)
 q only:        1.516     -11.405      -0.212
   full:        1.597     -11.706      -0.157      30.031

           -------------------------------------------------
          | TOTAL ENERGY              -72.192439483840 Eh   |
          | GRADIENT NORM               0.000587026345 Eh/α |
          | HOMO-LUMO GAP               2.719983773179 eV   |
           -------------------------------------------------

 * finished run on 2024/12/20 at 06:42:39.321
