   * xtb version 6.7.1 (edcfbbe) compiled by 'conda@3ef47c1a292c' on 2024-11-25

   ID    Z sym.   atoms
    1    6 C      1, 2, 4-10, 12, 14, 15, 17, 18
    2    8 O      3, 11
    3    7 N      13, 16
    4    1 H      19-35

          program call               : xtb C0375.xyz --opt --namespace C0375 --charge +1
          :  Hamiltonian                  GFN2-xTB          :
 * total energy  :   -52.2224279 Eh     change       -0.6482068E-09 Eh
 * total energy  :   -52.2300181 Eh     change       -0.7590148E-02 Eh
 * total energy  :   -52.2325408 Eh     change       -0.2522783E-02 Eh
 * total energy  :   -52.2333441 Eh     change       -0.8032998E-03 Eh
 * total energy  :   -52.2341279 Eh     change       -0.7837445E-03 Eh
 * total energy  :   -52.2346635 Eh     change       -0.5356250E-03 Eh
 * total energy  :   -52.2353515 Eh     change       -0.6879804E-03 Eh
 * total energy  :   -52.2359448 Eh     change       -0.5933418E-03 Eh
 * total energy  :   -52.2363676 Eh     change       -0.4227532E-03 Eh
 * total energy  :   -52.2366734 Eh     change       -0.3058420E-03 Eh
 * total energy  :   -52.2512755 Eh     change       -0.6228320E-04 Eh
 * total energy  :   -52.2513579 Eh     change       -0.8244123E-04 Eh
 * total energy  :   -52.2514146 Eh     change       -0.5673590E-04 Eh
 * total energy  :   -52.2514532 Eh     change       -0.3857795E-04 Eh
 * total energy  :   -52.2514794 Eh     change       -0.2620788E-04 Eh
 * total energy  :   -52.2515032 Eh     change       -0.2380711E-04 Eh
 * total energy  :   -52.2515186 Eh     change       -0.1535637E-04 Eh
 * total energy  :   -52.2515281 Eh     change       -0.9521537E-05 Eh
 * total energy  :   -52.2515322 Eh     change       -0.4125001E-05 Eh
   *** GEOMETRY OPTIMIZATION CONVERGED AFTER 136 ITERATIONS ***

 final structure:
================
35
 xtb: 6.7.1 (edcfbbe)
C           -1.88225655999671        0.92917848918207        2.84818122820816
C           -0.63714591175398        0.15232034215940        2.45605580542167
O            0.40182892235089        1.09693082336032        2.21732227421808
C            1.62025066155574        0.69035462405056        1.87755506247834
C            2.01950076629684       -0.64456027274334        1.72509925153539
C            3.31404439162456       -0.93586429474564        1.37134171566031
C            4.26458079721789        0.07552556007446        1.15875842478448
C            3.85764598747159        1.41278469337782        1.30833974572393
C            2.56737232320005        1.70879037402363        1.65714080210715
C            5.59909119653804       -0.32923560784364        0.78527485512543
O            5.95185388712297       -1.47051747594098        0.56579359748485
C            6.67134896048731        0.79909344488717        0.63400493431886
N            7.95088995761558        0.16600067797779        0.53913491612167
C            8.95171613012644        0.19622585952806        1.46515193290242
C            9.86795166740891       -0.74018683963061        1.10093941280997
N            9.40712633257661       -1.34108762642611       -0.03269413683778
C            8.24031699941463       -0.78648615516127       -0.34804255465664
C           10.06431674368156       -2.40873539893961       -0.73552764861197
H           -1.69934542644591        1.49624277988704        3.75621920500217
H           -2.70420603604004        0.24097462376477        3.01905545336113
H           -2.15638924910733        1.61997574645952        2.05625024181310
H           -0.34006089699555       -0.52817227847032        3.26326544604162
H           -0.81926766074702       -0.43094130798937        1.54500604752915
H            1.32044756392073       -1.44991734606112        1.88133435592915
H            3.62730583084774       -1.96204205908134        1.25259931386113
H            4.54628115255374        2.22524542447453        1.13861009851899
H            2.24140228226556        2.73014700191533        1.77136136549797
H            6.44593491119533        1.35999767309087       -0.27692825720395
H            6.66013417594931        1.46913653326973        1.49249676536650
H            8.94759033528202        0.86970814423459        2.29730155489597
H           10.79351622618881       -1.01556764536610        1.56352859052060
H            7.64235183515386       -1.04534778392920       -1.19915702876594
H            9.51155211914312       -2.64868226840137       -1.64081853384180
H           11.08024404351478       -2.11488308128393       -1.00040088076663
H           10.11204554042087       -3.29765537366258       -0.10489335645910

          :  Hamiltonian                  GFN2-xTB          :
         :: total energy             -52.251532227698 Eh    ::
         :: gradient norm              0.000411924373 Eh/a0 ::
         :: HOMO-LUMO gap              2.580259214051 eV    ::
         :: SCC energy               -53.017638821789 Eh    ::
         :: -> dispersion             -0.030277646302 Eh    ::
         :: repulsion energy           0.766106594091 Eh    ::

    * Orbital Energies and Occupations

         #    Occupation            Energy/Eh            Energy/eV
      -------------------------------------------------------------
         1        2.0000           -0.8773372             -23.8736
       ...           ...                  ...                  ...
        35        2.0000           -0.5933549             -16.1460
        36        2.0000           -0.5894872             -16.0408
        37        2.0000           -0.5818849             -15.8339
        38        2.0000           -0.5752090             -15.6522
        39        2.0000           -0.5678209             -15.4512
        40        2.0000           -0.5658010             -15.3962
        41        2.0000           -0.5519800             -15.0201
        42        2.0000           -0.5459650             -14.8565
        43        2.0000           -0.5293868             -14.4053
        44        2.0000           -0.5279978             -14.3676
        45        2.0000           -0.5219929             -14.2041
        46        2.0000           -0.5211682             -14.1817
        47        2.0000           -0.4908815             -13.3576 (HOMO)
        48                         -0.3960588             -10.7773 (LUMO)
        49                         -0.3863366             -10.5128
        50                         -0.3548724              -9.6566
        51                         -0.3346360              -9.1059
        52                         -0.2981600              -8.1133
        53                         -0.1948711              -5.3027
        54                         -0.1626752              -4.4266
        55                         -0.1129142              -3.0726
        56                         -0.0810598              -2.2057
        57                         -0.0751468              -2.0448
        58                         -0.0361311              -0.9832
       ...                                ...                  ...
        89                          0.5667634              15.4224
      -------------------------------------------------------------
                  HL-Gap            0.0948228 Eh            2.5803 eV

     #   Z          covCN         q      C6AA      α(0)
     1   6 C        3.751    -0.120    22.852     6.817
     2   6 C        3.690     0.077    19.478     6.316
     3   8 O        1.706    -0.225    17.730     5.685
     4   6 C        2.862     0.170    24.332     8.085
     5   6 C        2.912    -0.061    29.518     8.909
     6   6 C        2.927    -0.010    28.275     8.720
     7   6 C        2.969    -0.032    28.785     8.800
     8   6 C        2.916    -0.028    28.706     8.786
     9   6 C        2.917    -0.048    29.186     8.859
    10   6 C        2.823     0.222    23.327     7.914
    11   8 O        0.857    -0.377    21.226     6.177
    12   6 C        3.744    -0.051    21.565     6.625
    13   7 N        2.872     0.072    19.983     6.639
    14   6 C        3.066    -0.008    28.157     8.701
    15   6 C        3.070    -0.009    28.176     8.704
    16   7 N        2.867     0.076    19.925     6.630
    17   6 C        3.094     0.059    26.559     8.446
    18   6 C        3.692    -0.085    22.304     6.758
    19   1 H        0.925     0.066     2.131     2.283
    20   1 H        0.925     0.062     2.170     2.304
    21   1 H        0.925     0.067     2.122     2.278
    22   1 H        0.924     0.046     2.364     2.405
    23   1 H        0.924     0.047     2.358     2.402
    24   1 H        0.926     0.061     2.189     2.314
    25   1 H        0.926     0.076     2.024     2.225
    26   1 H        0.926     0.047     2.356     2.400
    27   1 H        0.926     0.074     2.039     2.233
    28   1 H        0.924     0.097     1.809     2.104
    29   1 H        0.925     0.097     1.809     2.104
    30   1 H        0.926     0.102     1.771     2.081
    31   1 H        0.926     0.106     1.732     2.058
    32   1 H        0.926     0.121     1.601     1.979
    33   1 H        0.925     0.099     1.796     2.096
    34   1 H        0.924     0.102     1.764     2.077
    35   1 H        0.924     0.106     1.730     2.057

Wiberg/Mayer (AO) data.
largest (>0.10) Wiberg bond orders for each atom

     #   Z sym  total        # sym  WBO       # sym  WBO       # sym  WBO
 ---------------------------------------------------------------------------
     1   6 C    3.987 --     2 C    1.017    19 H    0.984    21 H    0.984
                            20 H    0.982
     2   6 C    3.928 --     1 C    1.017    22 H    0.967    23 H    0.967
                             3 O    0.942
     3   8 O    2.309 --     4 C    1.161     2 C    0.942
     4   6 C    3.939 --     5 C    1.317     9 C    1.286     3 O    1.161
     5   6 C    3.987 --     6 C    1.506     4 C    1.317    24 H    0.963
     6   6 C    3.984 --     5 C    1.506     7 C    1.322    25 H    0.964
     7   6 C    3.979 --     6 C    1.322     8 C    1.307    10 C    1.125
     8   6 C    3.991 --     9 C    1.541     7 C    1.307    26 H    0.965
     9   6 C    3.986 --     8 C    1.541     4 C    1.286    27 H    0.965
    10   6 C    3.923 --    11 O    1.760     7 C    1.125    12 C    0.910
    11   8 O    2.079 --    10 C    1.760
    12   6 C    3.944 --    13 N    0.998    29 H    0.959    28 H    0.945
                            10 C    0.910
    13   7 N    3.707 --    17 C    1.341    14 C    1.212    12 C    0.998
    14   6 C    3.948 --    15 C    1.603    13 N    1.212    30 H    0.962
    15   6 C    3.949 --    14 C    1.603    16 N    1.218    31 H    0.962
    16   7 N    3.714 --    17 C    1.358    15 C    1.218    18 C    0.991
    17   6 C    3.945 --    16 N    1.358    13 N    1.341    32 H    0.952
    18   6 C    3.936 --    16 N    0.991    33 H    0.976    34 H    0.966
                            35 H    0.962
    19   1 H    0.996 --     1 C    0.984
    20   1 H    0.995 --     1 C    0.982
    21   1 H    0.995 --     1 C    0.984
    22   1 H    0.996 --     2 C    0.967
    23   1 H    0.996 --     2 C    0.967
    24   1 H    0.995 --     5 C    0.963
    25   1 H    0.994 --     6 C    0.964
    26   1 H    0.997 --     8 C    0.965
    27   1 H    0.994 --     9 C    0.965
    28   1 H    0.989 --    12 C    0.945
    29   1 H    0.990 --    12 C    0.959
    30   1 H    0.989 --    14 C    0.962
    31   1 H    0.989 --    15 C    0.962
    32   1 H    0.985 --    17 C    0.952
    33   1 H    0.990 --    18 C    0.976
    34   1 H    0.989 --    18 C    0.966
    35   1 H    0.988 --    18 C    0.962
 ---------------------------------------------------------------------------

molecular dipole:
                 x           y           z       tot (Debye)
 q only:       13.064      -0.455       1.265
   full:       13.074      -0.421       1.229      33.394

           -------------------------------------------------
          | TOTAL ENERGY              -52.251532227698 Eh   |
          | GRADIENT NORM               0.000411924373 Eh/α |
          | HOMO-LUMO GAP               2.580259214051 eV   |
           -------------------------------------------------

 * finished run on 2024/12/20 at 06:42:37.675
