   * xtb version 6.7.1 (edcfbbe) compiled by 'conda@3ef47c1a292c' on 2024-11-25

   ID    Z sym.   atoms
    1    6 C      1, 2, 6-11
    2    7 N      3-5
    3    1 H      12-25

          program call               : xtb C0378.xyz --opt --namespace C0378 --charge +1
          :  Hamiltonian                  GFN2-xTB          :
 * total energy  :   -32.6525801 Eh     change       -0.2474110E-10 Eh
 * total energy  :   -32.6613112 Eh     change       -0.8731146E-02 Eh
 * total energy  :   -32.6624325 Eh     change       -0.1121289E-02 Eh
 * total energy  :   -32.6625903 Eh     change       -0.1578265E-03 Eh
 * total energy  :   -32.6626992 Eh     change       -0.1088294E-03 Eh
 * total energy  :   -32.6627186 Eh     change       -0.1941430E-04 Eh
 * total energy  :   -32.6627406 Eh     change       -0.2205319E-04 Eh
 * total energy  :   -32.6627564 Eh     change       -0.1571336E-04 Eh
 * total energy  :   -32.6627793 Eh     change       -0.2298517E-04 Eh
 * total energy  :   -32.6628036 Eh     change       -0.2427393E-04 Eh
 * total energy  :   -32.6638116 Eh     change       -0.2366429E-04 Eh
 * total energy  :   -32.6638446 Eh     change       -0.3302931E-04 Eh
 * total energy  :   -32.6638587 Eh     change       -0.1407037E-04 Eh
 * total energy  :   -32.6638705 Eh     change       -0.1182568E-04 Eh
 * total energy  :   -32.6638750 Eh     change       -0.4550268E-05 Eh
 * total energy  :   -32.6638880 Eh     change       -0.1293212E-04 Eh
 * total energy  :   -32.6638942 Eh     change       -0.6248536E-05 Eh
 * total energy  :   -32.6638985 Eh     change       -0.4270220E-05 Eh
 * total energy  :   -32.6639009 Eh     change       -0.2379053E-05 Eh
   *** GEOMETRY OPTIMIZATION CONVERGED AFTER 42 ITERATIONS ***

 final structure:
================
25
 xtb: 6.7.1 (edcfbbe)
C            1.33032253398959       -0.63680231727296       -0.43800667967769
C            0.15044780017055       -1.16072945461641        0.37566874741997
N            0.60401301876912       -1.75169481343741        1.61100834136947
N            0.69204483175715       -3.03928862801282        1.73994988047420
N            1.16265320025467       -3.26700581112871        2.93119702205400
C            1.36797021185285       -4.60177774848660        3.43395218470423
C            2.31141461280483       -4.55287672691164        4.63136905834340
C            1.84056225428816       -3.48742418990275        5.61894674068445
C            1.94511039493842       -2.09989832250251        4.98113209258996
C            1.39193325032304       -2.11904607567938        3.60672658146861
C            1.02263404149171       -1.12149175454177        2.72551324547789
H            1.86686346324148        0.14028107011696        0.10137998097615
H            0.95989698390521       -0.21380762860746       -1.36639514228895
H            2.01960478605092       -1.44232905899621       -0.67952071199336
H           -0.54098044530362       -0.34879056989662        0.61299017304813
H           -0.37629897338681       -1.94223355314767       -0.17504089286570
H            1.76048621731196       -5.21642877794334        2.62149694564633
H            0.39518758637666       -5.01068353445287        3.72667728633436
H            3.32610032880098       -4.32683389086499        4.29892578970128
H            2.32525473672264       -5.53221883059559        5.10670476283862
H            0.80777393905719       -3.68652485232352        5.90991889609942
H            2.45019709385279       -3.51610076461402        6.52006882625717
H            1.42322250315055       -1.35094094101598        5.57881873666524
H            2.99395839504929       -1.79192676928986        4.92739361939153
H            1.03149723453119       -0.05687605587739        2.83352451528012

          :  Hamiltonian                  GFN2-xTB          :
         :: total energy             -32.663900877484 Eh    ::
         :: gradient norm              0.000866452848 Eh/a0 ::
         :: HOMO-LUMO gap              3.939753868539 eV    ::
         :: SCC energy               -33.116876965195 Eh    ::
         :: -> dispersion             -0.018573008119 Eh    ::
         :: repulsion energy           0.452976087711 Eh    ::

    * Orbital Energies and Occupations

         #    Occupation            Energy/Eh            Energy/eV
      -------------------------------------------------------------
         1        2.0000           -0.9204896             -25.0478
       ...           ...                  ...                  ...
        18        2.0000           -0.6646106             -18.0850
        19        2.0000           -0.6550568             -17.8250
        20        2.0000           -0.6510371             -17.7156
        21        2.0000           -0.6423131             -17.4782
        22        2.0000           -0.6236898             -16.9715
        23        2.0000           -0.6116872             -16.6449
        24        2.0000           -0.6086047             -16.5610
        25        2.0000           -0.6024157             -16.3926
        26        2.0000           -0.5929083             -16.1339
        27        2.0000           -0.5916397             -16.0993
        28        2.0000           -0.5874016             -15.9840
        29        2.0000           -0.5861459             -15.9498
        30        2.0000           -0.5763930             -15.6845 (HOMO)
        31                         -0.4316097             -11.7447 (LUMO)
        32                         -0.3767932             -10.2531
        33                         -0.1903969              -5.1810
        34                         -0.1491078              -4.0574
        35                         -0.0901944              -2.4543
        36                         -0.0734922              -1.9998
        37                         -0.0525069              -1.4288
        38                         -0.0457303              -1.2444
        39                         -0.0366852              -0.9983
        40                         -0.0335533              -0.9130
        41                         -0.0177318              -0.4825
       ...                                ...                  ...
        58                          0.4443829              12.0923
      -------------------------------------------------------------
                  HL-Gap            0.1447833 Eh            3.9398 eV

     #   Z          covCN         q      C6AA      α(0)
     1   6 C        3.753    -0.124    22.938     6.830
     2   6 C        3.743    -0.028    21.155     6.562
     3   7 N        3.034     0.152    18.669     6.417
     4   7 N        2.146    -0.121    24.170     7.295
     5   7 N        3.053     0.142    18.830     6.445
     6   6 C        3.746    -0.030    21.170     6.563
     7   6 C        3.807    -0.074    21.910     6.663
     8   6 C        3.808    -0.071    21.843     6.653
     9   6 C        3.806    -0.072    21.874     6.658
    10   6 C        3.054     0.052    26.789     8.488
    11   6 C        3.024    -0.025    28.594     8.771
    12   1 H        0.925     0.066     2.133     2.284
    13   1 H        0.925     0.088     1.895     2.153
    14   1 H        0.925     0.070     2.081     2.256
    15   1 H        0.924     0.094     1.844     2.124
    16   1 H        0.924     0.106     1.733     2.059
    17   1 H        0.924     0.102     1.763     2.076
    18   1 H        0.924     0.099     1.792     2.093
    19   1 H        0.924     0.068     2.111     2.272
    20   1 H        0.925     0.082     1.955     2.186
    21   1 H        0.924     0.062     2.175     2.307
    22   1 H        0.925     0.077     2.012     2.218
    23   1 H        0.924     0.088     1.897     2.154
    24   1 H        0.924     0.092     1.863     2.135
    25   1 H        0.927     0.104     1.747     2.067

Wiberg/Mayer (AO) data.
largest (>0.10) Wiberg bond orders for each atom

     #   Z sym  total        # sym  WBO       # sym  WBO       # sym  WBO
 ---------------------------------------------------------------------------
     1   6 C    3.978 --     2 C    0.996    12 H    0.984    14 H    0.984
                            13 H    0.975
     2   6 C    3.931 --     1 C    0.996     3 N    0.964    16 H    0.963
                            15 H    0.958
     3   7 N    3.754 --     4 N    1.327    11 C    1.296     2 C    0.964
     4   7 N    2.994 --     3 N    1.327     5 N    1.306    11 C    0.135
                            10 C    0.104
     5   7 N    3.744 --     4 N    1.306    10 C    1.272     6 C    0.968
     6   6 C    3.936 --     7 C    1.002     5 N    0.968    17 H    0.956
                            18 H    0.946
     7   6 C    3.985 --     8 C    1.009     6 C    1.002    19 H    0.973
                            20 H    0.969
     8   6 C    3.989 --     7 C    1.009     9 C    1.001    21 H    0.975
                            22 H    0.972
     9   6 C    3.984 --    10 C    1.030     8 C    1.001    23 H    0.954
                            24 H    0.940
    10   6 C    3.959 --    11 C    1.458     5 N    1.272     9 C    1.030
                             4 N    0.104
    11   6 C    3.955 --    10 C    1.458     3 N    1.296    25 H    0.961
                             4 N    0.135
    12   1 H    0.996 --     1 C    0.984
    13   1 H    0.992 --     1 C    0.975
    14   1 H    0.995 --     1 C    0.984
    15   1 H    0.991 --     2 C    0.958
    16   1 H    0.988 --     2 C    0.963
    17   1 H    0.989 --     6 C    0.956
    18   1 H    0.990 --     6 C    0.946
    19   1 H    0.995 --     7 C    0.973
    20   1 H    0.993 --     7 C    0.969
    21   1 H    0.996 --     8 C    0.975
    22   1 H    0.994 --     8 C    0.972
    23   1 H    0.992 --     9 C    0.954
    24   1 H    0.992 --     9 C    0.940
    25   1 H    0.989 --    11 C    0.961
 ---------------------------------------------------------------------------

molecular dipole:
                 x           y           z       tot (Debye)
 q only:        2.287      -4.497       5.191
   full:        2.260      -4.239       5.315      18.210

           -------------------------------------------------
          | TOTAL ENERGY              -32.663900877484 Eh   |
          | GRADIENT NORM               0.000866452848 Eh/α |
          | HOMO-LUMO GAP               3.939753868539 eV   |
           -------------------------------------------------

 * finished run on 2024/12/20 at 06:42:40.277
