   * xtb version 6.7.1 (edcfbbe) compiled by 'conda@3ef47c1a292c' on 2024-11-25

   ID    Z sym.   atoms
    1    9 F      1
    2    6 C      2-4, 6-13, 15, 16
    3    7 N      5, 14
    4    1 H      17-30

          program call               : xtb C0384.xyz --opt --namespace C0384 --charge +1
          :  Hamiltonian                  GFN2-xTB          :
 * total energy  :   -45.1333020 Eh     change       -0.2100506E-09 Eh
 * total energy  :   -45.1372283 Eh     change       -0.3926252E-02 Eh
 * total energy  :   -45.1378432 Eh     change       -0.6148855E-03 Eh
 * total energy  :   -45.1379642 Eh     change       -0.1210672E-03 Eh
 * total energy  :   -45.1381324 Eh     change       -0.1681164E-03 Eh
 * total energy  :   -45.1383012 Eh     change       -0.1688214E-03 Eh
 * total energy  :   -45.1386296 Eh     change       -0.3284333E-03 Eh
 * total energy  :   -45.1390061 Eh     change       -0.3765224E-03 Eh
 * total energy  :   -45.1394884 Eh     change       -0.4822266E-03 Eh
 * total energy  :   -45.1400319 Eh     change       -0.5435103E-03 Eh
 * total energy  :   -45.1422244 Eh     change       -0.2630834E-04 Eh
 * total energy  :   -45.1422407 Eh     change       -0.1629842E-04 Eh
 * total energy  :   -45.1422664 Eh     change       -0.2569303E-04 Eh
 * total energy  :   -45.1422884 Eh     change       -0.2194014E-04 Eh
 * total energy  :   -45.1422999 Eh     change       -0.1151467E-04 Eh
 * total energy  :   -45.1423072 Eh     change       -0.7287966E-05 Eh
 * total energy  :   -45.1423137 Eh     change       -0.6494010E-05 Eh
 * total energy  :   -45.1423198 Eh     change       -0.6092363E-05 Eh
 * total energy  :   -45.1423247 Eh     change       -0.4934485E-05 Eh
   *** GEOMETRY OPTIMIZATION CONVERGED AFTER 35 ITERATIONS ***

 final structure:
================
30
 xtb: 6.7.1 (edcfbbe)
F            2.06312127552202       -0.47276034126392       -0.00419690210545
C            3.07132640777307        0.35995119665896       -0.42072624429949
C            2.53481532578365        1.78133499287509       -0.57593418290777
C            1.68130494941831        2.21642406112140        0.62420061351438
N            2.43487533234472        2.18905891603750        1.86596974528743
C            3.20203068800026        3.23547275486790        2.20589804990733
C            3.95611870298134        3.22915348649478        3.35262678295980
C            3.94850471638378        2.10625316587007        4.19390477078811
C            3.14253133456625        1.02807132858414        3.80324737164559
C            2.40101972500715        1.10121901302186        2.64897864349884
C            4.74108067131107        2.06307759361880        5.41852123417679
C            5.35100099896484        0.87771885760636        5.83861149081056
C            6.09935006113843        0.89851168978499        7.00637264441271
N            6.25001039728433        1.97831311402015        7.74942708097792
C            5.66983262084343        3.09901352864005        7.36429649006527
C            4.91290642136980        3.20446447496856        6.20666020224996
H            3.86137386867567        0.29334338446768        0.33617422736333
H            3.44282433300144       -0.02801445976188       -1.37197968830066
H            3.37810013336740        2.45604675108358       -0.72455733535365
H            1.89495104872677        1.83080276172377       -1.45736802490234
H            1.30842930688398        3.22819054387790        0.45526967576981
H            0.83042516697806        1.53829190870908        0.71613336153397
H            3.19749718178881        4.08569850187820        1.53980794004635
H            4.56581483080554        4.08602580684168        3.59076884288875
H            3.07847344753734        0.14301457311331        4.41584215122223
H            1.76735091087833        0.28409625704159        2.33515533913129
H            5.27894592663811       -0.02491080463867        5.25255238460574
H            6.59754689947287        0.00785399472329        7.36294972920225
H            5.81986455361101        3.95278218001135        8.01019865658631
H            4.43656276294280        4.13714076802250        5.94870494922291

          :  Hamiltonian                  GFN2-xTB          :
         :: total energy             -45.142324691879 Eh    ::
         :: gradient norm              0.000261624079 Eh/a0 ::
         :: HOMO-LUMO gap              0.647823847006 eV    ::
         :: SCC energy               -45.833428917337 Eh    ::
         :: -> dispersion             -0.027283006791 Eh    ::
         :: repulsion energy           0.691104225458 Eh    ::

    * Orbital Energies and Occupations

         #    Occupation            Energy/Eh            Energy/eV
      -------------------------------------------------------------
         1        2.0000           -0.9362214             -25.4759
       ...           ...                  ...                  ...
        29        2.0000           -0.6266544             -17.0521
        30        2.0000           -0.6200009             -16.8711
        31        2.0000           -0.6146659             -16.7259
        32        2.0000           -0.6122464             -16.6601
        33        2.0000           -0.6095459             -16.5866
        34        2.0000           -0.6068689             -16.5137
        35        2.0000           -0.6007084             -16.3461
        36        2.0000           -0.5857128             -15.9381
        37        2.0000           -0.5786645             -15.7463
        38        2.0000           -0.5603699             -15.2484
        39        2.0000           -0.5571623             -15.1612
        40        2.0000           -0.5413512             -14.7309
        41        2.0000           -0.4819582             -13.1148 (HOMO)
        42        0.0000           -0.4581511             -12.4669 (LUMO)
        43                         -0.4225457             -11.4981
        44                         -0.3723361             -10.1318
        45                         -0.3601947              -9.8014
        46                         -0.2983404              -8.1183
        47                         -0.2288071              -6.2262
        48                         -0.1728505              -4.7035
        49                         -0.1039484              -2.8286
        50                         -0.0763969              -2.0789
        51                         -0.0643077              -1.7499
        52                         -0.0544247              -1.4810
       ...                                ...                  ...
        78                          0.5046868              13.7332
      -------------------------------------------------------------
                  HL-Gap            0.0238071 Eh            0.6478 eV

     #   Z          covCN         q      C6AA      α(0)
     1   9 F        0.784    -0.250    11.761     4.051
     2   6 C        3.608     0.100    19.432     6.368
     3   6 C        3.801    -0.077    21.974     6.674
     4   6 C        3.757    -0.032    21.193     6.564
     5   7 N        2.749     0.097    19.565     6.569
     6   6 C        2.887     0.028    27.377     8.578
     7   6 C        2.919    -0.023    28.585     8.768
     8   6 C        2.979     0.057    26.712     8.478
     9   6 C        2.920    -0.023    28.583     8.767
    10   6 C        2.887     0.031    27.314     8.568
    11   6 C        2.984     0.023    27.494     8.601
    12   6 C        2.917    -0.034    28.855     8.809
    13   6 C        2.909     0.067    26.499     8.441
    14   7 N        1.837    -0.173    25.552     7.491
    15   6 C        2.909     0.067    26.499     8.441
    16   6 C        2.917    -0.034    28.851     8.808
    17   1 H        0.924     0.051     2.312     2.378
    18   1 H        0.924     0.085     1.929     2.172
    19   1 H        0.925     0.068     2.108     2.271
    20   1 H        0.924     0.096     1.820     2.110
    21   1 H        0.924     0.092     1.857     2.131
    22   1 H        0.924     0.108     1.711     2.046
    23   1 H        0.926     0.102     1.770     2.080
    24   1 H        0.926     0.099     1.794     2.094
    25   1 H        0.926     0.101     1.775     2.083
    26   1 H        0.926     0.120     1.612     1.985
    27   1 H        0.926     0.053     2.277     2.360
    28   1 H        0.926     0.074     2.041     2.234
    29   1 H        0.926     0.074     2.042     2.234
    30   1 H        0.926     0.053     2.278     2.360

Wiberg/Mayer (AO) data.
largest (>0.10) Wiberg bond orders for each atom

     #   Z sym  total        # sym  WBO       # sym  WBO       # sym  WBO
 ---------------------------------------------------------------------------
     1   9 F    1.003 --     2 C    0.941
     2   6 C    3.901 --     3 C    1.005    17 H    0.970    18 H    0.966
                             1 F    0.941
     3   6 C    3.984 --     2 C    1.005     4 C    0.985    19 H    0.972
                            20 H    0.964
     4   6 C    3.939 --     3 C    0.985     5 N    0.967    21 H    0.962
                            22 H    0.961
     5   7 N    3.746 --    10 C    1.307     6 C    1.302     4 C    0.967
     6   6 C    3.957 --     7 C    1.502     5 N    1.302    23 H    0.955
     7   6 C    3.983 --     6 C    1.502     8 C    1.341    24 H    0.958
     8   6 C    3.972 --     9 C    1.349     7 C    1.341    11 C    1.081
     9   6 C    3.983 --    10 C    1.492     8 C    1.349    25 H    0.958
    10   6 C    3.951 --     9 C    1.492     5 N    1.307    26 H    0.950
    11   6 C    3.986 --    16 C    1.371    12 C    1.371     8 C    1.081
    12   6 C    3.987 --    13 C    1.428    11 C    1.371    27 H    0.966
                            15 C    0.115
    13   6 C    3.975 --    14 N    1.442    12 C    1.428    28 H    0.959
                            16 C    0.114
    14   7 N    3.069 --    15 C    1.442    13 C    1.442
    15   6 C    3.975 --    14 N    1.442    16 C    1.428    29 H    0.959
                            12 C    0.115
    16   6 C    3.987 --    15 C    1.428    11 C    1.371    30 H    0.966
                            13 C    0.114
    17   1 H    0.997 --     2 C    0.970
    18   1 H    0.992 --     2 C    0.966
    19   1 H    0.995 --     3 C    0.972
    20   1 H    0.989 --     3 C    0.964
    21   1 H    0.990 --     4 C    0.962
    22   1 H    0.988 --     4 C    0.961
    23   1 H    0.989 --     6 C    0.955
    24   1 H    0.990 --     7 C    0.958
    25   1 H    0.989 --     9 C    0.958
    26   1 H    0.985 --    10 C    0.950
    27   1 H    0.997 --    12 C    0.966
    28   1 H    0.993 --    13 C    0.959
    29   1 H    0.993 --    15 C    0.959
    30   1 H    0.997 --    16 C    0.966
 ---------------------------------------------------------------------------

molecular dipole:
                 x           y           z       tot (Debye)
 q only:        6.265       4.419       4.762
   full:        6.082       4.517       4.328      22.177

           -------------------------------------------------
          | TOTAL ENERGY              -45.142324691879 Eh   |
          | GRADIENT NORM               0.000261624079 Eh/α |
          | HOMO-LUMO GAP               0.647823847006 eV   |
           -------------------------------------------------

 * finished run on 2024/12/20 at 06:42:51.642
