   * xtb version 6.7.1 (edcfbbe) compiled by 'conda@3ef47c1a292c' on 2024-11-25

   ID    Z sym.   atoms
    1   17 Cl     1
    2    6 C      2, 3, 5-9
    3    7 N      4
    4    1 H      10-24

          program call               : xtb C0382.xyz --opt --namespace C0382 --charge +1
          :  Hamiltonian                  GFN2-xTB          :
 * total energy  :   -29.7133660 Eh     change       -0.6521006E-10 Eh
 * total energy  :   -29.7159075 Eh     change       -0.2541529E-02 Eh
 * total energy  :   -29.7165902 Eh     change       -0.6827303E-03 Eh
 * total energy  :   -29.7166480 Eh     change       -0.5780772E-04 Eh
 * total energy  :   -29.7166662 Eh     change       -0.1816360E-04 Eh
 * total energy  :   -29.7166733 Eh     change       -0.7137905E-05 Eh
 * total energy  :   -29.7166775 Eh     change       -0.4187387E-05 Eh
   *** GEOMETRY OPTIMIZATION CONVERGED AFTER 7 ITERATIONS ***

 final structure:
================
24
 xtb: 6.7.1 (edcfbbe)
Cl           1.14884522304865       -0.48931001831606        0.48239369995986
C            2.85611902829997       -0.15163922998454        0.02410000677771
C            3.14233391442653       -0.46415406592806       -1.43711683432148
N            2.56429326963896        0.48365213171821       -2.42962000790661
C            1.08117866513131        0.44143196437393       -2.54200616339463
C            0.64660789654071        1.21245743030772       -3.78161414393298
C            1.12273973829523        2.66016628497218       -3.70033768578592
C            2.63401274015511        2.69929502486719       -3.49137975698511
C            3.01582909401153        1.88921427336972       -2.25791388850146
H            3.07059510491116        0.88282701534120        0.28383503774720
H            3.47350569523926       -0.80505772177470        0.64053383794474
H            4.22784853153909       -0.46157486254445       -1.57344199920383
H            2.76593318820930       -1.46378308721067       -1.66700179062622
H            2.91631511016258        0.18615170312934       -3.34817765191973
H            0.65518453046302        0.88535061026531       -1.64275694272689
H            0.76172718985478       -0.59972346791388       -2.59773842775320
H           -0.43968540196436        1.17819059270319       -3.85293613147957
H            1.04857567267633        0.73625958856780       -4.67930501010591
H            0.86159640669807        3.18907725224830       -4.61519823568263
H            0.62356050544333        3.16551680245220       -2.87267707969534
H            3.14479910687892        2.30160202165272       -4.37154652239872
H            2.96910180097468        3.72701356451693       -3.35653098270998
H            4.09652107786656        1.89948179895548       -2.10549650597762
H            2.52544191149917        2.30446439423094       -1.37720682132170

          :  Hamiltonian                  GFN2-xTB          :
         :: total energy             -29.716677519837 Eh    ::
         :: gradient norm              0.000630256848 Eh/a0 ::
         :: HOMO-LUMO gap              6.767152642932 eV    ::
         :: SCC energy               -30.065813207891 Eh    ::
         :: -> dispersion             -0.017548730734 Eh    ::
         :: repulsion energy           0.349135688053 Eh    ::

    * Orbital Energies and Occupations

         #    Occupation            Energy/Eh            Energy/eV
      -------------------------------------------------------------
         1        2.0000           -1.1845800             -32.2341
       ...           ...                  ...                  ...
        15        2.0000           -0.6685347             -18.1918
        16        2.0000           -0.6666573             -18.1407
        17        2.0000           -0.6566604             -17.8686
        18        2.0000           -0.6478057             -17.6277
        19        2.0000           -0.6471054             -17.6086
        20        2.0000           -0.6371568             -17.3379
        21        2.0000           -0.6272823             -17.0692
        22        2.0000           -0.6120428             -16.6545
        23        2.0000           -0.5905497             -16.0697
        24        2.0000           -0.5897145             -16.0469
        25        2.0000           -0.5829841             -15.8638
        26        2.0000           -0.5524066             -15.0317
        27        2.0000           -0.5485865             -14.9278 (HOMO)
        28                         -0.2998982              -8.1606 (LUMO)
        29                         -0.2434422              -6.6244
        30                         -0.1590488              -4.3279
        31                         -0.1547936              -4.2121
        32                         -0.1375227              -3.7422
        33                         -0.1241835              -3.3792
        34                         -0.1154605              -3.1418
        35                         -0.1111283              -3.0240
        36                         -0.1102087              -2.9989
        37                         -0.0756289              -2.0580
        38                         -0.0696993              -1.8966
       ...                                ...                  ...
        56                          0.1495068               4.0683
      -------------------------------------------------------------
                  HL-Gap            0.2486883 Eh            6.7672 eV

     #   Z          covCN         q      C6AA      α(0)
     1  17 Cl       0.904    -0.168   104.385    15.630
     2   6 C        3.711    -0.000    20.715     6.504
     3   6 C        3.754    -0.042    21.382     6.594
     4   7 N        3.579     0.041    20.526     6.729
     5   6 C        3.747    -0.042    21.391     6.597
     6   6 C        3.806    -0.077    21.972     6.673
     7   6 C        3.807    -0.076    21.949     6.669
     8   6 C        3.805    -0.076    21.957     6.671
     9   6 C        3.748    -0.037    21.300     6.583
    10   1 H        0.925     0.099     1.796     2.096
    11   1 H        0.925     0.111     1.686     2.031
    12   1 H        0.924     0.102     1.770     2.080
    13   1 H        0.924     0.113     1.668     2.020
    14   1 H        0.859     0.235     0.944     1.522
    15   1 H        0.925     0.113     1.670     2.021
    16   1 H        0.924     0.092     1.857     2.131
    17   1 H        0.925     0.086     1.920     2.167
    18   1 H        0.924     0.058     2.224     2.332
    19   1 H        0.925     0.076     2.026     2.226
    20   1 H        0.924     0.064     2.153     2.294
    21   1 H        0.924     0.059     2.208     2.324
    22   1 H        0.925     0.085     1.932     2.174
    23   1 H        0.924     0.085     1.929     2.172
    24   1 H        0.924     0.100     1.784     2.089

Wiberg/Mayer (AO) data.
largest (>0.10) Wiberg bond orders for each atom

     #   Z sym  total        # sym  WBO       # sym  WBO       # sym  WBO
 ---------------------------------------------------------------------------
     1  17 Cl   1.019 --     2 C    0.966
     2   6 C    3.943 --     3 C    1.022    10 H    0.968     1 Cl   0.966
                            11 H    0.965
     3   6 C    3.938 --     2 C    1.022    13 H    0.961    12 H    0.960
                             4 N    0.944
     4   7 N    3.768 --     3 C    0.944     9 C    0.932     5 C    0.927
                            14 H    0.906
     5   6 C    3.914 --     6 C    1.008    16 H    0.967    15 H    0.959
                             4 N    0.927
     6   6 C    3.986 --     7 C    1.009     5 C    1.008    18 H    0.972
                            17 H    0.965
     7   6 C    3.990 --     6 C    1.009     8 C    1.008    20 H    0.974
                            19 H    0.971
     8   6 C    3.985 --     7 C    1.008     9 C    1.006    21 H    0.972
                            22 H    0.966
     9   6 C    3.923 --     8 C    1.006    23 H    0.969    24 H    0.964
                             4 N    0.932
    10   1 H    0.990 --     2 C    0.968
    11   1 H    0.987 --     2 C    0.965
    12   1 H    0.989 --     3 C    0.960
    13   1 H    0.987 --     3 C    0.961
    14   1 H    0.945 --     4 N    0.906
    15   1 H    0.987 --     5 C    0.959
    16   1 H    0.991 --     5 C    0.967
    17   1 H    0.992 --     6 C    0.965
    18   1 H    0.997 --     6 C    0.972
    19   1 H    0.994 --     7 C    0.971
    20   1 H    0.996 --     7 C    0.974
    21   1 H    0.996 --     8 C    0.972
    22   1 H    0.992 --     8 C    0.966
    23   1 H    0.993 --     9 C    0.969
    24   1 H    0.990 --     9 C    0.964
 ---------------------------------------------------------------------------

molecular dipole:
                 x           y           z       tot (Debye)
 q only:        5.131       1.577      -4.809
   full:        5.064       1.260      -4.516      17.541

           -------------------------------------------------
          | TOTAL ENERGY              -29.716677519837 Eh   |
          | GRADIENT NORM               0.000630256848 Eh/α |
          | HOMO-LUMO GAP               6.767152642932 eV   |
           -------------------------------------------------

 * finished run on 2024/12/20 at 06:42:47.013
