   * xtb version 6.7.1 (edcfbbe) compiled by 'conda@3ef47c1a292c' on 2024-11-25

   ID    Z sym.   atoms
    1    6 C      1-18, 20-33
    2    7 N      19
    3    1 H      34-101

          program call               : xtb C0387.xyz --opt --namespace C0387 --charge +1
          :  Hamiltonian                  GFN2-xTB          :
 * total energy  :  -105.7711078 Eh     change       -0.6033929E-10 Eh
 * total energy  :  -105.7789665 Eh     change       -0.7858669E-02 Eh
 * total energy  :  -105.7806781 Eh     change       -0.1711618E-02 Eh
 * total energy  :  -105.7807871 Eh     change       -0.1089365E-03 Eh
 * total energy  :  -105.7809147 Eh     change       -0.1276088E-03 Eh
 * total energy  :  -105.7809809 Eh     change       -0.6618216E-04 Eh
 * total energy  :  -105.7811949 Eh     change       -0.2140265E-03 Eh
 * total energy  :  -105.7813776 Eh     change       -0.1827136E-03 Eh
 * total energy  :  -105.7814840 Eh     change       -0.1063898E-03 Eh
 * total energy  :  -105.7817024 Eh     change       -0.2183927E-03 Eh
 * total energy  :  -105.7832574 Eh     change       -0.1901326E-04 Eh
 * total energy  :  -105.7832757 Eh     change       -0.1837818E-04 Eh
 * total energy  :  -105.7832917 Eh     change       -0.1595842E-04 Eh
 * total energy  :  -105.7833062 Eh     change       -0.1450969E-04 Eh
 * total energy  :  -105.7833240 Eh     change       -0.1782917E-04 Eh
 * total energy  :  -105.7833440 Eh     change       -0.1997831E-04 Eh
 * total energy  :  -105.7833515 Eh     change       -0.7501244E-05 Eh
 * total energy  :  -105.7833614 Eh     change       -0.9917834E-05 Eh
 * total energy  :  -105.7833655 Eh     change       -0.4115045E-05 Eh
   *** GEOMETRY OPTIMIZATION CONVERGED AFTER 46 ITERATIONS ***

 final structure:
================
101
 xtb: 6.7.1 (edcfbbe)
C            1.29652284017952       -1.46391074202752        0.44420946792323
C            1.42647237281131       -0.60622735759041        1.69719311027260
C            1.53654469339940        0.88910045032735        1.39523768410181
C            0.31276141529763        1.50248234902319        0.71128725424937
C           -0.99591557249127        1.38454000276923        1.49554008260364
C           -0.96725239955900        1.99569696552636        2.89777102561152
C           -0.62557793930230        3.48595638164928        2.94538051558959
C           -1.60865189095852        4.39908198097690        2.21004118170120
C           -3.04829871095813        4.35169966311038        2.72725581918988
C           -3.21193375367403        4.66387466017776        4.21621125320284
C           -2.67447995540606        6.02805201911058        4.65221826171664
C           -3.36635724025970        7.23153705619281        4.00902707641090
C           -4.86407489942820        7.35278755540492        4.30133757719417
C           -5.23434014611422        7.37252865373664        5.78631902263539
C           -4.55379473020423        8.47517636136704        6.59997896318884
C           -4.90495021877055        9.90401766572770        6.17963218318206
C           -6.39608869286362       10.26809761599236        6.24231877885575
C           -7.14913683296318        9.91693778330825        7.52936391495866
N           -7.11018392102872       10.89976905165697        8.65873443668655
C           -7.89992728447184       12.13360459386302        8.34804712706165
C           -9.42614142461143       12.01317655752575        8.29080826316895
C          -10.18780391406441       12.19205262253970        9.61259513037216
C           -9.82504911144515       13.44115466061725       10.41900887007402
C          -10.02371225413076       14.76770579582436        9.68313662983081
C          -11.46722191358696       15.05633823936521        9.26484415919846
C          -12.48033142512626       15.07605102133991       10.41203940484996
C          -12.16427056532337       16.06075833226195       11.53974289396653
C          -12.06610280055896       17.52611630609693       11.11125634905816
C          -13.34019096156438       18.10655540382827       10.49402095843564
C          -14.56887240439660       18.08161522553616       11.40462316905457
C          -14.39342837863561       18.90302030755460       12.67648275400249
C           -7.63880947569499       10.22535569598153        9.85843861978668
C           -5.72574810004814       11.31555973137362        8.94873303310878
H            0.35985846117854       -1.26701955954428       -0.07101923685958
H            1.32233773964243       -2.51948813537511        0.70549992742359
H            2.11641558238126       -1.26135101552174       -0.24167941996653
H            0.57528842683063       -0.79106654254552        2.35476060578505
H            2.32629099036853       -0.90923544508287        2.23870865980462
H            1.73256591718131        1.42051239657601        2.32897793715724
H            2.40145187251867        1.04878643437552        0.74593262737909
H            0.52327039197476        2.55681344939968        0.51826145983467
H            0.17054769709271        1.02545762826896       -0.26031421027194
H           -1.78750589202782        1.85889102182876        0.91092032032225
H           -1.26197300613706        0.32990123827976        1.59122169655241
H           -1.94290194541746        1.83351514395554        3.36168057209238
H           -0.23447335608067        1.46006554363402        3.50467421569647
H           -0.56472056227228        3.78996274929011        3.99292234961574
H            0.36546553424019        3.63850564676755        2.51407832697771
H           -1.23600961265624        5.42428590122128        2.27340470310433
H           -1.62107846573022        4.13271193773044        1.15156731258127
H           -3.64512041664189        5.05472296008435        2.14125671833941
H           -3.46078213913400        3.35754940210212        2.54469075364682
H           -4.27297340957774        4.59283704014562        4.46724573740108
H           -2.69683576985481        3.89700730672244        4.79758812852610
H           -2.75649352894063        6.09800108168832        5.73965592386708
H           -1.61161124179129        6.08366043502036        4.41251390103048
H           -2.85612311780510        8.13925182995344        4.34108824078319
H           -3.23987476914260        7.17790499114124        2.92683195828727
H           -5.23537318479928        8.25985331691646        3.81777427980221
H           -5.38544228379387        6.51285095790311        3.84001894443506
H           -6.32074393349979        7.46257402717636        5.87022897676156
H           -4.96077262313484        6.41354304256402        6.22838328453267
H           -4.78442567267752        8.32153434944178        7.65897888011190
H           -3.47386383073567        8.36318997146297        6.50497112463497
H           -4.30551478908098       10.59357161149674        6.77518061254163
H           -4.59352993536197       10.04260133350584        5.14407271913609
H           -6.51024180648099       11.32507820545633        5.99731045190119
H           -6.89815845091534        9.71508497291939        5.44696220570141
H           -8.20236600960469        9.77068460475558        7.28526571253906
H           -6.76296236772829        8.97040313875404        7.90891249661680
H           -7.64039528016980       12.88202044048029        9.09746965121275
H           -7.54136240611100       12.49358509804954        7.38279954157345
H           -9.76283520554862       12.79962812738920        7.61374540325050
H           -9.72907812077438       11.06918891869904        7.83539080397219
H          -11.24668359136606       12.24385296097270        9.35831307636877
H          -10.06877142948083       11.32082591870795       10.25771153332241
H          -10.44397610723246       13.44256353801124       11.31620412782776
H           -8.78781158519240       13.38449940003286       10.76430133319568
H           -9.68145950602604       15.56879376789873       10.33946436024581
H           -9.39235039655499       14.79708303260828        8.79096258494093
H          -11.48157059863737       16.02398537434052        8.76138011287494
H          -11.79309579430954       14.31374432707274        8.53218825516550
H          -13.45722757163040       15.31882641976220        9.99147440622631
H          -12.56310002308488       14.07517226224344       10.84317295287046
H          -12.94203630417957       15.96339205376448       12.29879897727804
H          -11.22197771026962       15.77943274948834       12.01641119530087
H          -11.79601511523642       18.11736931931916       11.98792004017141
H          -11.25404085203579       17.64020266937819       10.38934668529554
H          -13.13572111576845       19.14388988623012       10.21743013961642
H          -13.57605379790223       17.56832632938593        9.57331347833884
H          -15.41333483269030       18.48436237790694       10.84041855677493
H          -14.81836963002502       17.05191044159204       11.66750949050802
H          -14.09702880785013       19.92127428600392       12.43404801093075
H          -15.32878679658148       18.94267191000332       13.22981192771776
H          -13.63715794604974       18.46886543927916       13.32566566562133
H           -6.95415253105966        9.43957009499176       10.17467231563474
H           -7.74602211440887       10.94141716355629       10.67060630929371
H           -8.60597454299942        9.77626542441178        9.64759921033385
H           -5.08692364546491       10.44036171305072        9.04663845245030
H           -5.34441417723801       11.94928552392017        8.15234755716823
H           -5.69444736060829       11.87622744914367        9.88186997525553

          :  Hamiltonian                  GFN2-xTB          :
         :: total energy            -105.783365538982 Eh    ::
         :: gradient norm              0.000392559842 Eh/a0 ::
         :: HOMO-LUMO gap              6.061944294784 eV    ::
         :: SCC energy              -107.330632729642 Eh    ::
         :: -> dispersion             -0.087581349315 Eh    ::
         :: repulsion energy           1.547267190660 Eh    ::

    * Orbital Energies and Occupations

         #    Occupation            Energy/Eh            Energy/eV
      -------------------------------------------------------------
         1        2.0000           -0.8555415             -23.2805
       ...           ...                  ...                  ...
        88        2.0000           -0.4865265             -13.2391
        89        2.0000           -0.4816065             -13.1052
        90        2.0000           -0.4785025             -13.0207
        91        2.0000           -0.4757867             -12.9468
        92        2.0000           -0.4740851             -12.9005
        93        2.0000           -0.4716759             -12.8350
        94        2.0000           -0.4692885             -12.7700
        95        2.0000           -0.4660041             -12.6806
        96        2.0000           -0.4644106             -12.6373
        97        2.0000           -0.4619301             -12.5698
        98        2.0000           -0.4539830             -12.3535
        99        2.0000           -0.4477878             -12.1849
       100        2.0000           -0.4466222             -12.1532 (HOMO)
       101                         -0.2238498              -6.0913 (LUMO)
       102                         -0.1629172              -4.4332
       103                         -0.1418334              -3.8595
       104                         -0.1371742              -3.7327
       105                         -0.0761372              -2.0718
       106                         -0.0749430              -2.0393
       107                         -0.0555192              -1.5108
       108                         -0.0317613              -0.8643
       109                         -0.0312219              -0.8496
       110                         -0.0280537              -0.7634
       111                         -0.0120490              -0.3279
       ...                                ...                  ...
       200                          0.2755291               7.4975
      -------------------------------------------------------------
                  HL-Gap            0.2227724 Eh            6.0619 eV

     #   Z          covCN         q      C6AA      α(0)
     1   6 C        3.751    -0.101    22.499     6.764
     2   6 C        3.799    -0.052    21.504     6.603
     3   6 C        3.800    -0.057    21.598     6.617
     4   6 C        3.800    -0.057    21.595     6.616
     5   6 C        3.800    -0.056    21.583     6.615
     6   6 C        3.800    -0.056    21.586     6.615
     7   6 C        3.800    -0.057    21.592     6.616
     8   6 C        3.800    -0.057    21.594     6.616
     9   6 C        3.800    -0.057    21.594     6.616
    10   6 C        3.800    -0.057    21.599     6.617
    11   6 C        3.800    -0.058    21.617     6.620
    12   6 C        3.800    -0.059    21.633     6.622
    13   6 C        3.800    -0.059    21.641     6.624
    14   6 C        3.800    -0.061    21.673     6.628
    15   6 C        3.800    -0.062    21.686     6.630
    16   6 C        3.799    -0.071    21.863     6.658
    17   6 C        3.798    -0.071    21.859     6.657
    18   6 C        3.758    -0.041    21.349     6.587
    19   7 N        3.620     0.129    19.043     6.481
    20   6 C        3.759    -0.041    21.350     6.587
    21   6 C        3.798    -0.071    21.860     6.657
    22   6 C        3.799    -0.071    21.863     6.657
    23   6 C        3.800    -0.062    21.686     6.630
    24   6 C        3.800    -0.061    21.676     6.629
    25   6 C        3.800    -0.059    21.644     6.624
    26   6 C        3.800    -0.059    21.636     6.623
    27   6 C        3.800    -0.058    21.615     6.620
    28   6 C        3.800    -0.058    21.615     6.619
    29   6 C        3.800    -0.058    21.617     6.620
    30   6 C        3.799    -0.053    21.522     6.605
    31   6 C        3.751    -0.103    22.523     6.768
    32   6 C        3.726    -0.091    22.347     6.750
    33   6 C        3.726    -0.091    22.349     6.750
    34   1 H        0.925     0.034     2.528     2.486
    35   1 H        0.925     0.031     2.568     2.506
    36   1 H        0.925     0.034     2.535     2.490
    37   1 H        0.924     0.030     2.584     2.514
    38   1 H        0.924     0.026     2.641     2.542
    39   1 H        0.924     0.028     2.620     2.531
    40   1 H        0.924     0.028     2.609     2.526
    41   1 H        0.924     0.027     2.626     2.534
    42   1 H        0.924     0.032     2.561     2.502
    43   1 H        0.924     0.027     2.636     2.539
    44   1 H        0.924     0.031     2.571     2.508
    45   1 H        0.924     0.026     2.645     2.543
    46   1 H        0.924     0.031     2.572     2.508
    47   1 H        0.924     0.025     2.657     2.549
    48   1 H        0.924     0.033     2.550     2.497
    49   1 H        0.924     0.025     2.658     2.549
    50   1 H        0.924     0.034     2.537     2.491
    51   1 H        0.924     0.025     2.655     2.548
    52   1 H        0.924     0.033     2.541     2.493
    53   1 H        0.924     0.024     2.671     2.556
    54   1 H        0.924     0.034     2.528     2.486
    55   1 H        0.924     0.023     2.695     2.567
    56   1 H        0.924     0.038     2.479     2.462
    57   1 H        0.924     0.024     2.676     2.558
    58   1 H        0.924     0.040     2.446     2.446
    59   1 H        0.924     0.024     2.670     2.556
    60   1 H        0.924     0.041     2.438     2.442
    61   1 H        0.924     0.020     2.732     2.585
    62   1 H        0.924     0.044     2.396     2.421
    63   1 H        0.924     0.013     2.849     2.639
    64   1 H        0.925     0.054     2.265     2.353
    65   1 H        0.924     0.033     2.546     2.495
    66   1 H        0.924     0.062     2.176     2.307
    67   1 H        0.924     0.047     2.360     2.402
    68   1 H        0.924     0.075     2.033     2.230
    69   1 H        0.924     0.078     1.999     2.211
    70   1 H        0.924     0.091     1.868     2.138
    71   1 H        0.924     0.091     1.869     2.138
    72   1 H        0.924     0.078     1.998     2.211
    73   1 H        0.924     0.075     2.032     2.229
    74   1 H        0.924     0.047     2.363     2.404
    75   1 H        0.924     0.062     2.180     2.309
    76   1 H        0.924     0.033     2.546     2.495
    77   1 H        0.925     0.054     2.271     2.357
    78   1 H        0.924     0.013     2.834     2.633
    79   1 H        0.924     0.044     2.390     2.418
    80   1 H        0.924     0.020     2.732     2.585
    81   1 H        0.924     0.041     2.434     2.440
    82   1 H        0.924     0.024     2.672     2.556
    83   1 H        0.924     0.040     2.452     2.449
    84   1 H        0.924     0.024     2.668     2.554
    85   1 H        0.924     0.038     2.482     2.464
    86   1 H        0.924     0.023     2.683     2.562
    87   1 H        0.924     0.035     2.511     2.478
    88   1 H        0.924     0.025     2.655     2.548
    89   1 H        0.924     0.032     2.563     2.504
    90   1 H        0.924     0.027     2.629     2.535
    91   1 H        0.924     0.030     2.586     2.515
    92   1 H        0.924     0.029     2.594     2.519
    93   1 H        0.925     0.036     2.509     2.477
    94   1 H        0.925     0.034     2.524     2.484
    95   1 H        0.925     0.033     2.541     2.493
    96   1 H        0.925     0.091     1.867     2.137
    97   1 H        0.925     0.099     1.791     2.093
    98   1 H        0.925     0.099     1.795     2.095
    99   1 H        0.925     0.100     1.787     2.091
   100   1 H        0.925     0.099     1.795     2.095
   101   1 H        0.925     0.091     1.868     2.137

Wiberg/Mayer (AO) data.
largest (>0.10) Wiberg bond orders for each atom

     #   Z sym  total        # sym  WBO       # sym  WBO       # sym  WBO
 ---------------------------------------------------------------------------
     1   6 C    3.997 --     2 C    1.020    36 H    0.988    35 H    0.988
                            34 H    0.986
     2   6 C    3.998 --     1 C    1.020     3 C    1.008    38 H    0.979
                            37 H    0.976
     3   6 C    3.998 --     2 C    1.008     4 C    1.008    40 H    0.977
                            39 H    0.975
     4   6 C    3.998 --     5 C    1.008     3 C    1.008    42 H    0.975
                            41 H    0.975
     5   6 C    3.998 --     6 C    1.008     4 C    1.008    43 H    0.975
                            44 H    0.975
     6   6 C    3.998 --     7 C    1.008     5 C    1.008    45 H    0.975
                            46 H    0.975
     7   6 C    3.998 --     6 C    1.008     8 C    1.008    47 H    0.975
                            48 H    0.974
     8   6 C    3.997 --     7 C    1.008     9 C    1.007    49 H    0.975
                            50 H    0.975
     9   6 C    3.997 --    10 C    1.008     8 C    1.007    51 H    0.976
                            52 H    0.975
    10   6 C    3.997 --    11 C    1.008     9 C    1.008    53 H    0.975
                            54 H    0.974
    11   6 C    3.997 --    12 C    1.008    10 C    1.008    55 H    0.975
                            56 H    0.973
    12   6 C    3.997 --    11 C    1.008    13 C    1.007    57 H    0.975
                            58 H    0.974
    13   6 C    3.996 --    12 C    1.007    14 C    1.007    59 H    0.976
                            60 H    0.974
    14   6 C    3.996 --    13 C    1.007    15 C    1.007    61 H    0.976
                            62 H    0.973
    15   6 C    3.995 --    16 C    1.008    14 C    1.007    63 H    0.971
                            64 H    0.970
    16   6 C    3.991 --    15 C    1.008    17 C    1.004    65 H    0.974
                            66 H    0.970
    17   6 C    3.984 --    18 C    1.006    16 C    1.004    67 H    0.967
                            68 H    0.965
    18   6 C    3.928 --    17 C    1.006    69 H    0.964    70 H    0.959
                            19 N    0.923
    19   7 N    3.808 --    32 C    0.961    33 C    0.960    20 C    0.923
                            18 C    0.923
    20   6 C    3.928 --    21 C    1.005    72 H    0.964    71 H    0.959
                            19 N    0.923
    21   6 C    3.984 --    20 C    1.005    22 C    1.004    74 H    0.966
                            73 H    0.965
    22   6 C    3.991 --    23 C    1.008    21 C    1.004    76 H    0.974
                            75 H    0.970
    23   6 C    3.995 --    22 C    1.008    24 C    1.007    78 H    0.971
                            77 H    0.970
    24   6 C    3.996 --    25 C    1.007    23 C    1.007    80 H    0.976
                            79 H    0.973
    25   6 C    3.996 --    26 C    1.007    24 C    1.007    82 H    0.975
                            81 H    0.974
    26   6 C    3.997 --    27 C    1.008    25 C    1.007    84 H    0.975
                            83 H    0.974
    27   6 C    3.997 --    28 C    1.008    26 C    1.008    86 H    0.975
                            85 H    0.974
    28   6 C    3.997 --    27 C    1.008    29 C    1.008    88 H    0.975
                            87 H    0.975
    29   6 C    3.997 --    30 C    1.008    28 C    1.008    89 H    0.977
                            90 H    0.976
    30   6 C    3.998 --    31 C    1.020    29 C    1.008    91 H    0.978
                            92 H    0.976
    31   6 C    3.997 --    30 C    1.020    93 H    0.987    94 H    0.987
                            95 H    0.986
    32   6 C    3.931 --    96 H    0.975    97 H    0.973    98 H    0.972
                            19 N    0.961
    33   6 C    3.931 --   101 H    0.975    99 H    0.972   100 H    0.972
                            19 N    0.960
    34   1 H    0.999 --     1 C    0.986
    35   1 H    0.999 --     1 C    0.988
    36   1 H    0.999 --     1 C    0.988
    37   1 H    0.999 --     2 C    0.976
    38   1 H    0.999 --     2 C    0.979
    39   1 H    0.999 --     3 C    0.975
    40   1 H    0.999 --     3 C    0.977
    41   1 H    0.999 --     4 C    0.975
    42   1 H    0.999 --     4 C    0.975
    43   1 H    0.999 --     5 C    0.975
    44   1 H    0.999 --     5 C    0.975
    45   1 H    0.999 --     6 C    0.975
    46   1 H    0.999 --     6 C    0.975
    47   1 H    0.999 --     7 C    0.975
    48   1 H    0.999 --     7 C    0.974
    49   1 H    0.999 --     8 C    0.975
    50   1 H    0.999 --     8 C    0.975
    51   1 H    0.999 --     9 C    0.976
    52   1 H    0.999 --     9 C    0.975
    53   1 H    0.999 --    10 C    0.975
    54   1 H    0.999 --    10 C    0.974
    55   1 H    0.999 --    11 C    0.975
    56   1 H    0.999 --    11 C    0.973
    57   1 H    0.999 --    12 C    0.975
    58   1 H    0.998 --    12 C    0.974
    59   1 H    0.999 --    13 C    0.976
    60   1 H    0.998 --    13 C    0.974
    61   1 H    1.000 --    14 C    0.976
    62   1 H    0.998 --    14 C    0.973
    63   1 H    1.000 --    15 C    0.971
    64   1 H    0.997 --    15 C    0.970
    65   1 H    0.999 --    16 C    0.974
    66   1 H    0.996 --    16 C    0.970
    67   1 H    0.998 --    17 C    0.967
    68   1 H    0.994 --    17 C    0.965
    69   1 H    0.994 --    18 C    0.964
    70   1 H    0.992 --    18 C    0.959
    71   1 H    0.992 --    20 C    0.959
    72   1 H    0.994 --    20 C    0.964
    73   1 H    0.994 --    21 C    0.965
    74   1 H    0.998 --    21 C    0.966
    75   1 H    0.996 --    22 C    0.970
    76   1 H    0.999 --    22 C    0.974
    77   1 H    0.997 --    23 C    0.970
    78   1 H    1.000 --    23 C    0.971
    79   1 H    0.998 --    24 C    0.973
    80   1 H    1.000 --    24 C    0.976
    81   1 H    0.998 --    25 C    0.974
    82   1 H    0.999 --    25 C    0.975
    83   1 H    0.998 --    26 C    0.974
    84   1 H    0.999 --    26 C    0.975
    85   1 H    0.999 --    27 C    0.974
    86   1 H    0.999 --    27 C    0.975
    87   1 H    0.999 --    28 C    0.975
    88   1 H    0.999 --    28 C    0.975
    89   1 H    0.999 --    29 C    0.977
    90   1 H    0.999 --    29 C    0.976
    91   1 H    0.999 --    30 C    0.978
    92   1 H    0.999 --    30 C    0.976
    93   1 H    0.999 --    31 C    0.987
    94   1 H    0.999 --    31 C    0.987
    95   1 H    0.999 --    31 C    0.986
    96   1 H    0.992 --    32 C    0.975
    97   1 H    0.990 --    32 C    0.973
    98   1 H    0.990 --    32 C    0.972
    99   1 H    0.990 --    33 C    0.972
   100   1 H    0.990 --    33 C    0.972
   101   1 H    0.992 --    33 C    0.975
 ---------------------------------------------------------------------------

molecular dipole:
                 x           y           z       tot (Debye)
 q only:      -13.596      20.597      15.960
   full:      -13.582      20.599      15.993      74.737

           -------------------------------------------------
          | TOTAL ENERGY             -105.783365538982 Eh   |
          | GRADIENT NORM               0.000392559842 Eh/α |
          | HOMO-LUMO GAP               6.061944294784 eV   |
           -------------------------------------------------

 * finished run on 2024/12/20 at 06:43:03.571
