   * xtb version 6.7.1 (edcfbbe) compiled by 'conda@3ef47c1a292c' on 2024-11-25

   ID    Z sym.   atoms
    1    6 C      1, 2, 4-9
    2    7 N      3
    3    1 H      10-21

          program call               : xtb C0380.xyz --opt --namespace C0380 --charge +1
          :  Hamiltonian                  GFN2-xTB          :
 * total energy  :   -25.7737213 Eh     change       -0.7393197E-11 Eh
 * total energy  :   -25.7759575 Eh     change       -0.2236142E-02 Eh
 * total energy  :   -25.7762636 Eh     change       -0.3061476E-03 Eh
 * total energy  :   -25.7762894 Eh     change       -0.2582497E-04 Eh
 * total energy  :   -25.7763001 Eh     change       -0.1068066E-04 Eh
 * total energy  :   -25.7763047 Eh     change       -0.4548281E-05 Eh
 * total energy  :   -25.7763089 Eh     change       -0.4245673E-05 Eh
   *** GEOMETRY OPTIMIZATION CONVERGED AFTER 7 ITERATIONS ***

 final structure:
================
21
 xtb: 6.7.1 (edcfbbe)
C            1.28374869505338       -0.34473357932857       -0.13092609654320
C            0.34166476272579       -0.88904524366389        0.93941941585422
N            0.98726268330087       -0.86973730852551        2.24338632419124
C            0.93410732576389        0.23512983632584        2.99905136225554
C            1.56728541064443        0.30115441892610        4.21665863389293
C            2.29141958166395       -0.79599663487198        4.69658033369946
C            2.33757885941312       -1.92681700070046        3.87435133515566
C            1.68394517224882       -1.93263843403001        2.66522269674186
C            2.98581751500610       -0.75458130692758        6.00179501746184
H            1.56279328741793        0.68430399199379        0.08160035041327
H            0.78454437114405       -0.37144719828491       -1.09472791067166
H            2.18721115026595       -0.94599994544457       -0.19648636001001
H           -0.56342158449954       -0.28066620341963        0.98634487197812
H            0.05904511969370       -1.91608346070503        0.70215885465118
H            0.36554858373135        1.06861380122917        2.61355697464390
H            1.49674231094260        1.20463512637896        4.80181195325860
H            2.88227803898524       -2.80441842126139        4.18537071228628
H            1.70409258340705       -2.79758361694525        2.01866226365784
H            3.98510626235014       -0.33665462385039        5.86547930008166
H            2.46123611649115       -0.11573020009390        6.70793199022397
H            3.10113375425006       -1.75010399680077        6.42218797677728

          :  Hamiltonian                  GFN2-xTB          :
         :: total energy             -25.776308899030 Eh    ::
         :: gradient norm              0.000595325420 Eh/a0 ::
         :: HOMO-LUMO gap              3.813507867024 eV    ::
         :: SCC energy               -26.218234806134 Eh    ::
         :: -> dispersion             -0.014292653341 Eh    ::
         :: repulsion energy           0.441925907104 Eh    ::

    * Orbital Energies and Occupations

         #    Occupation            Energy/Eh            Energy/eV
      -------------------------------------------------------------
         1        2.0000           -0.8746655             -23.8009
       ...           ...                  ...                  ...
        12        2.0000           -0.6858425             -18.6627
        13        2.0000           -0.6776807             -18.4406
        14        2.0000           -0.6698127             -18.2265
        15        2.0000           -0.6615741             -18.0023
        16        2.0000           -0.6581328             -17.9087
        17        2.0000           -0.6297729             -17.1370
        18        2.0000           -0.6259292             -17.0324
        19        2.0000           -0.6204390             -16.8830
        20        2.0000           -0.6112313             -16.6324
        21        2.0000           -0.6078304             -16.5399
        22        2.0000           -0.6032040             -16.4140
        23        2.0000           -0.5983354             -16.2815
        24        2.0000           -0.5901741             -16.0595 (HOMO)
        25                         -0.4500302             -12.2459 (LUMO)
        26                         -0.4218684             -11.4796
        27                         -0.3032155              -8.2509
        28                         -0.1707566              -4.6465
        29                         -0.0767374              -2.0881
        30                         -0.0499987              -1.3605
        31                         -0.0410149              -1.1161
        32                         -0.0293392              -0.7984
        33                         -0.0225111              -0.6126
        34                         -0.0092245              -0.2510
        35                          0.0175003               0.4762
       ...                                ...                  ...
        48                          0.4399976              11.9729
      -------------------------------------------------------------
                  HL-Gap            0.1401438 Eh            3.8135 eV

     #   Z          covCN         q      C6AA      α(0)
     1   6 C        3.752    -0.124    22.930     6.829
     2   6 C        3.756    -0.029    21.146     6.557
     3   7 N        2.750     0.097    19.567     6.570
     4   6 C        2.889     0.031    27.314     8.568
     5   6 C        2.921    -0.027    28.665     8.780
     6   6 C        2.969     0.073    26.370     8.423
     7   6 C        2.921    -0.026    28.663     8.780
     8   6 C        2.889     0.031    27.311     8.568
     9   6 C        3.758    -0.134    23.134     6.857
    10   1 H        0.925     0.066     2.128     2.281
    11   1 H        0.925     0.088     1.894     2.152
    12   1 H        0.925     0.066     2.127     2.281
    13   1 H        0.924     0.091     1.867     2.137
    14   1 H        0.924     0.091     1.870     2.138
    15   1 H        0.926     0.105     1.737     2.061
    16   1 H        0.926     0.102     1.765     2.077
    17   1 H        0.926     0.102     1.765     2.078
    18   1 H        0.926     0.105     1.738     2.061
    19   1 H        0.924     0.109     1.708     2.044
    20   1 H        0.925     0.092     1.861     2.134
    21   1 H        0.925     0.090     1.879     2.143

Wiberg/Mayer (AO) data.
largest (>0.10) Wiberg bond orders for each atom

     #   Z sym  total        # sym  WBO       # sym  WBO       # sym  WBO
 ---------------------------------------------------------------------------
     1   6 C    3.978 --     2 C    0.997    12 H    0.984    10 H    0.983
                            11 H    0.975
     2   6 C    3.937 --     1 C    0.997    14 H    0.964    13 H    0.964
                             3 N    0.960
     3   7 N    3.754 --     8 C    1.313     4 C    1.311     2 C    0.960
     4   6 C    3.959 --     5 C    1.494     3 N    1.311    15 H    0.955
     5   6 C    3.984 --     4 C    1.494     6 C    1.361    16 H    0.959
     6   6 C    3.970 --     7 C    1.363     5 C    1.361     9 C    1.066
     7   6 C    3.983 --     8 C    1.491     6 C    1.363    17 H    0.959
     8   6 C    3.959 --     7 C    1.491     3 N    1.313    18 H    0.955
     9   6 C    3.983 --     6 C    1.066    21 H    0.969    20 H    0.965
                            19 H    0.927
    10   1 H    0.996 --     1 C    0.983
    11   1 H    0.991 --     1 C    0.975
    12   1 H    0.996 --     1 C    0.984
    13   1 H    0.991 --     2 C    0.964
    14   1 H    0.991 --     2 C    0.964
    15   1 H    0.989 --     4 C    0.955
    16   1 H    0.989 --     5 C    0.959
    17   1 H    0.989 --     7 C    0.959
    18   1 H    0.989 --     8 C    0.955
    19   1 H    0.987 --     9 C    0.927
    20   1 H    0.991 --     9 C    0.965
    21   1 H    0.991 --     9 C    0.969
 ---------------------------------------------------------------------------

molecular dipole:
                 x           y           z       tot (Debye)
 q only:        2.920      -1.478       5.648
   full:        2.863      -1.493       5.617      16.467

           -------------------------------------------------
          | TOTAL ENERGY              -25.776308899030 Eh   |
          | GRADIENT NORM               0.000595325420 Eh/α |
          | HOMO-LUMO GAP               3.813507867024 eV   |
           -------------------------------------------------

 * finished run on 2024/12/20 at 06:42:41.616
