   * xtb version 6.7.1 (edcfbbe) compiled by 'conda@3ef47c1a292c' on 2024-11-25

   ID    Z sym.   atoms
    1    6 C      1-12, 14-19, 21, 23-29
    2    7 N      13, 20, 22
    3    1 H      30-67

          program call               : xtb C0381.xyz --opt --namespace C0381 --charge +1
          :  Hamiltonian                  GFN2-xTB          :
 * total energy  :   -83.4953365 Eh     change       -0.2161329E-08 Eh
 * total energy  :   -83.5008515 Eh     change       -0.5515065E-02 Eh
 * total energy  :   -83.5019586 Eh     change       -0.1107044E-02 Eh
 * total energy  :   -83.5024227 Eh     change       -0.4640872E-03 Eh
 * total energy  :   -83.5029458 Eh     change       -0.5231632E-03 Eh
 * total energy  :   -83.5033613 Eh     change       -0.4154831E-03 Eh
 * total energy  :   -83.5037392 Eh     change       -0.3778441E-03 Eh
 * total energy  :   -83.5040655 Eh     change       -0.3263934E-03 Eh
 * total energy  :   -83.5043245 Eh     change       -0.2589519E-03 Eh
 * total energy  :   -83.5045578 Eh     change       -0.2333192E-03 Eh
 * total energy  :   -83.5094557 Eh     change       -0.1800675E-04 Eh
 * total energy  :   -83.5094718 Eh     change       -0.1609465E-04 Eh
 * total energy  :   -83.5094841 Eh     change       -0.1236131E-04 Eh
 * total energy  :   -83.5094936 Eh     change       -0.9500653E-05 Eh
 * total energy  :   -83.5095011 Eh     change       -0.7436660E-05 Eh
 * total energy  :   -83.5095077 Eh     change       -0.6586512E-05 Eh
 * total energy  :   -83.5095145 Eh     change       -0.6839042E-05 Eh
 * total energy  :   -83.5095226 Eh     change       -0.8120444E-05 Eh
 * total energy  :   -83.5095252 Eh     change       -0.2553336E-05 Eh
   *** GEOMETRY OPTIMIZATION CONVERGED AFTER 68 ITERATIONS ***

 final structure:
================
67
 xtb: 6.7.1 (edcfbbe)
C            1.43412135614813        0.45417226593234       -0.84042465227138
C            1.13268274084110       -0.69544493968506       -1.79459051050561
C            1.46491310567785       -2.06872255593815       -1.20897354654044
C            0.66210236711995       -2.45134289798209        0.03601349464984
C           -0.85370472052668       -2.50965135879466       -0.16348116441804
C           -1.32938689068559       -3.50318646631459       -1.22580135033500
C           -0.89489730325755       -4.95331996917339       -0.99956580252770
C           -1.29677668687735       -5.54747121566295        0.35182757833769
C           -2.80497058164089       -5.62235727247630        0.60140089532218
C           -3.54041141560479       -6.64683013220672       -0.26665787561321
C           -3.25267803670354       -8.10225744466841        0.11155899459364
C           -3.90360850823536       -8.52819302610353        1.43253225095480
N           -5.33748734341659       -8.69215467201328        1.31138286248192
C           -6.30952026892767       -7.75385790953229        1.64015319113189
C           -6.22085153275941       -6.47100228884923        2.15463978055934
C           -7.40754564624623       -5.79518762174808        2.37294318900780
C           -8.64135557620562       -6.37618508224726        2.09177368266130
C           -8.73825535717287       -7.65838382229011        1.58238978069286
C           -7.55374961276142       -8.34023463842910        1.36013850834248
N           -7.29549100029920       -9.61363224065284        0.86799676073473
C           -5.96286175375076       -9.78694396743521        0.84729091312162
N           -5.35788231448248      -10.92062263533912        0.47370484211677
C           -8.27636775426806      -10.61068430320842        0.48116183980436
C           -7.98250648527764      -11.18076003439289       -0.88584310697642
C           -7.84371355095897      -12.55265715110334       -1.06693565672100
C           -7.58037150350992      -13.06617794995269       -2.32656157801493
C           -7.44170451782505      -12.21287732967069       -3.40798063923699
C           -7.57327107532480      -10.84449195151156       -3.23158936981869
C           -7.84446224917485      -10.32915673395716       -1.97681033312436
H            0.78623210124463        0.42250665206519        0.03193786025197
H            1.27978563591763        1.40778929949044       -1.33986776003274
H            2.46771721957293        0.40809918947734       -0.50427026519455
H            0.08205804374882       -0.65943946652862       -2.08838770704633
H            1.72692216538153       -0.56342725335680       -2.70199129169132
H            1.31607482273473       -2.82467689959824       -1.98301376561555
H            2.52487104524295       -2.08395970589521       -0.94282206224515
H            1.01929161245327       -3.42222797641470        0.38682019953139
H            0.87178976836310       -1.73137109699062        0.82911688442199
H           -1.31634964360126       -2.75470268140880        0.79576716668834
H           -1.21539375495589       -1.51860074068455       -0.44301866381242
H           -2.41994740014708       -3.45285750649521       -1.27889458188167
H           -0.95260577103072       -3.18943627503605       -2.20065853773352
H           -1.30627957015696       -5.56420654539994       -1.80691785512414
H            0.19143103360281       -5.01360926949984       -1.08026397738962
H           -0.86177734827739       -6.54669363152149        0.43097395158737
H           -0.85183189714980       -4.94640585997232        1.14539454614464
H           -2.96201549703497       -5.85061019670940        1.65863584058891
H           -3.24183138265435       -4.64057254435948        0.41847344533892
H           -4.61666446465356       -6.46599705721460       -0.20717056269580
H           -3.24714568389650       -6.49789374436350       -1.30575277747274
H           -3.60609665910724       -8.75644095236114       -0.68987875113999
H           -2.17623466133114       -8.24535758209412        0.20304872874511
H           -3.47705304063475       -9.47160273731658        1.78481883499113
H           -3.72303926591211       -7.77609919630468        2.20051609537063
H           -5.27322200583367       -6.00812017959600        2.37238503711083
H           -7.37607653534671       -4.79362081868183        2.77040645064975
H           -9.54256565403442       -5.81429550074359        2.27663403586282
H           -9.69929444190910       -8.09866278438609        1.37288149533961
H           -4.35912992595317      -10.93711915878267        0.35871869395071
H           -5.90116187960766      -11.62101613905936       -0.01194930212007
H           -8.29868882301216      -11.40813461528163        1.23190298154293
H           -9.25107082519900      -10.11868455270150        0.47738079379383
H           -7.96446916547336      -13.22215277584057       -0.22676027813162
H           -7.48715788919233      -14.13243666941242       -2.46045035787195
H           -7.23903517968942      -12.61340445799318       -4.38856056359440
H           -7.47422914262674      -10.17836163533162       -4.07431902714614
H           -7.96003382376084       -9.26300158804420       -1.84238793240640

          :  Hamiltonian                  GFN2-xTB          :
         :: total energy             -83.509525174981 Eh    ::
         :: gradient norm              0.000196690244 Eh/a0 ::
         :: HOMO-LUMO gap              2.395543870216 eV    ::
         :: SCC energy               -84.868573048601 Eh    ::
         :: -> dispersion             -0.067332542646 Eh    ::
         :: repulsion energy           1.359047873620 Eh    ::

    * Orbital Energies and Occupations

         #    Occupation            Energy/Eh            Energy/eV
      -------------------------------------------------------------
         1        2.0000           -0.8677468             -23.6126
       ...           ...                  ...                  ...
        66        2.0000           -0.5220338             -14.2053
        67        2.0000           -0.5212969             -14.1852
        68        2.0000           -0.5182276             -14.1017
        69        2.0000           -0.5179795             -14.0949
        70        2.0000           -0.5112873             -13.9128
        71        2.0000           -0.5072766             -13.8037
        72        2.0000           -0.5009536             -13.6316
        73        2.0000           -0.4905316             -13.3480
        74        2.0000           -0.4876922             -13.2708
        75        2.0000           -0.4835996             -13.1594
        76        2.0000           -0.4705445             -12.8042
        77        2.0000           -0.4661783             -12.6854
        78        2.0000           -0.4640646             -12.6278 (HOMO)
        79                         -0.3760300             -10.2323 (LUMO)
        80                         -0.3455522              -9.4030
        81                         -0.3435536              -9.3486
        82                         -0.3400946              -9.2544
        83                         -0.3309870              -9.0066
        84                         -0.2183853              -5.9426
        85                         -0.2157328              -5.8704
        86                         -0.1742966              -4.7429
        87                         -0.1269794              -3.4553
        88                         -0.1213333              -3.3016
        89                         -0.0590962              -1.6081
       ...                                ...                  ...
       154                          0.5631136              15.3231
      -------------------------------------------------------------
                  HL-Gap            0.0880346 Eh            2.3955 eV

     #   Z          covCN         q      C6AA      α(0)
     1   6 C        3.751    -0.102    22.517     6.767
     2   6 C        3.799    -0.052    21.517     6.605
     3   6 C        3.800    -0.058    21.613     6.619
     4   6 C        3.800    -0.058    21.613     6.619
     5   6 C        3.800    -0.057    21.605     6.618
     6   6 C        3.800    -0.058    21.617     6.620
     7   6 C        3.800    -0.059    21.633     6.622
     8   6 C        3.800    -0.061    21.666     6.627
     9   6 C        3.800    -0.061    21.666     6.627
    10   6 C        3.800    -0.064    21.721     6.636
    11   6 C        3.801    -0.068    21.798     6.647
    12   6 C        3.739    -0.015    20.919     6.526
    13   7 N        2.818    -0.028    21.780     6.931
    14   6 C        3.089     0.039    27.020     8.520
    15   6 C        2.911    -0.037    28.919     8.818
    16   6 C        2.926    -0.024    28.608     8.771
    17   6 C        2.926    -0.023    28.591     8.769
    18   6 C        2.910    -0.037    28.922     8.819
    19   6 C        3.087     0.037    27.077     8.530
    20   7 N        2.821    -0.029    21.802     6.935
    21   6 C        3.000     0.196    23.827     8.007
    22   7 N        2.637    -0.250    26.512     7.647
    23   6 C        3.745    -0.018    20.967     6.532
    24   6 C        2.970    -0.008    28.213     8.713
    25   6 C        2.922    -0.045    29.115     8.849
    26   6 C        2.918    -0.025    28.620     8.773
    27   6 C        2.920    -0.023    28.571     8.765
    28   6 C        2.919    -0.024    28.596     8.769
    29   6 C        2.922    -0.038    28.949     8.823
    30   1 H        0.925     0.033     2.539     2.492
    31   1 H        0.925     0.034     2.536     2.490
    32   1 H        0.925     0.035     2.514     2.479
    33   1 H        0.924     0.029     2.594     2.519
    34   1 H        0.924     0.029     2.601     2.522
    35   1 H        0.924     0.027     2.624     2.533
    36   1 H        0.924     0.031     2.572     2.508
    37   1 H        0.924     0.026     2.637     2.539
    38   1 H        0.924     0.034     2.524     2.484
    39   1 H        0.924     0.024     2.676     2.558
    40   1 H        0.924     0.036     2.509     2.477
    41   1 H        0.924     0.023     2.685     2.563
    42   1 H        0.924     0.038     2.481     2.463
    43   1 H        0.924     0.024     2.671     2.556
    44   1 H        0.924     0.040     2.449     2.447
    45   1 H        0.924     0.025     2.662     2.551
    46   1 H        0.924     0.044     2.399     2.422
    47   1 H        0.924     0.021     2.723     2.581
    48   1 H        0.925     0.047     2.355     2.400
    49   1 H        0.924     0.028     2.612     2.527
    50   1 H        0.925     0.054     2.269     2.355
    51   1 H        0.924     0.034     2.536     2.490
    52   1 H        0.925     0.066     2.133     2.284
    53   1 H        0.924     0.060     2.202     2.321
    54   1 H        0.925     0.087     1.904     2.158
    55   1 H        0.926     0.068     2.112     2.272
    56   1 H        0.926     0.072     2.063     2.246
    57   1 H        0.926     0.072     2.063     2.246
    58   1 H        0.926     0.062     2.180     2.309
    59   1 H        0.860     0.216     1.027     1.587
    60   1 H        0.860     0.223     0.996     1.563
    61   1 H        0.924     0.071     2.076     2.253
    62   1 H        0.924     0.089     1.887     2.148
    63   1 H        0.926     0.041     2.431     2.438
    64   1 H        0.926     0.056     2.246     2.344
    65   1 H        0.926     0.058     2.224     2.332
    66   1 H        0.926     0.054     2.270     2.356
    67   1 H        0.926     0.037     2.494     2.470

Wiberg/Mayer (AO) data.
largest (>0.10) Wiberg bond orders for each atom

     #   Z sym  total        # sym  WBO       # sym  WBO       # sym  WBO
 ---------------------------------------------------------------------------
     1   6 C    3.997 --     2 C    1.020    32 H    0.988    31 H    0.987
                            30 H    0.986
     2   6 C    3.998 --     1 C    1.020     3 C    1.008    34 H    0.978
                            33 H    0.976
     3   6 C    3.997 --     2 C    1.008     4 C    1.008    36 H    0.977
                            35 H    0.976
     4   6 C    3.997 --     5 C    1.008     3 C    1.008    37 H    0.975
                            38 H    0.975
     5   6 C    3.997 --     4 C    1.008     6 C    1.008    39 H    0.975
                            40 H    0.974
     6   6 C    3.997 --     5 C    1.008     7 C    1.007    41 H    0.975
                            42 H    0.974
     7   6 C    3.997 --     8 C    1.008     6 C    1.007    43 H    0.974
                            44 H    0.974
     8   6 C    3.996 --     7 C    1.008     9 C    1.007    45 H    0.973
                            46 H    0.973
     9   6 C    3.996 --    10 C    1.008     8 C    1.007    48 H    0.972
                            47 H    0.971
    10   6 C    3.993 --     9 C    1.008    11 C    1.007    49 H    0.976
                            50 H    0.970
    11   6 C    3.988 --    10 C    1.007    12 C    0.991    51 H    0.976
                            52 H    0.966
    12   6 C    3.945 --    11 C    0.991    13 N    0.968    53 H    0.965
                            54 H    0.959
    13   7 N    3.601 --    21 C    1.269    14 C    1.089    12 C    0.968
    14   6 C    3.950 --    15 C    1.365    19 C    1.285    13 N    1.089
    15   6 C    3.986 --    16 C    1.465    14 C    1.365    55 H    0.961
                            18 C    0.114
    16   6 C    3.982 --    15 C    1.465    17 C    1.406    56 H    0.967
    17   6 C    3.981 --    18 C    1.465    16 C    1.406    57 H    0.967
    18   6 C    3.986 --    17 C    1.465    19 C    1.367    58 H    0.962
                            15 C    0.114
    19   6 C    3.949 --    18 C    1.367    14 C    1.285    20 N    1.089
    20   7 N    3.598 --    21 C    1.266    19 C    1.089    23 C    0.963
    21   6 C    3.972 --    13 N    1.269    22 N    1.268    20 N    1.266
    22   7 N    3.351 --    21 C    1.268    59 H    0.929    60 H    0.908
    23   6 C    3.947 --    24 C    0.993    20 N    0.963    61 H    0.960
                            62 H    0.954
    24   6 C    3.983 --    25 C    1.407    29 C    1.407    23 C    0.993
                            27 C    0.109
    25   6 C    3.990 --    26 C    1.436    24 C    1.407    63 H    0.967
                            28 C    0.109
    26   6 C    3.990 --    27 C    1.443    25 C    1.436    64 H    0.969
                            29 C    0.112
    27   6 C    3.989 --    26 C    1.443    28 C    1.434    65 H    0.969
                            24 C    0.109
    28   6 C    3.991 --    29 C    1.449    27 C    1.434    66 H    0.969
                            25 C    0.109
    29   6 C    3.992 --    28 C    1.449    24 C    1.407    67 H    0.969
                            26 C    0.112
    30   1 H    0.999 --     1 C    0.986
    31   1 H    0.999 --     1 C    0.987
    32   1 H    0.999 --     1 C    0.988
    33   1 H    0.999 --     2 C    0.976
    34   1 H    0.999 --     2 C    0.978
    35   1 H    0.999 --     3 C    0.976
    36   1 H    0.999 --     3 C    0.977
    37   1 H    0.999 --     4 C    0.975
    38   1 H    0.999 --     4 C    0.975
    39   1 H    0.999 --     5 C    0.975
    40   1 H    0.999 --     5 C    0.974
    41   1 H    0.999 --     6 C    0.975
    42   1 H    0.999 --     6 C    0.974
    43   1 H    0.999 --     7 C    0.974
    44   1 H    0.998 --     7 C    0.974
    45   1 H    0.999 --     8 C    0.973
    46   1 H    0.998 --     8 C    0.973
    47   1 H    1.000 --     9 C    0.971
    48   1 H    0.998 --     9 C    0.972
    49   1 H    0.999 --    10 C    0.976
    50   1 H    0.997 --    10 C    0.970
    51   1 H    0.999 --    11 C    0.976
    52   1 H    0.995 --    11 C    0.966
    53   1 H    0.996 --    12 C    0.965
    54   1 H    0.992 --    12 C    0.959
    55   1 H    0.995 --    15 C    0.961
    56   1 H    0.994 --    16 C    0.967
    57   1 H    0.994 --    17 C    0.967
    58   1 H    0.996 --    18 C    0.962
    59   1 H    0.953 --    22 N    0.929
    60   1 H    0.950 --    22 N    0.908
    61   1 H    0.994 --    23 C    0.960
    62   1 H    0.992 --    23 C    0.954
    63   1 H    0.998 --    25 C    0.967
    64   1 H    0.997 --    26 C    0.969
    65   1 H    0.996 --    27 C    0.969
    66   1 H    0.997 --    28 C    0.969
    67   1 H    0.999 --    29 C    0.969
 ---------------------------------------------------------------------------

molecular dipole:
                 x           y           z       tot (Debye)
 q only:      -11.247     -17.468       0.974
   full:      -11.246     -17.717       0.902      53.386

           -------------------------------------------------
          | TOTAL ENERGY              -83.509525174981 Eh   |
          | GRADIENT NORM               0.000196690244 Eh/α |
          | HOMO-LUMO GAP               2.395543870216 eV   |
           -------------------------------------------------

 * finished run on 2024/12/20 at 06:42:46.501
