   * xtb version 6.7.1 (edcfbbe) compiled by 'conda@3ef47c1a292c' on 2024-11-25

   ID    Z sym.   atoms
    1    8 O      1, 3
    2    7 N      2, 10, 20
    3    6 C      4-9, 11-19, 21-28
    4    1 H      29-50

          program call               : xtb C0383.xyz --opt --namespace C0383 --charge +1
          :  Hamiltonian                  GFN2-xTB          :
 * total energy  :   -76.8982472 Eh     change       -0.7807444E-09 Eh
 * total energy  :   -76.9081566 Eh     change       -0.9909450E-02 Eh
 * total energy  :   -76.9098587 Eh     change       -0.1702088E-02 Eh
 * total energy  :   -76.9101732 Eh     change       -0.3144268E-03 Eh
 * total energy  :   -76.9108784 Eh     change       -0.7052516E-03 Eh
 * total energy  :   -76.9112124 Eh     change       -0.3339849E-03 Eh
 * total energy  :   -76.9115643 Eh     change       -0.3519363E-03 Eh
 * total energy  :   -76.9119634 Eh     change       -0.3990443E-03 Eh
 * total energy  :   -76.9124280 Eh     change       -0.4646653E-03 Eh
 * total energy  :   -76.9128904 Eh     change       -0.4623859E-03 Eh
 * total energy  :   -76.9176494 Eh     change       -0.1508853E-04 Eh
 * total energy  :   -76.9176630 Eh     change       -0.1353568E-04 Eh
 * total energy  :   -76.9176772 Eh     change       -0.1420133E-04 Eh
 * total energy  :   -76.9176947 Eh     change       -0.1752866E-04 Eh
 * total energy  :   -76.9177154 Eh     change       -0.2073538E-04 Eh
 * total energy  :   -76.9177346 Eh     change       -0.1917598E-04 Eh
 * total energy  :   -76.9177493 Eh     change       -0.1467707E-04 Eh
 * total energy  :   -76.9177611 Eh     change       -0.1178670E-04 Eh
 * total energy  :   -76.9177657 Eh     change       -0.4633400E-05 Eh
   *** GEOMETRY OPTIMIZATION CONVERGED AFTER 68 ITERATIONS ***

 final structure:
================
50
 xtb: 6.7.1 (edcfbbe)
O            2.02302964222809        0.34362716297421       -0.60095357476692
N            1.93636137264342       -0.29248993962459        0.42016278759063
O            1.31043019372312       -1.30850571017139        0.57745226456901
C            2.67385396870962        0.21756996026138        1.57335281846647
C            2.53277584888771       -0.43070402488417        2.80625245458411
C            3.21383161133898        0.01323454411824        3.91756654591132
C            4.05765097981602        1.10931536065595        3.75081155622859
C            4.20870278584220        1.73807569105872        2.49545752519922
C            3.49329924212797        1.31317925783144        1.38593091835931
N            5.12877572889160        2.74925813661367        2.66496441702459
C            5.68852275149584        3.57246401876083        1.61968313969542
C            6.82880899379165        2.83187857086410        0.89453402868891
C            6.31714337436404        1.62561965407672        0.15415070721736
C            6.36774217709398        0.36313434976012        0.73126176095339
C            5.84131123841338       -0.73483845622596        0.07202645076074
C            5.25656817625437       -0.58045697659130       -1.17326133687851
C            5.21009232556001        0.67282982385744       -1.76222196606149
C            5.73609334878915        1.76902308154537       -1.10150366911447
C            5.50516973664183        2.73745730219604        3.93869469531956
N            4.87445330203307        1.78718415613847        4.62629896356258
C            5.12016121878291        1.46848198047124        6.01309351324355
C            6.37640900889314        0.58885625786230        6.14354991540517
C            7.56747222172902        1.28217695387154        5.54074026984732
C            8.14945133118315        2.36905915234460        6.18553556098192
C            9.21292818695646        3.03975752713135        5.60848236601194
C            9.70738112388200        2.63295425681660        4.37894149267636
C            9.14116474727688        1.54630005491780        3.73440819685006
C            8.07323005568898        0.87867058199878        4.31162640154328
H            1.87384813471764       -1.28439754889895        2.86148620456239
H            3.09853057873567       -0.47738140031773        4.86973165200732
H            3.56450551016361        1.77449722084039        0.41381611739515
H            4.89567366230356        3.82066280742082        0.91165295381888
H            6.06741490492691        4.49114604537132        2.07109552371539
H            7.28107898805637        3.53384210892785        0.19360145928461
H            7.58429477823340        2.54038970792003        1.62710149920841
H            6.83656266069485        0.23638897238140        1.69688021676197
H            5.89285276601580       -1.71158478142914        0.52923643412311
H            4.84546170062315       -1.43418730367910       -1.68837366246085
H            4.76157442056200        0.79497861695839       -2.73503475857716
H            5.70355229123906        2.74359937350563       -1.56685092857829
H            6.21663119234364        3.41908108583979        4.36696735718150
H            5.26493647359739        2.40234421607469        6.56004431847626
H            4.24590020644439        0.95503313910790        6.41410468886756
H            6.54426027978171        0.39920097915193        7.20394365897651
H            6.20617625645066       -0.36759546078553        5.64690342254480
H            7.77940663541256        2.67896614474530        7.15223410743908
H            9.66391713035294        3.87411818963135        6.12282729249972
H           10.54235710793120        3.15113096833511        3.93414225677015
H            9.54011971842809        1.20851984535289        2.78939700752976
H            7.64772990998259        0.01438434486544        3.82016497450493

          :  Hamiltonian                  GFN2-xTB          :
         :: total energy             -76.917765720682 Eh    ::
         :: gradient norm              0.000226924131 Eh/a0 ::
         :: HOMO-LUMO gap              1.791363335687 eV    ::
         :: SCC energy               -78.141891871216 Eh    ::
         :: -> dispersion             -0.064708411716 Eh    ::
         :: repulsion energy           1.224126150534 Eh    ::

    * Orbital Energies and Occupations

         #    Occupation            Energy/Eh            Energy/eV
      -------------------------------------------------------------
         1        2.0000           -0.8946251             -24.3440
       ...           ...                  ...                  ...
        58        2.0000           -0.5772197             -15.7069
        59        2.0000           -0.5764990             -15.6873
        60        2.0000           -0.5625951             -15.3090
        61        2.0000           -0.5591322             -15.2148
        62        2.0000           -0.5486576             -14.9297
        63        2.0000           -0.5415073             -14.7352
        64        2.0000           -0.5375790             -14.6283
        65        2.0000           -0.5297933             -14.4164
        66        2.0000           -0.5263118             -14.3217
        67        2.0000           -0.5223059             -14.2127
        68        2.0000           -0.5190785             -14.1248
        69        2.0000           -0.5106769             -13.8962
        70        2.0000           -0.5072855             -13.8039 (HOMO)
        71                         -0.4414541             -12.0126 (LUMO)
        72                         -0.4197835             -11.4229
        73                         -0.3775789             -10.2744
        74                         -0.3605039              -9.8098
        75                         -0.3429514              -9.3322
        76                         -0.3413602              -9.2889
        77                         -0.3318645              -9.0305
        78                         -0.3292075              -8.9582
        79                         -0.2551194              -6.9422
        80                         -0.2142996              -5.8314
        81                         -0.2024243              -5.5082
       ...                                ...                  ...
       134                          0.5584617              15.1965
      -------------------------------------------------------------
                  HL-Gap            0.0658314 Eh            1.7914 eV

     #   Z          covCN         q      C6AA      α(0)
     1   8 O        0.930    -0.361    20.878     6.128
     2   7 N        2.758     0.560    13.377     5.432
     3   8 O        0.929    -0.346    20.590     6.085
     4   6 C        2.923     0.010    27.802     8.647
     5   6 C        2.924    -0.017    28.438     8.745
     6   6 C        2.910    -0.028    28.707     8.786
     7   6 C        3.117     0.046    26.805     8.480
     8   6 C        3.131     0.048    26.724     8.463
     9   6 C        2.909    -0.025    28.620     8.772
    10   7 N        2.823     0.045    20.462     6.718
    11   6 C        3.742    -0.021    21.028     6.542
    12   6 C        3.808    -0.074    21.911     6.663
    13   6 C        2.970     0.001    28.005     8.680
    14   6 C        2.924    -0.045    29.130     8.851
    15   6 C        2.918    -0.033    28.825     8.804
    16   6 C        2.920    -0.026    28.641     8.776
    17   6 C        2.918    -0.021    28.534     8.760
    18   6 C        2.924    -0.039    28.976     8.828
    19   6 C        3.081     0.068    26.397     8.423
    20   7 N        2.827     0.042    20.514     6.727
    21   6 C        3.744    -0.021    21.012     6.539
    22   6 C        3.809    -0.075    21.919     6.664
    23   6 C        2.971     0.000    28.025     8.684
    24   6 C        2.924    -0.042    29.054     8.839
    25   6 C        2.918    -0.027    28.679     8.782
    26   6 C        2.920    -0.028    28.698     8.785
    27   6 C        2.918    -0.030    28.760     8.794
    28   6 C        2.924    -0.043    29.064     8.841
    29   1 H        0.926     0.117     1.634     1.999
    30   1 H        0.926     0.087     1.905     2.158
    31   1 H        0.926     0.112     1.677     2.025
    32   1 H        0.924     0.093     1.853     2.129
    33   1 H        0.924     0.081     1.971     2.195
    34   1 H        0.924     0.079     1.994     2.208
    35   1 H        0.924     0.056     2.251     2.346
    36   1 H        0.926     0.019     2.742     2.590
    37   1 H        0.926     0.040     2.452     2.449
    38   1 H        0.926     0.054     2.265     2.353
    39   1 H        0.926     0.060     2.201     2.320
    40   1 H        0.926     0.042     2.418     2.432
    41   1 H        0.926     0.112     1.676     2.024
    42   1 H        0.924     0.085     1.931     2.173
    43   1 H        0.924     0.088     1.897     2.154
    44   1 H        0.924     0.081     1.974     2.197
    45   1 H        0.924     0.060     2.202     2.321
    46   1 H        0.926     0.041     2.439     2.442
    47   1 H        0.926     0.052     2.298     2.371
    48   1 H        0.926     0.052     2.297     2.370
    49   1 H        0.926     0.045     2.379     2.412
    50   1 H        0.925     0.028     2.613     2.528

Wiberg/Mayer (AO) data.
largest (>0.10) Wiberg bond orders for each atom

     #   Z sym  total        # sym  WBO       # sym  WBO       # sym  WBO
 ---------------------------------------------------------------------------
     1   8 O    1.960 --     2 N    1.467     3 O    0.384
     2   7 N    3.919 --     3 O    1.479     1 O    1.467     4 C    0.937
     3   8 O    1.972 --     2 N    1.479     1 O    0.384
     4   6 C    3.971 --     9 C    1.448     5 C    1.340     2 N    0.937
     5   6 C    3.976 --     6 C    1.503     4 C    1.340    29 H    0.953
     6   6 C    3.984 --     5 C    1.503     7 C    1.330    30 H    0.960
                             9 C    0.116
     7   6 C    3.958 --     6 C    1.330     8 C    1.265    20 N    1.145
     8   6 C    3.960 --     9 C    1.344     7 C    1.265    10 N    1.136
     9   6 C    3.978 --     4 C    1.448     8 C    1.344    31 H    0.946
                             6 C    0.116
    10   7 N    3.690 --    19 C    1.372     8 C    1.136    11 C    0.970
    11   6 C    3.936 --    10 N    0.970    33 H    0.966    12 C    0.966
                            32 H    0.962
    12   6 C    3.980 --    13 C    1.010    35 H    0.970    11 C    0.966
                            34 H    0.962
    13   6 C    3.987 --    14 C    1.412    18 C    1.406    12 C    1.010
                            16 C    0.109
    14   6 C    3.991 --    15 C    1.439    13 C    1.412    36 H    0.965
                            17 C    0.110
    15   6 C    3.992 --    16 C    1.443    14 C    1.439    37 H    0.970
                            18 C    0.111
    16   6 C    3.988 --    15 C    1.443    17 C    1.433    38 H    0.969
                            13 C    0.109
    17   6 C    3.989 --    18 C    1.448    16 C    1.433    39 H    0.969
                            14 C    0.110
    18   6 C    3.991 --    17 C    1.448    13 C    1.406    40 H    0.968
                            15 C    0.111
    19   6 C    3.948 --    10 N    1.372    20 N    1.356    41 H    0.951
    20   7 N    3.684 --    19 C    1.356     7 C    1.145    21 C    0.970
    21   6 C    3.938 --    20 N    0.970    22 C    0.968    43 H    0.964
                            42 H    0.964
    22   6 C    3.982 --    23 C    1.011    45 H    0.973    21 C    0.968
                            44 H    0.959
    23   6 C    3.987 --    28 C    1.413    24 C    1.404    22 C    1.011
                            26 C    0.108
    24   6 C    3.991 --    25 C    1.451    23 C    1.404    46 H    0.968
                            27 C    0.112
    25   6 C    3.990 --    24 C    1.451    26 C    1.432    47 H    0.969
                            28 C    0.109
    26   6 C    3.990 --    27 C    1.443    25 C    1.432    48 H    0.970
                            23 C    0.108
    27   6 C    3.991 --    26 C    1.443    28 C    1.437    49 H    0.969
                            24 C    0.112
    28   6 C    3.990 --    27 C    1.437    23 C    1.413    50 H    0.965
                            25 C    0.109
    29   1 H    0.986 --     5 C    0.953
    30   1 H    0.991 --     6 C    0.960
    31   1 H    0.987 --     9 C    0.946
    32   1 H    0.991 --    11 C    0.962
    33   1 H    0.992 --    11 C    0.966
    34   1 H    0.992 --    12 C    0.962
    35   1 H    0.997 --    12 C    0.970
    36   1 H    1.000 --    14 C    0.965
    37   1 H    0.998 --    15 C    0.970
    38   1 H    0.996 --    16 C    0.969
    39   1 H    0.996 --    17 C    0.969
    40   1 H    0.998 --    18 C    0.968
    41   1 H    0.986 --    19 C    0.951
    42   1 H    0.992 --    21 C    0.964
    43   1 H    0.991 --    21 C    0.964
    44   1 H    0.992 --    22 C    0.959
    45   1 H    0.996 --    22 C    0.973
    46   1 H    0.998 --    24 C    0.968
    47   1 H    0.997 --    25 C    0.969
    48   1 H    0.997 --    26 C    0.970
    49   1 H    0.998 --    27 C    0.969
    50   1 H    0.999 --    28 C    0.965
 ---------------------------------------------------------------------------

molecular dipole:
                 x           y           z       tot (Debye)
 q only:       10.712       4.295       7.515
   full:       10.877       4.454       7.732      35.760

           -------------------------------------------------
          | TOTAL ENERGY              -76.917765720682 Eh   |
          | GRADIENT NORM               0.000226924131 Eh/α |
          | HOMO-LUMO GAP               1.791363335687 eV   |
           -------------------------------------------------

 * finished run on 2024/12/20 at 06:42:50.680
