   * xtb version 6.7.1 (edcfbbe) compiled by 'conda@3ef47c1a292c' on 2024-11-25

   ID    Z sym.   atoms
    1    8 O      1
    2    6 C      2-9, 11-21
    3    7 N      10
    4    1 H      22-45

          program call               : xtb C0385.xyz --opt --namespace C0385 --charge +1
          :  Hamiltonian                  GFN2-xTB          :
 * total energy  :   -59.4671111 Eh     change       -0.3647060E-08 Eh
 * total energy  :   -59.4768995 Eh     change       -0.9788349E-02 Eh
 * total energy  :   -59.4798377 Eh     change       -0.2938257E-02 Eh
 * total energy  :   -59.4803560 Eh     change       -0.5182649E-03 Eh
 * total energy  :   -59.4807830 Eh     change       -0.4270249E-03 Eh
 * total energy  :   -59.4810021 Eh     change       -0.2190651E-03 Eh
 * total energy  :   -59.4813034 Eh     change       -0.3012870E-03 Eh
 * total energy  :   -59.4816867 Eh     change       -0.3833543E-03 Eh
 * total energy  :   -59.4820829 Eh     change       -0.3961871E-03 Eh
 * total energy  :   -59.4824503 Eh     change       -0.3673710E-03 Eh
 * total energy  :   -59.4836597 Eh     change       -0.8239486E-05 Eh
 * total energy  :   -59.4836674 Eh     change       -0.7779549E-05 Eh
 * total energy  :   -59.4836749 Eh     change       -0.7466467E-05 Eh
 * total energy  :   -59.4836821 Eh     change       -0.7226535E-05 Eh
 * total energy  :   -59.4836891 Eh     change       -0.6958387E-05 Eh
 * total energy  :   -59.4836956 Eh     change       -0.6542587E-05 Eh
 * total energy  :   -59.4837015 Eh     change       -0.5916130E-05 Eh
 * total energy  :   -59.4837067 Eh     change       -0.5125165E-05 Eh
 * total energy  :   -59.4837079 Eh     change       -0.1184668E-05 Eh
   *** GEOMETRY OPTIMIZATION CONVERGED AFTER 44 ITERATIONS ***

 final structure:
================
45
 xtb: 6.7.1 (edcfbbe)
O            1.99854177081126       -0.54365098208386        1.99641613329797
C            2.79346983865539       -0.25710961507239        1.12858866384554
C            3.17689314956913        1.11954292351804        0.81179940027817
C            4.09442702723776        1.47441515648211       -0.18458773440353
C            4.39678052196806        2.80369750885593       -0.40234478700388
C            3.79728214802285        3.79689644135816        0.36018197063636
C            2.88628954028408        3.45832371414097        1.34912047005447
C            2.57825424215263        2.13241948302837        1.57348223887329
C            3.47542501771427       -1.35403588766926        0.28526572994726
N            3.08821630764562       -2.75219842338380        0.60668021739899
C            1.61488544245834       -2.98672080039510        0.45507288853648
C            0.97016292043391       -2.72795960441841       -0.90766459553335
C            1.11671301341460       -3.83844807058657       -1.96387593444885
C            0.96574620613406       -5.23006977853438       -1.40629259325850
C           -0.16550932278030       -5.58636120917793       -0.67922263369018
C           -0.30012237780059       -6.86451591737528       -0.16698027727207
C            0.69218242379249       -7.80782704908688       -0.37732026155724
C            1.81486862064026       -7.46848925078971       -1.11187263495928
C            1.95015142341239       -6.18742264183474       -1.62039332740522
C            3.85899708155807       -3.65547037012339       -0.26694258152362
C            3.44550756563936       -3.06040584113673        2.00826569724595
H            4.57951396531082        0.72868323715588       -0.79511516846412
H            5.10519550882340        3.07049174445297       -1.17125572022219
H            4.04258502380923        4.83220039338767        0.18141217813527
H            2.41932910348354        4.22776789508784        1.94340808598055
H            1.87255224171444        1.84922322308969        2.33953913526908
H            3.25084179479524       -1.16225286965979       -0.76553776053255
H            4.55511137747596       -1.26084924763880        0.42735048793917
H            1.42604535535043       -4.02691848381301        0.73086103848318
H            1.13005709542754       -2.34170452714678        1.18964622383424
H           -0.09384401542765       -2.61568065466528       -0.69238523882063
H            1.29313234218570       -1.77709964074251       -1.33249450824691
H            0.33588535579207       -3.67582760317089       -2.71095710299955
H            2.06758591001672       -3.76288264669081       -2.49349627592630
H           -0.95405942981653       -4.86480747915790       -0.52434113193651
H           -1.18592988087041       -7.12698298640302        0.39057026699401
H            0.58468366677424       -8.80550595958290        0.01829955663029
H            2.58537419006867       -8.20157464492769       -1.29591827941482
H            2.82064707219075       -5.94059484394615       -2.21340159585174
H            4.91737178082445       -3.60875602214455       -0.01442259468992
H            3.50954600226262       -4.67921875273514       -0.14137067381862
H            3.73804325233427       -3.37225671039023       -1.30887164360916
H            4.50681781576176       -2.88134451915619        2.17181502643575
H            2.87264409854607       -2.43214711763284        2.68776144131744
H            3.22772781217222       -4.10469156927139        2.22244820443802

          :  Hamiltonian                  GFN2-xTB          :
         :: total energy             -59.483707859372 Eh    ::
         :: gradient norm              0.000122532306 Eh/a0 ::
         :: HOMO-LUMO gap              2.217023066166 eV    ::
         :: SCC energy               -60.456514340657 Eh    ::
         :: -> dispersion             -0.044454854351 Eh    ::
         :: repulsion energy           0.972806481285 Eh    ::

    * Orbital Energies and Occupations

         #    Occupation            Energy/Eh            Energy/eV
      -------------------------------------------------------------
         1        2.0000           -0.8573278             -23.3291
       ...           ...                  ...                  ...
        43        2.0000           -0.5721906             -15.5701
        44        2.0000           -0.5687816             -15.4773
        45        2.0000           -0.5651669             -15.3790
        46        2.0000           -0.5577207             -15.1764
        47        2.0000           -0.5548431             -15.0981
        48        2.0000           -0.5395009             -14.6806
        49        2.0000           -0.5312852             -14.4570
        50        2.0000           -0.5307121             -14.4414
        51        2.0000           -0.5268676             -14.3368
        52        2.0000           -0.5193799             -14.1330
        53        2.0000           -0.5157597             -14.0345
        54        2.0000           -0.5006262             -13.6227
        55        2.0000           -0.4953573             -13.4794 (HOMO)
        56                         -0.4138832             -11.2623 (LUMO)
        57                         -0.3433596              -9.3433
        58                         -0.3205016              -8.7213
        59                         -0.3193469              -8.6899
        60                         -0.3169510              -8.6247
        61                         -0.2226629              -6.0590
        62                         -0.2066406              -5.6230
        63                         -0.1912041              -5.2029
        64                         -0.1638366              -4.4582
        65                         -0.1407256              -3.8293
        66                         -0.1347884              -3.6678
       ...                                ...                  ...
       108                          0.5669970              15.4288
      -------------------------------------------------------------
                  HL-Gap            0.0814741 Eh            2.2170 eV

     #   Z          covCN         q      C6AA      α(0)
     1   8 O        0.857    -0.364    20.968     6.139
     2   6 C        2.820     0.227    23.235     7.898
     3   6 C        2.970    -0.021    28.535     8.762
     4   6 C        2.918    -0.029    28.729     8.789
     5   6 C        2.917    -0.019    28.493     8.753
     6   6 C        2.920    -0.006    28.175     8.704
     7   6 C        2.915    -0.017    28.437     8.745
     8   6 C        2.928    -0.009    28.243     8.715
     9   6 C        3.763    -0.059    21.688     6.638
    10   7 N        3.621     0.140    18.868     6.451
    11   6 C        3.757    -0.046    21.458     6.604
    12   6 C        3.799    -0.068    21.810     6.649
    13   6 C        3.805    -0.074    21.910     6.664
    14   6 C        2.967     0.001    27.997     8.679
    15   6 C        2.924    -0.043    29.061     8.840
    16   6 C        2.919    -0.028    28.690     8.784
    17   6 C        2.920    -0.028    28.701     8.785
    18   6 C        2.919    -0.030    28.744     8.792
    19   6 C        2.924    -0.048    29.189     8.860
    20   6 C        3.725    -0.095    22.431     6.763
    21   6 C        3.727    -0.097    22.455     6.766
    22   1 H        0.926     0.037     2.491     2.468
    23   1 H        0.926     0.061     2.187     2.312
    24   1 H        0.926     0.068     2.104     2.268
    25   1 H        0.926     0.067     2.115     2.274
    26   1 H        0.926     0.077     2.014     2.219
    27   1 H        0.924     0.098     1.800     2.098
    28   1 H        0.924     0.095     1.828     2.114
    29   1 H        0.924     0.087     1.905     2.158
    30   1 H        0.924     0.109     1.709     2.044
    31   1 H        0.924     0.075     2.030     2.228
    32   1 H        0.924     0.047     2.360     2.402
    33   1 H        0.924     0.065     2.142     2.289
    34   1 H        0.924     0.037     2.487     2.466
    35   1 H        0.926     0.036     2.509     2.477
    36   1 H        0.926     0.046     2.376     2.411
    37   1 H        0.926     0.047     2.360     2.402
    38   1 H        0.926     0.042     2.419     2.432
    39   1 H        0.925     0.026     2.646     2.544
    40   1 H        0.925     0.089     1.886     2.148
    41   1 H        0.925     0.104     1.748     2.067
    42   1 H        0.925     0.097     1.809     2.103
    43   1 H        0.925     0.089     1.891     2.150
    44   1 H        0.925     0.121     1.605     1.981
    45   1 H        0.925     0.094     1.841     2.122

Wiberg/Mayer (AO) data.
largest (>0.10) Wiberg bond orders for each atom

     #   Z sym  total        # sym  WBO       # sym  WBO       # sym  WBO
 ---------------------------------------------------------------------------
     1   8 O    2.082 --     2 C    1.791
     2   6 C    3.935 --     1 O    1.791     3 C    1.079     9 C    0.956
     3   6 C    3.984 --     4 C    1.352     8 C    1.350     2 C    1.079
     4   6 C    3.992 --     5 C    1.475     3 C    1.352    22 H    0.967
                             7 C    0.102
     5   6 C    3.990 --     4 C    1.475     6 C    1.415    23 H    0.968
     6   6 C    3.985 --     7 C    1.428     5 C    1.415    24 H    0.968
     7   6 C    3.989 --     8 C    1.463     6 C    1.428    25 H    0.967
                             4 C    0.102
     8   6 C    3.984 --     7 C    1.463     3 C    1.350    26 H    0.964
     9   6 C    3.941 --     2 C    0.956    28 H    0.951    10 N    0.947
                            27 H    0.947
    10   7 N    3.813 --    20 C    0.958    21 C    0.955     9 C    0.947
                            11 C    0.917
    11   6 C    3.919 --    12 C    1.009    29 H    0.960    30 H    0.956
                            10 N    0.917
    12   6 C    3.986 --    11 C    1.009    13 C    0.994    32 H    0.969
                            31 H    0.965
    13   6 C    3.992 --    14 C    1.009    12 C    0.994    34 H    0.971
                            33 H    0.960
    14   6 C    3.988 --    19 C    1.415    15 C    1.406    13 C    1.009
                            17 C    0.110
    15   6 C    3.992 --    16 C    1.448    14 C    1.406    35 H    0.968
                            18 C    0.112
    16   6 C    3.992 --    15 C    1.448    17 C    1.435    36 H    0.970
                            19 C    0.110
    17   6 C    3.991 --    18 C    1.443    16 C    1.435    37 H    0.970
                            14 C    0.110
    18   6 C    3.992 --    17 C    1.443    19 C    1.439    38 H    0.970
                            15 C    0.112
    19   6 C    3.991 --    18 C    1.439    14 C    1.415    39 H    0.967
                            16 C    0.110
    20   6 C    3.929 --    40 H    0.976    42 H    0.969    41 H    0.969
                            10 N    0.958
    21   6 C    3.922 --    43 H    0.976    45 H    0.976    44 H    0.965
                            10 N    0.955
    22   1 H    0.999 --     4 C    0.967
    23   1 H    0.996 --     5 C    0.968
    24   1 H    0.995 --     6 C    0.968
    25   1 H    0.995 --     7 C    0.967
    26   1 H    0.994 --     8 C    0.964
    27   1 H    0.990 --     9 C    0.947
    28   1 H    0.991 --     9 C    0.951
    29   1 H    0.992 --    11 C    0.960
    30   1 H    0.988 --    11 C    0.956
    31   1 H    0.994 --    12 C    0.965
    32   1 H    0.997 --    12 C    0.969
    33   1 H    0.995 --    13 C    0.960
    34   1 H    0.998 --    13 C    0.971
    35   1 H    0.999 --    15 C    0.968
    36   1 H    0.998 --    16 C    0.970
    37   1 H    0.997 --    17 C    0.970
    38   1 H    0.998 --    18 C    0.970
    39   1 H    0.999 --    19 C    0.967
    40   1 H    0.992 --    20 C    0.976
    41   1 H    0.989 --    20 C    0.969
    42   1 H    0.990 --    20 C    0.969
    43   1 H    0.992 --    21 C    0.976
    44   1 H    0.985 --    21 C    0.965
    45   1 H    0.991 --    21 C    0.976
 ---------------------------------------------------------------------------

molecular dipole:
                 x           y           z       tot (Debye)
 q only:        6.132      -3.753       0.365
   full:        6.300      -3.788       0.164      18.690

           -------------------------------------------------
          | TOTAL ENERGY              -59.483707859372 Eh   |
          | GRADIENT NORM               0.000122532306 Eh/α |
          | HOMO-LUMO GAP               2.217023066166 eV   |
           -------------------------------------------------

 * finished run on 2024/12/20 at 06:42:54.129
