   * xtb version 6.7.1 (edcfbbe) compiled by 'conda@3ef47c1a292c' on 2024-11-25

   ID    Z sym.   atoms
    1   35 Br     1
    2    6 C      2-8, 10, 12, 13, 15-24
    3    8 O      9
    4    7 N      11, 14
    5    1 H      25-44

          program call               : xtb C0386.xyz --opt --namespace C0386 --charge +1
          :  Hamiltonian                  GFN2-xTB          :
 * total energy  :   -66.6235232 Eh     change       -0.2614556E-08 Eh
 * total energy  :   -66.6318812 Eh     change       -0.8357943E-02 Eh
 * total energy  :   -66.6337832 Eh     change       -0.1901997E-02 Eh
 * total energy  :   -66.6341495 Eh     change       -0.3662997E-03 Eh
 * total energy  :   -66.6344558 Eh     change       -0.3063536E-03 Eh
 * total energy  :   -66.6346957 Eh     change       -0.2399374E-03 Eh
 * total energy  :   -66.6349548 Eh     change       -0.2590091E-03 Eh
 * total energy  :   -66.6352328 Eh     change       -0.2780292E-03 Eh
 * total energy  :   -66.6354758 Eh     change       -0.2430548E-03 Eh
 * total energy  :   -66.6356776 Eh     change       -0.2017354E-03 Eh
 * total energy  :   -66.6409588 Eh     change       -0.1462080E-04 Eh
 * total energy  :   -66.6409698 Eh     change       -0.1090775E-04 Eh
 * total energy  :   -66.6409784 Eh     change       -0.8655614E-05 Eh
 * total energy  :   -66.6409849 Eh     change       -0.6539083E-05 Eh
 * total energy  :   -66.6409931 Eh     change       -0.8159810E-05 Eh
 * total energy  :   -66.6410009 Eh     change       -0.7815321E-05 Eh
 * total energy  :   -66.6410083 Eh     change       -0.7412989E-05 Eh
 * total energy  :   -66.6410148 Eh     change       -0.6461722E-05 Eh
 * total energy  :   -66.6410174 Eh     change       -0.2596195E-05 Eh
   *** GEOMETRY OPTIMIZATION CONVERGED AFTER 68 ITERATIONS ***

 final structure:
================
44
 xtb: 6.7.1 (edcfbbe)
Br          -0.82203532534880       -2.67836051203636       -2.59980015513670
C            0.64049909119938       -1.72201967629121       -1.86867597264705
C            0.54610015480330       -0.34722380449774       -1.68343947439250
C            1.61325382704274        0.33267993302104       -1.14008868109009
C            2.78564174124902       -0.33994462848074       -0.76815211761275
C            2.86609679153083       -1.72024275789772       -0.97822196932514
C            1.80138748814291       -2.40626708639541       -1.52330764651150
C            3.86161818410510        0.46989617699723       -0.18699145488754
O            3.84079847355617        1.67541380855379       -0.14872971918941
C            5.07292751877003       -0.27078380839328        0.43660237733456
N            4.69961554652125       -1.12773438833729        1.53338668728860
C            4.99710177346216       -2.45796311185165        1.63988136071173
C            4.47559723610143       -2.89306260848900        2.81311732496310
N            3.86199941400512       -1.82760030732164        3.40745939811412
C            4.01774625209352       -0.75209717336733        2.62610797269317
C            3.50385485575727        0.60649861770561        2.88610484472398
C            3.27661423413691       -1.87473739015979        4.72778678703075
C            4.37359278583835       -1.74980394578726        5.80108946619726
C            5.10893110888922       -0.44498128642467        5.65778426219342
C            6.22431637348647       -0.35041870259826        4.83386427434646
C            6.86266826214773        0.86501446834380        4.65303705194344
C            6.39144380027896        1.99857711323475        5.29314537305127
C            5.28474386603599        1.91189897160717        6.12196697385578
C            4.64476875460883        0.69751132695337        6.29958448514910
H           -0.35290286143637        0.17672113476089       -1.96699254372522
H            1.56522826193023        1.40081662338277       -0.99118434718218
H            3.76283209233539       -2.27124958241902       -0.74505501037584
H            1.86536523384620       -3.46986968580980       -1.69145698891597
H            5.57292296809384       -0.86679074590141       -0.32864061000621
H            5.76895687124776        0.49886437132597        0.78765609385254
H            5.56165558500999       -2.98622646448618        0.89929897236166
H            4.49135981533744       -3.86649835017835        3.25834242856160
H            4.10895516157188        1.35201818304066        2.37624057736686
H            2.48059649082210        0.70611400000186        2.51930902091903
H            3.51408520442582        0.82903384463745        3.95029314750755
H            2.55454095741568       -1.06375787462426        4.82747880243520
H            2.75429222874427       -2.82754357259087        4.83553969511340
H            3.89592284985898       -1.81051280545148        6.77861310282326
H            5.06828566767985       -2.58583279016547        5.70608317254109
H            6.61327835218512       -1.23758216789668        4.35155177028500
H            7.73601496960457        0.92416154782223        4.02126824352495
H            6.89269908255051        2.94395026017066        5.15798411674685
H            4.92300101603262        2.78911473098434        6.63527485890385
H            3.78633784437891        0.63141011520215        6.95246404836710

          :  Hamiltonian                  GFN2-xTB          :
         :: total energy             -66.641017394882 Eh    ::
         :: gradient norm              0.000178619634 Eh/a0 ::
         :: HOMO-LUMO gap              2.347660778967 eV    ::
         :: SCC energy               -67.686749462931 Eh    ::
         :: -> dispersion             -0.051662511056 Eh    ::
         :: repulsion energy           1.045732068049 Eh    ::

    * Orbital Energies and Occupations

         #    Occupation            Energy/Eh            Energy/eV
      -------------------------------------------------------------
         1        2.0000           -0.9319640             -25.3600
       ...           ...                  ...                  ...
        49        2.0000           -0.5783120             -15.7367
        50        2.0000           -0.5716476             -15.5553
        51        2.0000           -0.5682760             -15.4636
        52        2.0000           -0.5598703             -15.2348
        53        2.0000           -0.5571688             -15.1613
        54        2.0000           -0.5436073             -14.7923
        55        2.0000           -0.5332723             -14.5111
        56        2.0000           -0.5324040             -14.4874
        57        2.0000           -0.5297491             -14.4152
        58        2.0000           -0.5144624             -13.9992
        59        2.0000           -0.5105602             -13.8930
        60        2.0000           -0.5082951             -13.8314
        61        2.0000           -0.5049223             -13.7396 (HOMO)
        62                         -0.4186473             -11.3920 (LUMO)
        63                         -0.3946955             -10.7402
        64                         -0.3637955              -9.8994
        65                         -0.3600442              -9.7973
        66                         -0.3347988              -9.1103
        67                         -0.3336194              -9.0782
        68                         -0.3328025              -9.0560
        69                         -0.3007006              -8.1825
        70                         -0.2281648              -6.2087
        71                         -0.2057397              -5.5985
        72                         -0.1775211              -4.8306
       ...                                ...                  ...
       121                          0.5529167              15.0456
      -------------------------------------------------------------
                  HL-Gap            0.0862749 Eh            2.3477 eV

     #   Z          covCN         q      C6AA      α(0)
     1  35 Br       1.068    -0.099   187.739    22.092
     2   6 C        2.915     0.099    25.798     8.329
     3   6 C        2.986    -0.027    28.674     8.784
     4   6 C        2.929    -0.013    28.339     8.730
     5   6 C        2.968    -0.023    28.565     8.767
     6   6 C        2.920    -0.030    28.754     8.793
     7   6 C        2.991    -0.032    28.785     8.801
     8   6 C        2.819     0.224    23.300     7.909
     9   8 O        0.858    -0.327    20.274     6.037
    10   6 C        3.740    -0.049    21.535     6.621
    11   7 N        2.873     0.038    20.572     6.736
    12   6 C        3.044    -0.011    28.251     8.718
    13   6 C        3.050    -0.009    28.183     8.707
    14   7 N        2.873     0.042    20.509     6.726
    15   6 C        3.094     0.110    25.469     8.271
    16   6 C        3.754    -0.138    23.224     6.872
    17   6 C        3.744    -0.021    21.017     6.540
    18   6 C        3.808    -0.075    21.917     6.664
    19   6 C        2.971     0.001    27.993     8.679
    20   6 C        2.923    -0.045    29.113     8.848
    21   6 C        2.919    -0.030    28.754     8.793
    22   6 C        2.920    -0.027    28.664     8.780
    23   6 C        2.919    -0.026    28.650     8.777
    24   6 C        2.924    -0.041    29.027     8.835
    25   1 H        0.926     0.083     1.951     2.184
    26   1 H        0.926     0.086     1.914     2.164
    27   1 H        0.926     0.047     2.358     2.401
    28   1 H        0.926     0.075     2.034     2.230
    29   1 H        0.924     0.099     1.791     2.093
    30   1 H        0.924     0.103     1.755     2.072
    31   1 H        0.926     0.097     1.808     2.103
    32   1 H        0.926     0.103     1.762     2.075
    33   1 H        0.925     0.105     1.737     2.061
    34   1 H        0.924     0.098     1.802     2.099
    35   1 H        0.925     0.100     1.785     2.089
    36   1 H        0.924     0.082     1.956     2.187
    37   1 H        0.924     0.086     1.919     2.167
    38   1 H        0.925     0.076     2.022     2.224
    39   1 H        0.924     0.060     2.197     2.318
    40   1 H        0.925     0.020     2.734     2.586
    41   1 H        0.926     0.042     2.428     2.437
    42   1 H        0.926     0.052     2.295     2.369
    43   1 H        0.926     0.052     2.296     2.370
    44   1 H        0.926     0.041     2.438     2.442

Wiberg/Mayer (AO) data.
largest (>0.10) Wiberg bond orders for each atom

     #   Z sym  total        # sym  WBO       # sym  WBO       # sym  WBO
 ---------------------------------------------------------------------------
     1  35 Br   1.195 --     2 C    1.037
     2   6 C    3.949 --     3 C    1.383     7 C    1.378     1 Br   1.037
     3   6 C    3.986 --     4 C    1.474     2 C    1.383    25 H    0.963
     4   6 C    3.984 --     3 C    1.474     5 C    1.348    26 H    0.960
     5   6 C    3.987 --     6 C    1.356     4 C    1.348     8 C    1.067
     6   6 C    3.991 --     7 C    1.476     5 C    1.356    27 H    0.963
     7   6 C    3.988 --     6 C    1.476     2 C    1.378    28 H    0.965
     8   6 C    3.926 --     9 O    1.834     5 C    1.067    10 C    0.929
     9   8 O    2.092 --     8 C    1.834
    10   6 C    3.941 --    11 N    0.981    29 H    0.954    30 H    0.952
                             8 C    0.929
    11   7 N    3.686 --    15 C    1.315    12 C    1.199    10 C    0.981
    12   6 C    3.947 --    13 C    1.613    11 N    1.199    31 H    0.962
    13   6 C    3.949 --    12 C    1.613    14 N    1.206    32 H    0.962
    14   7 N    3.693 --    15 C    1.328    13 C    1.206    17 C    0.971
    15   6 C    3.951 --    14 N    1.328    11 N    1.315    16 C    1.048
    16   6 C    3.974 --    15 C    1.048    33 H    0.961    35 H    0.957
                            34 H    0.942
    17   6 C    3.941 --    14 N    0.971    18 C    0.970    36 H    0.966
                            37 H    0.963
    18   6 C    3.984 --    19 C    1.009    39 H    0.971    17 C    0.970
                            38 H    0.964
    19   6 C    3.988 --    20 C    1.413    24 C    1.410    18 C    1.009
                            22 C    0.110
    20   6 C    3.992 --    21 C    1.441    19 C    1.413    40 H    0.970
                            23 C    0.110
    21   6 C    3.992 --    22 C    1.442    20 C    1.441    41 H    0.970
                            24 C    0.111
    22   6 C    3.990 --    21 C    1.442    23 C    1.436    42 H    0.970
                            19 C    0.110
    23   6 C    3.990 --    24 C    1.445    22 C    1.436    43 H    0.969
                            20 C    0.110
    24   6 C    3.991 --    23 C    1.445    19 C    1.410    44 H    0.969
                            21 C    0.111
    25   1 H    0.993 --     3 C    0.963
    26   1 H    0.993 --     4 C    0.960
    27   1 H    0.998 --     6 C    0.963
    28   1 H    0.994 --     7 C    0.965
    29   1 H    0.989 --    10 C    0.954
    30   1 H    0.989 --    10 C    0.952
    31   1 H    0.990 --    12 C    0.962
    32   1 H    0.989 --    13 C    0.962
    33   1 H    0.989 --    16 C    0.961
    34   1 H    0.990 --    16 C    0.942
    35   1 H    0.990 --    16 C    0.957
    36   1 H    0.993 --    17 C    0.966
    37   1 H    0.991 --    17 C    0.963
    38   1 H    0.993 --    18 C    0.964
    39   1 H    0.996 --    18 C    0.971
    40   1 H    1.000 --    20 C    0.970
    41   1 H    0.998 --    21 C    0.970
    42   1 H    0.997 --    22 C    0.970
    43   1 H    0.997 --    23 C    0.969
    44   1 H    0.998 --    24 C    0.969
 ---------------------------------------------------------------------------

molecular dipole:
                 x           y           z       tot (Debye)
 q only:        7.491      -2.544       4.903
   full:        7.721      -2.699       4.852      24.171

           -------------------------------------------------
          | TOTAL ENERGY              -66.641017394882 Eh   |
          | GRADIENT NORM               0.000178619634 Eh/α |
          | HOMO-LUMO GAP               2.347660778967 eV   |
           -------------------------------------------------

 * finished run on 2024/12/20 at 06:42:56.968
