   * xtb version 6.7.1 (edcfbbe) compiled by 'conda@3ef47c1a292c' on 2024-11-25

   ID    Z sym.   atoms
    1    6 C      1, 3, 4, 6-12
    2    7 N      2, 5
    3   16 S      13
    4    9 F      14-22
    5    1 H      23-36

          program call               : xtb C0388.xyz --opt --namespace C0388 --charge +1
          :  Hamiltonian                  GFN2-xTB          :
 * total energy  :   -58.4153450 Eh     change       -0.4432366E-10 Eh
 * total energy  :   -78.9610202 Eh     change       -0.2054568E+02 Eh
 * total energy  :   -79.3494268 Eh     change       -0.3884066E+00 Eh
 * total energy  :   -79.5545343 Eh     change       -0.2051076E+00 Eh
 * total energy  :   -79.6919975 Eh     change       -0.1374631E+00 Eh
 * total energy  :   -79.7771713 Eh     change       -0.8517384E-01 Eh
 * total energy  :   -79.8316862 Eh     change       -0.5451486E-01 Eh
 * total energy  :   -79.8699886 Eh     change       -0.3830243E-01 Eh
 * total energy  :   -79.9000467 Eh     change       -0.3005810E-01 Eh
 * total energy  :   -79.9215717 Eh     change       -0.2152501E-01 Eh
 * total energy  :   -79.9694698 Eh     change       -0.1175800E-04 Eh
 * total energy  :   -79.9694804 Eh     change       -0.1066782E-04 Eh
 * total energy  :   -79.9694875 Eh     change       -0.7101652E-05 Eh
 * total energy  :   -79.9694956 Eh     change       -0.8026100E-05 Eh
 * total energy  :   -79.9695033 Eh     change       -0.7743904E-05 Eh
 * total energy  :   -79.9695126 Eh     change       -0.9301458E-05 Eh
 * total energy  :   -79.9695199 Eh     change       -0.7292674E-05 Eh
 * total energy  :   -79.9695262 Eh     change       -0.6337662E-05 Eh
 * total energy  :   -79.9695298 Eh     change       -0.3565315E-05 Eh
   *** GEOMETRY OPTIMIZATION CONVERGED AFTER 46 ITERATIONS ***

 final structure:
================
36
 xtb: 6.7.1 (edcfbbe)
C            0.68198729422459       -0.40424050895916       -0.14762283421968
N            0.41433202694213        0.08249659782658        1.17898124851778
C            0.40733648490446       -0.67502287991780        2.31037085028151
C            0.12075020061974        0.15507949217460        3.35121280930789
N           -0.04653844075392        1.40576087879528        2.84017467424598
C            0.14143972279991        1.33758847546330        1.52414073781642
C           -0.31347996949524        2.59444347925902        3.61876032154189
C            0.96574424817600        3.13964785541984        4.26535109342865
C            2.00923327956017        3.64655571755091        3.26700681261673
C            1.57438327147753        4.81440460061305        2.37684380084615
C            1.16458573479437        6.10328499157883        3.07676900306600
C            2.24552489147080        6.81186542791597        3.93826417722441
S            3.09364414483142        8.38255671807078        0.68215458992804
F            4.67758210705717        8.09565255399971        0.76720700590871
F            3.39022008043817       10.01767160615676        0.81735117822084
F            2.93562445654947        8.54477686691180       -0.91460452847433
F            2.88925981361426        6.67805052133005        0.45146415298920
F            3.23224270145732        7.23870434055330        3.12648363729282
F            1.74991274798195        7.87599653977946        4.54878373649928
F            2.78398434458582        6.01908057923008        4.85760518929162
F            0.81875193266009        7.03346120438161        2.13686283978644
F            0.05742760323456        5.93212544337637        3.83938034683385
H            0.47699684391811        0.37412812907386       -0.87890005006360
H            0.05441279517431       -1.26936144781381       -0.36034330773881
H            1.72668705486321       -0.70665519223846       -0.23422856598979
H            0.59908031188722       -1.72866324458530        2.30050113887747
H            0.01785765410567       -0.06032771801659        4.39518814251893
H            0.06944365865215        2.16104382644847        0.84031424061958
H           -0.77186606145590        3.34511562847090        2.97463402336560
H           -1.02676067947016        2.33495508280639        4.40352449291318
H            0.67665301785702        3.93734999394491        4.94722117769302
H            1.42450354919429        2.35235222554274        4.86567357848101
H            2.90103503041684        3.92438794374003        3.82691224024107
H            2.30228168446928        2.83417643188058        2.59789687963173
H            2.39033664202396        5.06838182495369        1.69922735332584
H            0.71446982122579        4.54475601427239        1.75960781317860

          :  Hamiltonian                  GFN2-xTB          :
         :: total energy             -79.969529804549 Eh    ::
         :: gradient norm              0.000829430897 Eh/a0 ::
         :: HOMO-LUMO gap              3.285368249030 eV    ::
         :: SCC energy               -80.503445923947 Eh    ::
         :: -> dispersion             -0.031727677634 Eh    ::
         :: repulsion energy           0.533916119398 Eh    ::

    * Orbital Energies and Occupations

         #    Occupation            Energy/Eh            Energy/eV
      -------------------------------------------------------------
         1        2.0000           -1.0179407             -27.6996
       ...           ...                  ...                  ...
        54        2.0000           -0.6085332             -16.5590
        55        2.0000           -0.6058730             -16.4866
        56        2.0000           -0.6014282             -16.3657
        57        2.0000           -0.6006227             -16.3438
        58        2.0000           -0.5982553             -16.2794
        59        2.0000           -0.5972900             -16.2531
        60        2.0000           -0.5922763             -16.1167
        61        2.0000           -0.5856408             -15.9361
        62        2.0000           -0.5784908             -15.7415
        63        2.0000           -0.5764362             -15.6856
        64        2.0000           -0.5760831             -15.6760
        65        2.0000           -0.5759929             -15.6736
        66        2.0000           -0.5395986             -14.6832 (HOMO)
        67                         -0.4188636             -11.3979 (LUMO)
        68                         -0.3823524             -10.4043
        69                         -0.2977924              -8.1033
        70                         -0.1965223              -5.3476
        71                         -0.1743676              -4.7448
        72                         -0.1502226              -4.0878
        73                         -0.1470236              -4.0007
        74                         -0.1401846              -3.8146
        75                         -0.1182443              -3.2176
        76                         -0.1096790              -2.9845
        77                         -0.0937102              -2.5500
       ...                                ...                  ...
       107                          0.6772610              18.4292
      -------------------------------------------------------------
                  HL-Gap            0.1207351 Eh            3.2854 eV

     #   Z          covCN         q      C6AA      α(0)
     1   6 C        3.692    -0.090    22.410     6.774
     2   7 N        2.867     0.081    19.834     6.615
     3   6 C        3.073    -0.009    28.156     8.700
     4   6 C        3.074    -0.007    28.116     8.694
     5   7 N        2.868     0.072    19.985     6.640
     6   6 C        3.099     0.041    26.955     8.508
     7   6 C        3.741    -0.034    21.253     6.577
     8   6 C        3.801    -0.080    22.020     6.681
     9   6 C        3.800    -0.077    21.975     6.674
    10   6 C        3.802    -0.102    22.443     6.745
    11   6 C        3.518     0.313    17.001     6.083
    12   6 C        3.330     0.483    17.410     6.622
    13  16 S        3.149     1.839    85.683    15.579
    14   9 F        0.788    -0.395    13.459     4.334
    15   9 F        0.786    -0.496    14.793     4.543
    16   9 F        0.788    -0.396    13.476     4.336
    17   9 F        0.781    -0.557    15.676     4.677
    18   9 F        0.798    -0.207    11.312     3.973
    19   9 F        0.791    -0.158    10.810     3.884
    20   9 F        0.790    -0.168    10.908     3.901
    21   9 F        0.790    -0.224    11.487     4.004
    22   9 F        0.788    -0.197    11.208     3.955
    23   1 H        0.925     0.103     1.761     2.075
    24   1 H        0.925     0.111     1.689     2.032
    25   1 H        0.924     0.110     1.695     2.036
    26   1 H        0.926     0.114     1.664     2.017
    27   1 H        0.926     0.112     1.676     2.025
    28   1 H        0.926     0.114     1.662     2.016
    29   1 H        0.925     0.093     1.850     2.127
    30   1 H        0.924     0.100     1.786     2.090
    31   1 H        0.925     0.089     1.890     2.150
    32   1 H        0.924     0.071     2.073     2.252
    33   1 H        0.925     0.082     1.959     2.189
    34   1 H        0.924     0.057     2.229     2.335
    35   1 H        0.924     0.128     1.547     1.945
    36   1 H        0.924     0.083     1.946     2.182

Wiberg/Mayer (AO) data.
largest (>0.10) Wiberg bond orders for each atom

     #   Z sym  total        # sym  WBO       # sym  WBO       # sym  WBO
 ---------------------------------------------------------------------------
     1   6 C    3.931 --     2 N    0.990    23 H    0.975    24 H    0.963
                            25 H    0.959
     2   7 N    3.724 --     6 C    1.363     3 C    1.229     1 C    0.990
     3   6 C    3.948 --     4 C    1.592     2 N    1.229    26 H    0.960
     4   6 C    3.950 --     3 C    1.592     5 N    1.230    27 H    0.960
     5   7 N    3.719 --     6 C    1.358     4 C    1.230     7 C    0.970
     6   6 C    3.946 --     2 N    1.363     5 N    1.358    28 H    0.953
     7   6 C    3.937 --     8 C    0.986     5 N    0.970    29 H    0.962
                            30 H    0.960
     8   6 C    3.984 --     9 C    1.010     7 C    0.986    32 H    0.971
                            31 H    0.964
     9   6 C    3.989 --     8 C    1.010    10 C    1.005    34 H    0.971
                            33 H    0.969
    10   6 C    3.963 --     9 C    1.005    11 C    0.967    36 H    0.961
                            35 H    0.949
    11   6 C    3.849 --    10 C    0.967    22 F    0.956    21 F    0.934
                            12 C    0.898
    12   6 C    3.853 --    19 F    0.987    20 F    0.976    18 F    0.935
                            11 C    0.898
    13  16 S    3.452 --    14 F    0.951    16 F    0.951    15 F    0.815
                            17 F    0.712
    14   9 F    0.997 --    13 S    0.951
    15   9 F    0.856 --    13 S    0.815
    16   9 F    0.996 --    13 S    0.951
    17   9 F    0.761 --    13 S    0.712
    18   9 F    1.079 --    12 C    0.935
    19   9 F    1.121 --    12 C    0.987
    20   9 F    1.109 --    12 C    0.976
    21   9 F    1.044 --    11 C    0.934
    22   9 F    1.070 --    11 C    0.956
    23   1 H    0.989 --     1 C    0.975
    24   1 H    0.987 --     1 C    0.963
    25   1 H    0.987 --     1 C    0.959
    26   1 H    0.987 --     3 C    0.960
    27   1 H    0.987 --     4 C    0.960
    28   1 H    0.987 --     6 C    0.953
    29   1 H    0.991 --     7 C    0.962
    30   1 H    0.990 --     7 C    0.960
    31   1 H    0.991 --     8 C    0.964
    32   1 H    0.995 --     8 C    0.971
    33   1 H    0.993 --     9 C    0.969
    34   1 H    0.997 --     9 C    0.971
    35   1 H    0.983 --    10 C    0.949
    36   1 H    0.993 --    10 C    0.961
 ---------------------------------------------------------------------------

molecular dipole:
                 x           y           z       tot (Debye)
 q only:       -0.261       0.704       4.737
   full:       -0.128       0.830       4.517      11.677

           -------------------------------------------------
          | TOTAL ENERGY              -79.969529804549 Eh   |
          | GRADIENT NORM               0.000829430897 Eh/α |
          | HOMO-LUMO GAP               3.285368249030 eV   |
           -------------------------------------------------

 * finished run on 2024/12/20 at 06:43:04.694
