   * xtb version 6.7.1 (edcfbbe) compiled by 'conda@3ef47c1a292c' on 2024-11-25

   ID    Z sym.   atoms
    1    6 C      1-14, 16, 17, 19-27
    2    7 N      15, 18
    3    1 H      28-68

          program call               : xtb C0389.xyz --opt --namespace C0389 --charge +1
          :  Hamiltonian                  GFN2-xTB          :
 * total energy  :   -79.9497866 Eh     change       -0.1521087E-08 Eh
 * total energy  :   -79.9556014 Eh     change       -0.5814827E-02 Eh
 * total energy  :   -79.9565461 Eh     change       -0.9447126E-03 Eh
 * total energy  :   -79.9567153 Eh     change       -0.1692131E-03 Eh
 * total energy  :   -79.9569153 Eh     change       -0.1999289E-03 Eh
 * total energy  :   -79.9570276 Eh     change       -0.1123026E-03 Eh
 * total energy  :   -79.9571966 Eh     change       -0.1690548E-03 Eh
 * total energy  :   -79.9573795 Eh     change       -0.1828449E-03 Eh
 * total energy  :   -79.9575164 Eh     change       -0.1369422E-03 Eh
 * total energy  :   -79.9576002 Eh     change       -0.8377884E-04 Eh
 * total energy  :   -79.9589388 Eh     change       -0.2365446E-04 Eh
 * total energy  :   -79.9589626 Eh     change       -0.2378291E-04 Eh
 * total energy  :   -79.9589902 Eh     change       -0.2767805E-04 Eh
 * total energy  :   -79.9590213 Eh     change       -0.3104493E-04 Eh
 * total energy  :   -79.9590365 Eh     change       -0.1521242E-04 Eh
 * total energy  :   -79.9590452 Eh     change       -0.8745275E-05 Eh
 * total energy  :   -79.9590532 Eh     change       -0.7950469E-05 Eh
 * total energy  :   -79.9590606 Eh     change       -0.7376098E-05 Eh
 * total energy  :   -79.9590639 Eh     change       -0.3335679E-05 Eh
   *** GEOMETRY OPTIMIZATION CONVERGED AFTER 47 ITERATIONS ***

 final structure:
================
68
 xtb: 6.7.1 (edcfbbe)
C            1.33083509029954       -0.38660138793555       -0.57574701146559
C            1.12308061504574       -0.21071571775621        0.92357190752093
C            1.49265255496143        1.18643964583358        1.42404400997235
C            0.66742895092568        2.32684540146193        0.82369269359937
C           -0.84218645089850        2.22064362179776        1.04815639964760
C           -1.27303192371531        2.14007651058713        2.51363006055195
C           -0.84606808205663        3.32801625144382        3.37763905683858
C           -1.37815205134712        4.68624962230699        2.91559568047141
C           -2.90254472886914        4.78739818099261        2.82852333629481
C           -3.64832068397558        4.46348219746842        4.12448831386358
C           -3.25566900929259        5.31768058818160        5.33263921577762
C           -3.53241049534064        6.81465665918465        5.17042316311868
C           -5.01666022557787        7.18288888992414        5.15740002277369
C           -5.69354920119341        7.07359199990179        6.52887195203884
N           -5.17292149112663        8.05853788060728        7.45249923500757
C           -5.43110428632140        9.39577927329062        7.35554852176713
C           -4.73887525614537       10.01231813555405        8.34427614066937
N           -4.05933641096554        9.04600160008093        9.03116064379000
C           -4.33796346071944        7.85773274967682        8.48086655431922
C           -3.84415320867438        6.53512068360266        8.92027240492251
C           -3.25092323544933        9.33747064093873       10.20180145050529
C           -4.13930149288382        9.60577366867019       11.39616297690412
C           -4.38007725708939       10.90835030439577       11.81116577742453
C           -5.20588211771876       11.15296448693576       12.89474711838147
C           -5.80188764487115       10.09831463534220       13.56491628441784
C           -5.56830059749362        8.79720292228766       13.15203092047912
C           -4.74139947144355        8.55088818842233       12.07055661659360
H            0.65405067705978        0.24694103731330       -1.14320574931180
H            1.14610328009601       -1.41917727746722       -0.86276253859539
H            2.35245655967364       -0.13288936818842       -0.85027728316301
H            0.08476815980112       -0.43375445970198        1.17552574152954
H            1.74726102973746       -0.93514934013476        1.45270075401990
H            1.39801279919453        1.20423485975393        2.51209908481108
H            2.54389061022256        1.37217765422073        1.18921205150618
H            1.03077683871227        3.26826004138973        1.24233139265435
H            0.84772957402589        2.36882352261655       -0.25195401904757
H           -1.31938915206848        3.08284736272207        0.57663625191885
H           -1.21786032883858        1.33257507154513        0.53663896539785
H           -2.36042814019486        2.03996565217186        2.54588209389488
H           -0.85813414013303        1.23334537644299        2.95767389880895
H           -1.17115162413753        3.13901144874552        4.40393332322970
H            0.24386484131645        3.38155024129160        3.39609851140759
H           -0.99897358989712        5.45430670789109        3.59488744187124
H           -0.97052454397253        4.91066661545431        1.92879686423424
H           -3.16309587936918        5.79504237084361        2.49578027763409
H           -3.26048950516874        4.10140507998343        2.05976908409681
H           -4.72036965168185        4.56186315587669        3.93817945121422
H           -3.46766598401310        3.41946256688996        4.38375302271920
H           -3.79046847936406        4.92740063651991        6.20335670674657
H           -2.18970481883110        5.18577339506722        5.52240469477962
H           -3.02766024108423        7.36926726876556        5.96759317037610
H           -3.09151230701415        7.14679859037016        4.23132425704847
H           -5.12998404831705        8.20439066249208        4.78987523711059
H           -5.54799566982681        6.52636636157187        4.46985916016320
H           -6.76606808078796        7.25218644657253        6.41928845547623
H           -5.54819965555074        6.07913124856187        6.94862242877191
H           -6.08071215011400        9.80080661202016        6.60783753304374
H           -4.67997149924164       11.04692391043574        8.61032183032206
H           -4.68001448875683        5.89817693020901        9.21107526287329
H           -3.30565648704153        6.03711596656551        8.11456705369331
H           -3.17629008858095        6.62580990559198        9.77071416517830
H           -2.58145868901101        8.49913547443904       10.39743614191365
H           -2.64631624679824       10.21956441377087        9.97887962216229
H           -3.90867143614775       11.73484859280684       11.29938171616862
H           -5.37992311115609       12.16770534752150       13.21654205346505
H           -6.44272830710568       10.28907114885743       14.41116675461871
H           -6.02553403052551        7.97194689044507       13.67535505844614
H           -4.55594042326250        7.53254424464920       11.76090663039831

          :  Hamiltonian                  GFN2-xTB          :
         :: total energy             -79.959063905398 Eh    ::
         :: gradient norm              0.000351289460 Eh/a0 ::
         :: HOMO-LUMO gap              2.003662012823 eV    ::
         :: SCC energy               -81.231760161424 Eh    ::
         :: -> dispersion             -0.062941540511 Eh    ::
         :: repulsion energy           1.272696256026 Eh    ::

    * Orbital Energies and Occupations

         #    Occupation            Energy/Eh            Energy/eV
      -------------------------------------------------------------
         1        2.0000           -0.8766865             -23.8559
       ...           ...                  ...                  ...
        63        2.0000           -0.5148648             -14.0102
        64        2.0000           -0.5146349             -14.0039
        65        2.0000           -0.5141149             -13.9898
        66        2.0000           -0.5085399             -13.8381
        67        2.0000           -0.5013572             -13.6426
        68        2.0000           -0.4972062             -13.5297
        69        2.0000           -0.4919180             -13.3858
        70        2.0000           -0.4830770             -13.1452
        71        2.0000           -0.4803182             -13.0701
        72        2.0000           -0.4768120             -12.9747
        73        2.0000           -0.4650856             -12.6556
        74        2.0000           -0.4604968             -12.5308
        75        2.0000           -0.4587818             -12.4841 (HOMO)
        76                         -0.3851486             -10.4804 (LUMO)
        77                         -0.3529005              -9.6029
        78                         -0.3387006              -9.2165
        79                         -0.3327977              -9.0559
        80                         -0.2109439              -5.7401
        81                         -0.1668835              -4.5411
        82                         -0.1160965              -3.1591
        83                         -0.0600645              -1.6344
        84                         -0.0529488              -1.4408
        85                         -0.0453198              -1.2332
        86                         -0.0330687              -0.8998
       ...                                ...                  ...
       149                          0.5542908              15.0830
      -------------------------------------------------------------
                  HL-Gap            0.0736332 Eh            2.0037 eV

     #   Z          covCN         q      C6AA      α(0)
     1   6 C        3.751    -0.102    22.512     6.766
     2   6 C        3.799    -0.052    21.509     6.603
     3   6 C        3.800    -0.057    21.600     6.617
     4   6 C        3.800    -0.057    21.601     6.617
     5   6 C        3.800    -0.057    21.599     6.617
     6   6 C        3.800    -0.057    21.604     6.618
     7   6 C        3.800    -0.057    21.596     6.617
     8   6 C        3.800    -0.058    21.616     6.620
     9   6 C        3.800    -0.060    21.650     6.625
    10   6 C        3.800    -0.061    21.667     6.627
    11   6 C        3.800    -0.061    21.669     6.628
    12   6 C        3.800    -0.064    21.722     6.636
    13   6 C        3.802    -0.070    21.839     6.653
    14   6 C        3.741    -0.023    21.059     6.547
    15   7 N        2.874     0.038    20.583     6.738
    16   6 C        3.049    -0.009    28.197     8.709
    17   6 C        3.053    -0.009    28.193     8.708
    18   7 N        2.873     0.036    20.607     6.742
    19   6 C        3.097     0.108    25.496     8.275
    20   6 C        3.754    -0.132    23.104     6.854
    21   6 C        3.747    -0.023    21.050     6.544
    22   6 C        2.972    -0.003    28.086     8.693
    23   6 C        2.923    -0.035    28.867     8.811
    24   6 C        2.919    -0.022    28.547     8.762
    25   6 C        2.920    -0.020    28.513     8.757
    26   6 C        2.919    -0.023    28.582     8.767
    27   6 C        2.923    -0.038    28.945     8.823
    28   1 H        0.925     0.034     2.525     2.485
    29   1 H        0.925     0.033     2.547     2.496
    30   1 H        0.925     0.035     2.523     2.484
    31   1 H        0.924     0.030     2.589     2.516
    32   1 H        0.924     0.027     2.623     2.533
    33   1 H        0.924     0.026     2.641     2.541
    34   1 H        0.924     0.030     2.592     2.518
    35   1 H        0.924     0.026     2.645     2.543
    36   1 H        0.924     0.034     2.533     2.489
    37   1 H        0.924     0.026     2.639     2.540
    38   1 H        0.924     0.034     2.527     2.486
    39   1 H        0.924     0.026     2.649     2.545
    40   1 H        0.924     0.034     2.529     2.487
    41   1 H        0.924     0.022     2.709     2.574
    42   1 H        0.924     0.035     2.514     2.480
    43   1 H        0.924     0.022     2.710     2.574
    44   1 H        0.924     0.039     2.465     2.455
    45   1 H        0.924     0.025     2.652     2.547
    46   1 H        0.924     0.042     2.416     2.431
    47   1 H        0.924     0.027     2.633     2.538
    48   1 H        0.924     0.044     2.395     2.420
    49   1 H        0.924     0.018     2.768     2.602
    50   1 H        0.924     0.044     2.392     2.418
    51   1 H        0.924     0.017     2.773     2.604
    52   1 H        0.925     0.061     2.191     2.315
    53   1 H        0.924     0.050     2.320     2.382
    54   1 H        0.925     0.074     2.041     2.234
    55   1 H        0.924     0.080     1.978     2.199
    56   1 H        0.925     0.083     1.951     2.184
    57   1 H        0.927     0.099     1.796     2.096
    58   1 H        0.927     0.099     1.793     2.094
    59   1 H        0.924     0.094     1.841     2.122
    60   1 H        0.925     0.103     1.756     2.072
    61   1 H        0.925     0.089     1.892     2.151
    62   1 H        0.924     0.078     1.996     2.209
    63   1 H        0.924     0.085     1.929     2.172
    64   1 H        0.926     0.041     2.437     2.441
    65   1 H        0.926     0.056     2.240     2.341
    66   1 H        0.926     0.058     2.223     2.331
    67   1 H        0.926     0.053     2.281     2.362
    68   1 H        0.926     0.033     2.549     2.497

Wiberg/Mayer (AO) data.
largest (>0.10) Wiberg bond orders for each atom

     #   Z sym  total        # sym  WBO       # sym  WBO       # sym  WBO
 ---------------------------------------------------------------------------
     1   6 C    3.997 --     2 C    1.020    30 H    0.988    29 H    0.987
                            28 H    0.986
     2   6 C    3.998 --     1 C    1.020     3 C    1.008    32 H    0.978
                            31 H    0.976
     3   6 C    3.998 --     2 C    1.008     4 C    1.008    34 H    0.977
                            33 H    0.976
     4   6 C    3.997 --     5 C    1.008     3 C    1.008    35 H    0.975
                            36 H    0.975
     5   6 C    3.997 --     4 C    1.008     6 C    1.008    37 H    0.975
                            38 H    0.975
     6   6 C    3.997 --     5 C    1.008     7 C    1.008    39 H    0.975
                            40 H    0.974
     7   6 C    3.997 --     6 C    1.008     8 C    1.007    41 H    0.975
                            42 H    0.974
     8   6 C    3.997 --     9 C    1.008     7 C    1.007    43 H    0.976
                            44 H    0.974
     9   6 C    3.996 --    10 C    1.008     8 C    1.008    45 H    0.974
                            46 H    0.974
    10   6 C    3.996 --     9 C    1.008    11 C    1.007    47 H    0.974
                            48 H    0.973
    11   6 C    3.996 --    12 C    1.007    10 C    1.007    50 H    0.973
                            49 H    0.970
    12   6 C    3.994 --    13 C    1.008    11 C    1.007    51 H    0.976
                            52 H    0.969
    13   6 C    3.985 --    12 C    1.008    14 C    0.986    53 H    0.974
                            54 H    0.964
    14   6 C    3.940 --    13 C    0.986    15 N    0.968    56 H    0.962
                            55 H    0.962
    15   7 N    3.691 --    19 C    1.324    16 C    1.209    14 C    0.968
    16   6 C    3.952 --    17 C    1.615    15 N    1.209    57 H    0.962
    17   6 C    3.950 --    16 C    1.615    18 N    1.206    58 H    0.962
    18   7 N    3.690 --    19 C    1.328    17 C    1.206    21 C    0.959
    19   6 C    3.951 --    18 N    1.328    15 N    1.324    20 C    1.044
    20   6 C    3.978 --    19 C    1.044    61 H    0.967    59 H    0.952
                            60 H    0.948
    21   6 C    3.939 --    22 C    0.980    63 H    0.961    18 N    0.959
                            62 H    0.959
    22   6 C    3.979 --    23 C    1.417    27 C    1.413    21 C    0.980
                            25 C    0.109
    23   6 C    3.991 --    24 C    1.441    22 C    1.417    64 H    0.968
                            26 C    0.110
    24   6 C    3.990 --    25 C    1.441    23 C    1.441    65 H    0.969
                            27 C    0.112
    25   6 C    3.989 --    24 C    1.441    26 C    1.437    66 H    0.969
                            22 C    0.109
    26   6 C    3.991 --    27 C    1.446    25 C    1.437    67 H    0.969
                            23 C    0.110
    27   6 C    3.992 --    26 C    1.446    22 C    1.413    68 H    0.969
                            24 C    0.112
    28   1 H    0.999 --     1 C    0.986
    29   1 H    0.999 --     1 C    0.987
    30   1 H    0.999 --     1 C    0.988
    31   1 H    0.999 --     2 C    0.976
    32   1 H    0.999 --     2 C    0.978
    33   1 H    0.999 --     3 C    0.976
    34   1 H    0.999 --     3 C    0.977
    35   1 H    0.999 --     4 C    0.975
    36   1 H    0.999 --     4 C    0.975
    37   1 H    0.999 --     5 C    0.975
    38   1 H    0.999 --     5 C    0.975
    39   1 H    0.999 --     6 C    0.975
    40   1 H    0.999 --     6 C    0.974
    41   1 H    1.000 --     7 C    0.975
    42   1 H    0.999 --     7 C    0.974
    43   1 H    1.000 --     8 C    0.976
    44   1 H    0.998 --     8 C    0.974
    45   1 H    0.999 --     9 C    0.974
    46   1 H    0.998 --     9 C    0.974
    47   1 H    0.999 --    10 C    0.974
    48   1 H    0.998 --    10 C    0.973
    49   1 H    1.000 --    11 C    0.970
    50   1 H    0.998 --    11 C    0.973
    51   1 H    1.000 --    12 C    0.976
    52   1 H    0.996 --    12 C    0.969
    53   1 H    0.997 --    13 C    0.974
    54   1 H    0.994 --    13 C    0.964
    55   1 H    0.993 --    14 C    0.962
    56   1 H    0.993 --    14 C    0.962
    57   1 H    0.989 --    16 C    0.962
    58   1 H    0.990 --    17 C    0.962
    59   1 H    0.991 --    20 C    0.952
    60   1 H    0.989 --    20 C    0.948
    61   1 H    0.992 --    20 C    0.967
    62   1 H    0.993 --    21 C    0.959
    63   1 H    0.992 --    21 C    0.961
    64   1 H    0.998 --    23 C    0.968
    65   1 H    0.996 --    24 C    0.969
    66   1 H    0.996 --    25 C    0.969
    67   1 H    0.997 --    26 C    0.969
    68   1 H    0.999 --    27 C    0.969
 ---------------------------------------------------------------------------

molecular dipole:
                 x           y           z       tot (Debye)
 q only:       -8.540      15.364      15.751
   full:       -8.561      15.428      15.780      60.165

           -------------------------------------------------
          | TOTAL ENERGY              -79.959063905398 Eh   |
          | GRADIENT NORM               0.000351289460 Eh/α |
          | HOMO-LUMO GAP               2.003662012823 eV   |
           -------------------------------------------------

 * finished run on 2024/12/20 at 06:43:08.331
