   * xtb version 6.7.1 (edcfbbe) compiled by 'conda@3ef47c1a292c' on 2024-11-25

   ID    Z sym.   atoms
    1    6 C      1, 3
    2    7 N      2, 4, 5
    3    1 H      6-9

          program call               : xtb C0398.xyz --opt --namespace C0398 --charge +1
          :  Hamiltonian                  GFN2-xTB          :
 * total energy  :   -14.5152031 Eh     change       -0.2699139E-09 Eh
 * total energy  :   -14.5404496 Eh     change       -0.2524645E-01 Eh
 * total energy  :   -14.5492685 Eh     change       -0.8818915E-02 Eh
 * total energy  :   -14.5511146 Eh     change       -0.1846144E-02 Eh
 * total energy  :   -14.5519970 Eh     change       -0.8824277E-03 Eh
 * total energy  :   -14.5524563 Eh     change       -0.4592934E-03 Eh
 * total energy  :   -14.5526509 Eh     change       -0.1946087E-03 Eh
 * total energy  :   -14.5527236 Eh     change       -0.7264430E-04 Eh
 * total energy  :   -14.5527591 Eh     change       -0.3550609E-04 Eh
 * total energy  :   -14.5527784 Eh     change       -0.1933109E-04 Eh
 * total energy  :   -14.5527858 Eh     change       -0.7359117E-05 Eh
 * total energy  :   -14.5527887 Eh     change       -0.2921432E-05 Eh
   *** GEOMETRY OPTIMIZATION CONVERGED AFTER 12 ITERATIONS ***

 final structure:
================
9
 xtb: 6.7.1 (edcfbbe)
C            1.01954993218907        0.29489652197450       -0.16291638793210
N            0.70134573500701       -0.90774843788624       -0.07220300437802
C           -0.68104962709324       -0.95974143334078        0.12933072954641
N           -1.24484417973810        0.18101203243643        0.16843438059401
N           -0.23047059954599        1.14745019071019       -0.01338476150531
H            1.98934325662538        0.72716543739716       -0.32057014338261
H           -1.20626908782732       -1.89218416118149        0.24006619961717
H           -0.43642901173577        1.73629615070990       -0.84169805360959
H           -0.20152641788103        1.79725369918033        0.79433104105004

          :  Hamiltonian                  GFN2-xTB          :
         :: total energy             -14.552788709784 Eh    ::
         :: gradient norm              0.000795196690 Eh/a0 ::
         :: HOMO-LUMO gap              2.936210358631 eV    ::
         :: SCC energy               -14.741729651689 Eh    ::
         :: -> dispersion             -0.003980577521 Eh    ::
         :: repulsion energy           0.188940941905 Eh    ::

    * Orbital Energies and Occupations

         #    Occupation            Energy/Eh            Energy/eV
      -------------------------------------------------------------
         1        2.0000           -0.9740955             -26.5065
         2        2.0000           -0.9189721             -25.0065
         3        2.0000           -0.9056586             -24.6442
         4        2.0000           -0.8540032             -23.2386
         5        2.0000           -0.8526097             -23.2007
         6        2.0000           -0.8459704             -23.0200
         7        2.0000           -0.8148072             -22.1720
         8        2.0000           -0.7541347             -20.5210
         9        2.0000           -0.7448512             -20.2684
        10        2.0000           -0.7122250             -19.3806
        11        2.0000           -0.6906664             -18.7940
        12        2.0000           -0.6595910             -17.9484
        13        2.0000           -0.6376056             -17.3501 (HOMO)
        14                         -0.5297019             -14.4139 (LUMO)
        15                         -0.4333093             -11.7909
        16                         -0.3123776              -8.5002
        17                         -0.2765767              -7.5260
        18                         -0.1809249              -4.9232
        19                         -0.1258975              -3.4258
        20                         -0.1174230              -3.1952
        21                          0.0242146               0.6589
        22                          0.1006127               2.7378
        23                          0.2261930               6.1550
        24                          0.3561160               9.6904
      -------------------------------------------------------------
                  HL-Gap            0.1079037 Eh            2.9362 eV

     #   Z          covCN         q      C6AA      α(0)
     1   6 C        3.000     0.109    25.584     8.297
     2   7 N        1.865    -0.090    23.758     7.225
     3   6 C        3.093     0.149    24.668     8.140
     4   7 N        1.940    -0.109    24.129     7.284
     5   7 N        3.728     0.042    20.505     6.725
     6   1 H        0.926     0.159     1.330     1.804
     7   1 H        0.926     0.164     1.299     1.782
     8   1 H        0.858     0.288     0.751     1.357
     9   1 H        0.858     0.288     0.751     1.357

Wiberg/Mayer (AO) data.
largest (>0.10) Wiberg bond orders for each atom

     #   Z sym  total        # sym  WBO       # sym  WBO       # sym  WBO
 ---------------------------------------------------------------------------
     1   6 C    3.922 --     2 N    1.916     6 H    0.941     5 N    0.881
                             4 N    0.146
     2   7 N    3.163 --     1 C    1.916     3 C    1.097
     3   6 C    3.927 --     4 N    1.803     2 N    1.097     7 H    0.937
     4   7 N    3.022 --     3 C    1.803     5 N    1.020     1 C    0.146
     5   7 N    3.759 --     4 N    1.020     1 C    0.881     8 H    0.867
                             9 H    0.867
     6   1 H    0.975 --     1 C    0.941
     7   1 H    0.973 --     3 C    0.937
     8   1 H    0.917 --     5 N    0.867
     9   1 H    0.917 --     5 N    0.867
 ---------------------------------------------------------------------------

molecular dipole:
                 x           y           z       tot (Debye)
 q only:        0.013       1.553      -0.068
   full:        0.151       1.977      -0.104       5.046

           -------------------------------------------------
          | TOTAL ENERGY              -14.552788709784 Eh   |
          | GRADIENT NORM               0.000795196690 Eh/α |
          | HOMO-LUMO GAP               2.936210358631 eV   |
           -------------------------------------------------

 * finished run on 2024/12/20 at 06:43:30.494
