   * xtb version 6.7.1 (edcfbbe) compiled by 'conda@3ef47c1a292c' on 2024-11-25

   ID    Z sym.   atoms
    1    6 C      1, 3, 4, 6-8, 10, 11
    2    8 O      2, 9
    3    7 N      5
    4    1 H      12-29

          program call               : xtb C0392.xyz --opt --namespace C0392 --charge +1
          :  Hamiltonian                  GFN2-xTB          :
 * total energy  :   -36.9432338 Eh     change       -0.5378098E-10 Eh
 * total energy  :   -36.9511104 Eh     change       -0.7876601E-02 Eh
 * total energy  :   -36.9531345 Eh     change       -0.2024145E-02 Eh
 * total energy  :   -36.9532288 Eh     change       -0.9430773E-04 Eh
 * total energy  :   -36.9533049 Eh     change       -0.7605963E-04 Eh
 * total energy  :   -36.9533405 Eh     change       -0.3559683E-04 Eh
 * total energy  :   -36.9534044 Eh     change       -0.6395275E-04 Eh
 * total energy  :   -36.9534583 Eh     change       -0.5389797E-04 Eh
 * total energy  :   -36.9535172 Eh     change       -0.5884463E-04 Eh
 * total energy  :   -36.9535800 Eh     change       -0.6283627E-04 Eh
 * total energy  :   -36.9545766 Eh     change       -0.9009243E-05 Eh
 * total energy  :   -36.9545854 Eh     change       -0.8822194E-05 Eh
 * total energy  :   -36.9545939 Eh     change       -0.8429346E-05 Eh
 * total energy  :   -36.9546017 Eh     change       -0.7822545E-05 Eh
 * total energy  :   -36.9546088 Eh     change       -0.7158882E-05 Eh
 * total energy  :   -36.9546153 Eh     change       -0.6492783E-05 Eh
 * total energy  :   -36.9546212 Eh     change       -0.5871687E-05 Eh
 * total energy  :   -36.9546265 Eh     change       -0.5319760E-05 Eh
 * total energy  :   -36.9546314 Eh     change       -0.4845022E-05 Eh
   *** GEOMETRY OPTIMIZATION CONVERGED AFTER 63 ITERATIONS ***

 final structure:
================
29
 xtb: 6.7.1 (edcfbbe)
C            1.56981076078702        1.88935425124587       -0.47039740130233
O            1.21987827582290        0.71621826246160        0.24125678996056
C            0.88017144095775        0.95704786128582        1.58472281998064
C            0.19883006974058       -0.26486293243228        2.20997325308262
N            0.94326033396059       -1.55978816027775        2.12092750860836
C            0.79856642862162       -2.09450007388000        0.75082079129701
C            2.38024825096048       -1.36435146414389        2.46153235084750
C            3.12275534014227       -2.69240243254599        2.66500206531712
O            2.48898406652058       -3.49154679271968        3.62752685254161
C            1.17168913505271       -3.79093615086349        3.25073695073492
C            0.35161249364187       -2.50316453137459        3.11473384186438
H            0.73443623100789        2.59430648299858       -0.49432692862288
H            1.80823613521365        1.57075860083673       -1.48173366996081
H            2.44051890496990        2.37589289547174       -0.02152351027843
H            1.77164398891875        1.25602906275773        2.15635199780028
H            0.15802901374060        1.78452261424190        1.65207626725975
H            0.02708652692166       -0.02985819231004        3.26222560979955
H           -0.76677253049494       -0.41659105692107        1.72429728035603
H           -0.24356846407837       -2.34369847203706        0.56085565440593
H            1.11494110812129       -1.33404750664367        0.03952148175959
H            1.40059154020488       -2.98790588016510        0.61567717622503
H            2.42549867292853       -0.79948610162706        3.39542532777697
H            2.85670159294687       -0.79737997688850        1.66225254569366
H            4.12182260515745       -2.48249678399744        3.05132600459595
H            3.22900135585662       -3.23812696357222        1.71699710656011
H            1.15216476802194       -4.38122611727147        2.32438768300609
H            0.75128151111415       -4.39770285750052        4.05471455252768
H           -0.67510239596730       -2.73122410309101        2.82729526966024
H            0.34857283921559       -2.01113348103734        4.09013432850533

          :  Hamiltonian                  GFN2-xTB          :
         :: total energy             -36.954631375421 Eh    ::
         :: gradient norm              0.000165970066 Eh/a0 ::
         :: HOMO-LUMO gap              8.082659038025 eV    ::
         :: SCC energy               -37.355348095977 Eh    ::
         :: -> dispersion             -0.021366674759 Eh    ::
         :: repulsion energy           0.400716720555 Eh    ::

    * Orbital Energies and Occupations

         #    Occupation            Energy/Eh            Energy/eV
      -------------------------------------------------------------
         1        2.0000           -0.8714567             -23.7135
       ...           ...                  ...                  ...
        21        2.0000           -0.6557283             -17.8433
        22        2.0000           -0.6548700             -17.8199
        23        2.0000           -0.6524676             -17.7545
        24        2.0000           -0.6477434             -17.6260
        25        2.0000           -0.6427050             -17.4889
        26        2.0000           -0.6311462             -17.1744
        27        2.0000           -0.6201334             -16.8747
        28        2.0000           -0.6121097             -16.6564
        29        2.0000           -0.6090204             -16.5723
        30        2.0000           -0.5966463             -16.2356
        31        2.0000           -0.5854633             -15.9313
        32        2.0000           -0.5565389             -15.1442
        33        2.0000           -0.5425129             -14.7625 (HOMO)
        34                         -0.2454806              -6.6799 (LUMO)
        35                         -0.1782264              -4.8498
        36                         -0.1713803              -4.6635
        37                         -0.1509309              -4.1070
        38                         -0.1247011              -3.3933
        39                         -0.1068774              -2.9083
        40                         -0.0883042              -2.4029
        41                         -0.0622398              -1.6936
        42                         -0.0550418              -1.4978
        43                         -0.0502647              -1.3678
        44                         -0.0224130              -0.6099
       ...                                ...                  ...
        62                          0.1432450               3.8979
      -------------------------------------------------------------
                  HL-Gap            0.2970323 Eh            8.0827 eV

     #   Z          covCN         q      C6AA      α(0)
     1   6 C        3.650     0.024    20.480     6.500
     2   8 O        1.700    -0.319    19.334     5.937
     3   6 C        3.699     0.071    19.553     6.324
     4   6 C        3.761    -0.045    21.418     6.597
     5   7 N        3.621     0.129    19.043     6.481
     6   6 C        3.713    -0.105    22.636     6.798
     7   6 C        3.758    -0.045    21.436     6.601
     8   6 C        3.720     0.064    19.622     6.327
     9   8 O        1.702    -0.282    18.677     5.835
    10   6 C        3.721     0.064    19.619     6.326
    11   6 C        3.764    -0.045    21.424     6.598
    12   1 H        0.924     0.052     2.300     2.372
    13   1 H        0.925     0.080     1.975     2.198
    14   1 H        0.924     0.047     2.358     2.401
    15   1 H        0.923     0.047     2.359     2.402
    16   1 H        0.923     0.068     2.112     2.273
    17   1 H        0.924     0.088     1.895     2.153
    18   1 H        0.924     0.101     1.772     2.082
    19   1 H        0.925     0.094     1.842     2.122
    20   1 H        0.925     0.131     1.524     1.931
    21   1 H        0.925     0.097     1.809     2.103
    22   1 H        0.924     0.093     1.847     2.125
    23   1 H        0.925     0.102     1.766     2.078
    24   1 H        0.924     0.099     1.797     2.096
    25   1 H        0.923     0.053     2.288     2.365
    26   1 H        0.923     0.054     2.267     2.354
    27   1 H        0.924     0.099     1.792     2.093
    28   1 H        0.924     0.088     1.897     2.154
    29   1 H        0.924     0.095     1.832     2.116

Wiberg/Mayer (AO) data.
largest (>0.10) Wiberg bond orders for each atom

     #   Z sym  total        # sym  WBO       # sym  WBO       # sym  WBO
 ---------------------------------------------------------------------------
     1   6 C    3.931 --    14 H    0.979    12 H    0.978    13 H    0.977
                             2 O    0.972
     2   8 O    2.071 --     3 C    0.996     1 C    0.972
     3   6 C    3.958 --     4 C    1.002     2 O    0.996    15 H    0.962
                            16 H    0.956
     4   6 C    3.940 --     3 C    1.002    17 H    0.966    18 H    0.965
                             5 N    0.935
     5   7 N    3.810 --     6 C    0.953     7 C    0.936    11 C    0.936
                             4 C    0.935
     6   6 C    3.914 --    19 H    0.975    21 H    0.968    20 H    0.957
                             5 N    0.953
     7   6 C    3.934 --     8 C    0.994    22 H    0.967    23 H    0.965
                             5 N    0.936
     8   6 C    3.952 --     9 O    0.998     7 C    0.994    25 H    0.960
                            24 H    0.959
     9   8 O    2.105 --    10 C    0.998     8 C    0.998
    10   6 C    3.951 --     9 O    0.998    11 C    0.994    26 H    0.960
                            27 H    0.959
    11   6 C    3.937 --    10 C    0.994    28 H    0.968    29 H    0.965
                             5 N    0.936
    12   1 H    0.997 --     1 C    0.978
    13   1 H    0.993 --     1 C    0.977
    14   1 H    0.998 --     1 C    0.979
    15   1 H    0.998 --     3 C    0.962
    16   1 H    0.995 --     3 C    0.956
    17   1 H    0.992 --     4 C    0.966
    18   1 H    0.989 --     4 C    0.965
    19   1 H    0.991 --     6 C    0.975
    20   1 H    0.983 --     6 C    0.957
    21   1 H    0.991 --     6 C    0.968
    22   1 H    0.991 --     7 C    0.967
    23   1 H    0.990 --     7 C    0.965
    24   1 H    0.990 --     8 C    0.959
    25   1 H    0.997 --     8 C    0.960
    26   1 H    0.997 --    10 C    0.960
    27   1 H    0.990 --    10 C    0.959
    28   1 H    0.992 --    11 C    0.968
    29   1 H    0.991 --    11 C    0.965
 ---------------------------------------------------------------------------

molecular dipole:
                 x           y           z       tot (Debye)
 q only:        1.834      -2.263       3.619
   full:        1.687      -2.017       3.604      11.340

           -------------------------------------------------
          | TOTAL ENERGY              -36.954631375421 Eh   |
          | GRADIENT NORM               0.000165970066 Eh/α |
          | HOMO-LUMO GAP               8.082659038025 eV   |
           -------------------------------------------------

 * finished run on 2024/12/20 at 06:43:15.131
