   * xtb version 6.7.1 (edcfbbe) compiled by 'conda@3ef47c1a292c' on 2024-11-25

   ID    Z sym.   atoms
    1    6 C      1, 3-9, 11, 13-21, 23-25
    2    8 O      2
    3    7 N      10, 12
    4   14 Si     22
    5    1 H      26-54

          program call               : xtb C0396.xyz --opt --namespace C0396 --charge +1
          :  Hamiltonian                  GFN2-xTB          :
 * total energy  :   -71.0262247 Eh     change       -0.1551086E-08 Eh
 * total energy  :   -71.0339587 Eh     change       -0.7734033E-02 Eh
 * total energy  :   -71.0353985 Eh     change       -0.1439830E-02 Eh
 * total energy  :   -71.0357249 Eh     change       -0.3263345E-03 Eh
 * total energy  :   -71.0360292 Eh     change       -0.3042957E-03 Eh
 * total energy  :   -71.0362042 Eh     change       -0.1750006E-03 Eh
 * total energy  :   -71.0363704 Eh     change       -0.1661892E-03 Eh
 * total energy  :   -71.0365116 Eh     change       -0.1412726E-03 Eh
 * total energy  :   -71.0366308 Eh     change       -0.1191765E-03 Eh
 * total energy  :   -71.0367405 Eh     change       -0.1096440E-03 Eh
 * total energy  :   -71.0404240 Eh     change       -0.1573958E-04 Eh
 * total energy  :   -71.0404331 Eh     change       -0.9047044E-05 Eh
 * total energy  :   -71.0404421 Eh     change       -0.9050893E-05 Eh
 * total energy  :   -71.0404540 Eh     change       -0.1187832E-04 Eh
 * total energy  :   -71.0404534 Eh     change        0.6081468E-06 Eh
 * total energy  :   -71.0404617 Eh     change       -0.8334873E-05 Eh
 * total energy  :   -71.0404730 Eh     change       -0.1128741E-04 Eh
 * total energy  :   -71.0404810 Eh     change       -0.8007910E-05 Eh
 * total energy  :   -71.0404845 Eh     change       -0.3467061E-05 Eh
   *** GEOMETRY OPTIMIZATION CONVERGED AFTER 68 ITERATIONS ***

 final structure:
================
54
 xtb: 6.7.1 (edcfbbe)
C           -0.64541689955260        0.87376801625539       -1.70859059967531
O            0.08777258728190        0.16883012616399       -2.68942494315069
C           -0.58670420807537       -0.32881047768704       -3.77075131672358
C           -1.96693424738194       -0.30762057373726       -3.92344434368469
C           -2.54642531689944       -0.83968651590790       -5.06296167386454
C           -1.76459766572271       -1.39450318441593       -6.05928928022086
C           -0.38907061010256       -1.42152683364741       -5.90924270527903
C            0.20954056137642       -0.89438529181453       -4.77747959870207
C            1.70794219254167       -0.90695429725399       -4.60114983417459
N            2.08396851826225       -1.75142954017579       -3.48680748486402
C            2.46780034073522       -1.33551195145625       -2.28562448492605
N            2.67905006250438       -2.35670037221747       -1.46333959871604
C            2.40637187187285       -3.51624236688010       -2.16118484286087
C            2.01549159514505       -3.12767194787131       -3.45641478797566
C            1.65974639469908       -4.06839317340657       -4.41526549187626
C            1.71068625793593       -5.39408760571630       -4.03817122205828
C            2.10255621066978       -5.78040044860469       -2.75288216082340
C            2.45596289819524       -4.85539957345357       -1.79255578287444
C            3.11110828099590       -2.32579231756167       -0.08013883341588
C            3.44136255092254       -0.92074236260878        0.41471302486418
C            4.72483200738578       -0.35657155128689       -0.18821746201058
Si           4.96893882380887        1.52593656192207        0.16924989411260
C            3.44774691202410        2.44253177323138       -0.54144993698856
C            5.07754384981423        1.78762116321845        2.04863464459306
C            6.54807107295805        2.08279840272599       -0.72876010686624
H           -1.33762641767823        0.21524433658002       -1.17683743425112
H           -1.19639124899852        1.70934399582096       -2.14602572620381
H            0.09366085137940        1.26135890574856       -1.00912172744159
H           -2.59861387804972        0.12275959309777       -3.16389077911423
H           -3.61945763192723       -0.81322430342714       -5.16905427311078
H           -2.21974207360437       -1.79987115712119       -6.94823677071355
H            0.22855920580904       -1.83794097237657       -6.69132195036812
H            2.19201250584005       -1.28276509137097       -5.50527486892118
H            2.06792734810984        0.10271477668029       -4.38936598503874
H            2.58047404701417       -0.30067372985526       -2.02836223359358
H            1.34982612870891       -3.77642813235064       -5.40420292946014
H            1.44029478392630       -6.15597798700657       -4.75157986233099
H            2.12636651571214       -6.83016150721257       -2.50788209059092
H            2.75472530105666       -5.15929157451709       -0.80290798162732
H            2.31052722007619       -2.76352954070990        0.52578233785565
H            3.99378426218330       -2.96755833590341        0.00722803099015
H            2.59281702195398       -0.26409089052383        0.21875730526016
H            3.55816207855922       -0.97279728827620        1.49682202122370
H            5.57084202275892       -0.91331319942345        0.21340561433819
H            4.74308220701326       -0.52398208276334       -1.26609370639777
H            2.53430002254261        2.19125389119701       -0.00970946491051
H            3.58154171514811        3.51508816783057       -0.44562057023568
H            3.29204658635918        2.23578171045834       -1.59726803911624
H            5.88994934400609        1.21304689829825        2.48339321082896
H            5.25922296584887        2.83179668447758        2.28278639621298
H            4.16112971407259        1.49806592718337        2.55456329538953
H            7.41875441450175        1.54161233674800       -0.37235277838490
H            6.48390366533647        1.92942168987099       -1.80197317220508
H            6.73340728096190        3.13890122097922       -0.56275693982008

          :  Hamiltonian                  GFN2-xTB          :
         :: total energy             -71.040484483920 Eh    ::
         :: gradient norm              0.000337379831 Eh/a0 ::
         :: HOMO-LUMO gap              2.356821304706 eV    ::
         :: SCC energy               -72.174228843046 Eh    ::
         :: -> dispersion             -0.056013490331 Eh    ::
         :: repulsion energy           1.133744359125 Eh    ::

    * Orbital Energies and Occupations

         #    Occupation            Energy/Eh            Energy/eV
      -------------------------------------------------------------
         1        2.0000           -0.8621709             -23.4609
       ...           ...                  ...                  ...
        54        2.0000           -0.5433675             -14.7858
        55        2.0000           -0.5420229             -14.7492
        56        2.0000           -0.5400790             -14.6963
        57        2.0000           -0.5390663             -14.6687
        58        2.0000           -0.5385325             -14.6542
        59        2.0000           -0.5371135             -14.6156
        60        2.0000           -0.5326444             -14.4940
        61        2.0000           -0.5253162             -14.2946
        62        2.0000           -0.5116205             -13.9219
        63        2.0000           -0.4889992             -13.3063
        64        2.0000           -0.4868716             -13.2485
        65        2.0000           -0.4847537             -13.1908
        66        2.0000           -0.4833964             -13.1539 (HOMO)
        67                         -0.3967848             -10.7971 (LUMO)
        68                         -0.3505571              -9.5391
        69                         -0.3414460              -9.2912
        70                         -0.3331343              -9.0650
        71                         -0.3215570              -8.7500
        72                         -0.2249213              -6.1204
        73                         -0.2229207              -6.0660
        74                         -0.2194839              -5.9725
        75                         -0.2174557              -5.9173
        76                         -0.2034900              -5.5372
        77                         -0.1576729              -4.2905
       ...                                ...                  ...
       134                          0.5585056              15.1977
      -------------------------------------------------------------
                  HL-Gap            0.0866116 Eh            2.3568 eV

     #   Z          covCN         q      C6AA      α(0)
     1   6 C        3.642     0.032    20.380     6.491
     2   8 O        1.704    -0.290    18.812     5.856
     3   6 C        2.867     0.136    25.032     8.201
     4   6 C        2.917    -0.061    29.517     8.909
     5   6 C        2.922    -0.024    28.594     8.769
     6   6 C        2.917    -0.035    28.866     8.810
     7   6 C        2.923    -0.035    28.872     8.812
     8   6 C        2.972    -0.024    28.588     8.770
     9   6 C        3.747    -0.016    20.924     6.524
    10   7 N        2.832     0.035    20.634     6.747
    11   6 C        3.073     0.072    26.314     8.411
    12   7 N        2.826     0.032    20.692     6.756
    13   6 C        3.127     0.036    27.012     8.510
    14   6 C        3.118     0.040    26.932     8.500
    15   6 C        2.909    -0.033    28.824     8.803
    16   6 C        2.926    -0.020    28.509     8.756
    17   6 C        2.926    -0.020    28.504     8.755
    18   6 C        2.909    -0.035    28.868     8.810
    19   6 C        3.740    -0.017    20.949     6.530
    20   6 C        3.811    -0.073    21.880     6.658
    21   6 C        3.695    -0.174    24.087     7.021
    22  14 Si       3.502     0.488   100.818    19.425
    23   6 C        3.648    -0.210    25.040     7.190
    24   6 C        3.650    -0.211    25.071     7.193
    25   6 C        3.650    -0.212    25.085     7.194
    26   1 H        0.924     0.047     2.352     2.398
    27   1 H        0.924     0.056     2.242     2.341
    28   1 H        0.925     0.062     2.177     2.308
    29   1 H        0.926     0.055     2.261     2.352
    30   1 H        0.926     0.060     2.203     2.321
    31   1 H        0.926     0.058     2.218     2.329
    32   1 H        0.926     0.047     2.364     2.404
    33   1 H        0.924     0.083     1.952     2.185
    34   1 H        0.924     0.084     1.939     2.177
    35   1 H        0.926     0.121     1.603     1.980
    36   1 H        0.926     0.070     2.082     2.256
    37   1 H        0.926     0.076     2.023     2.224
    38   1 H        0.926     0.076     2.022     2.224
    39   1 H        0.926     0.067     2.117     2.275
    40   1 H        0.924     0.076     2.026     2.226
    41   1 H        0.924     0.083     1.947     2.182
    42   1 H        0.924     0.039     2.461     2.453
    43   1 H        0.925     0.061     2.186     2.312
    44   1 H        0.925     0.031     2.566     2.505
    45   1 H        0.924     0.013     2.848     2.639
    46   1 H        0.925     0.026     2.644     2.543
    47   1 H        0.925     0.044     2.398     2.422
    48   1 H        0.925     0.026     2.646     2.544
    49   1 H        0.925     0.045     2.379     2.412
    50   1 H        0.925     0.047     2.353     2.399
    51   1 H        0.925     0.040     2.453     2.449
    52   1 H        0.925     0.043     2.409     2.427
    53   1 H        0.925     0.039     2.466     2.456
    54   1 H        0.925     0.043     2.406     2.426

Wiberg/Mayer (AO) data.
largest (>0.10) Wiberg bond orders for each atom

     #   Z sym  total        # sym  WBO       # sym  WBO       # sym  WBO
 ---------------------------------------------------------------------------
     1   6 C    3.938 --    28 H    0.979    26 H    0.977    27 H    0.977
                             2 O    0.976
     2   8 O    2.214 --     3 C    1.053     1 C    0.976
     3   6 C    3.935 --     4 C    1.384     8 C    1.328     2 O    1.053
     4   6 C    3.988 --     5 C    1.439     3 C    1.384    29 H    0.964
                             7 C    0.105
     5   6 C    3.988 --     6 C    1.440     4 C    1.439    30 H    0.969
                             8 C    0.106
     6   6 C    3.989 --     5 C    1.440     7 C    1.430    31 H    0.969
     7   6 C    3.989 --     8 C    1.432     6 C    1.430    32 H    0.966
                             4 C    0.105
     8   6 C    3.974 --     7 C    1.432     3 C    1.328     9 C    0.987
                             5 C    0.106
     9   6 C    3.944 --     8 C    0.987    10 N    0.962    33 H    0.961
                            34 H    0.959
    10   7 N    3.683 --    11 C    1.367    14 C    1.130     9 C    0.962
                            12 N    0.100
    11   6 C    3.948 --    12 N    1.373    10 N    1.367    35 H    0.945
    12   7 N    3.681 --    11 C    1.373    13 C    1.127    19 C    0.965
                            10 N    0.100
    13   6 C    3.954 --    18 C    1.339    14 C    1.275    12 N    1.127
    14   6 C    3.954 --    15 C    1.339    13 C    1.275    10 N    1.130
    15   6 C    3.986 --    16 C    1.495    14 C    1.339    36 H    0.963
                            18 C    0.119
    16   6 C    3.987 --    15 C    1.495    17 C    1.378    37 H    0.967
    17   6 C    3.987 --    18 C    1.495    16 C    1.378    38 H    0.967
    18   6 C    3.986 --    17 C    1.495    13 C    1.339    39 H    0.964
                            15 C    0.119
    19   6 C    3.941 --    20 C    1.001    12 N    0.965    41 H    0.957
                            40 H    0.956
    20   6 C    3.985 --    21 C    1.024    19 C    1.001    42 H    0.974
                            43 H    0.973
    21   6 C    3.962 --    20 C    1.024    44 H    0.986    45 H    0.982
                            22 Si   0.832
    22  14 Si   3.617 --    24 C    0.911    25 C    0.904    23 C    0.893
                            21 C    0.832
    23   6 C    3.978 --    47 H    0.988    46 H    0.987    48 H    0.987
                            22 Si   0.893
    24   6 C    3.983 --    50 H    0.985    51 H    0.984    49 H    0.984
                            22 Si   0.911
    25   6 C    3.982 --    54 H    0.987    52 H    0.986    53 H    0.985
                            22 Si   0.904
    26   1 H    0.998 --     1 C    0.977
    27   1 H    0.997 --     1 C    0.977
    28   1 H    0.996 --     1 C    0.979
    29   1 H    0.996 --     4 C    0.964
    30   1 H    0.996 --     5 C    0.969
    31   1 H    0.996 --     6 C    0.969
    32   1 H    0.997 --     7 C    0.966
    33   1 H    0.992 --     9 C    0.961
    34   1 H    0.992 --     9 C    0.959
    35   1 H    0.984 --    11 C    0.945
    36   1 H    0.994 --    15 C    0.963
    37   1 H    0.994 --    16 C    0.967
    38   1 H    0.994 --    17 C    0.967
    39   1 H    0.995 --    18 C    0.964
    40   1 H    0.993 --    19 C    0.956
    41   1 H    0.992 --    19 C    0.957
    42   1 H    0.998 --    20 C    0.974
    43   1 H    0.996 --    20 C    0.973
    44   1 H    0.999 --    21 C    0.986
    45   1 H    1.000 --    21 C    0.982
    46   1 H    0.999 --    23 C    0.987
    47   1 H    0.998 --    23 C    0.988
    48   1 H    0.999 --    23 C    0.987
    49   1 H    0.998 --    24 C    0.984
    50   1 H    0.998 --    24 C    0.985
    51   1 H    0.998 --    24 C    0.984
    52   1 H    0.998 --    25 C    0.986
    53   1 H    0.999 --    25 C    0.985
    54   1 H    0.998 --    25 C    0.987
 ---------------------------------------------------------------------------

molecular dipole:
                 x           y           z       tot (Debye)
 q only:        3.823      -3.428      -4.381
   full:        3.728      -3.296      -4.247      16.628

           -------------------------------------------------
          | TOTAL ENERGY              -71.040484483920 Eh   |
          | GRADIENT NORM               0.000337379831 Eh/α |
          | HOMO-LUMO GAP               2.356821304706 eV   |
           -------------------------------------------------

 * finished run on 2024/12/20 at 06:43:26.452
