   * xtb version 6.7.1 (edcfbbe) compiled by 'conda@3ef47c1a292c' on 2024-11-25

   ID    Z sym.   atoms
    1    6 C      1-5, 7-18
    2   15 P      6
    3    1 H      19-56

          program call               : xtb C0399.xyz --opt --namespace C0399 --charge +1
          :  Hamiltonian                  GFN2-xTB          :
 * total energy  :   -57.9235826 Eh     change       -0.2275158E-09 Eh
 * total energy  :   -57.9291089 Eh     change       -0.5526318E-02 Eh
 * total energy  :   -57.9306507 Eh     change       -0.1541807E-02 Eh
 * total energy  :   -57.9308741 Eh     change       -0.2234527E-03 Eh
 * total energy  :   -57.9309941 Eh     change       -0.1199248E-03 Eh
 * total energy  :   -57.9310828 Eh     change       -0.8872349E-04 Eh
 * total energy  :   -57.9312023 Eh     change       -0.1195597E-03 Eh
 * total energy  :   -57.9313345 Eh     change       -0.1321679E-03 Eh
 * total energy  :   -57.9314648 Eh     change       -0.1302939E-03 Eh
 * total energy  :   -57.9315913 Eh     change       -0.1264935E-03 Eh
 * total energy  :   -57.9360204 Eh     change       -0.4079956E-04 Eh
 * total energy  :   -57.9360800 Eh     change       -0.5962131E-04 Eh
 * total energy  :   -57.9361121 Eh     change       -0.3206215E-04 Eh
 * total energy  :   -57.9361349 Eh     change       -0.2281528E-04 Eh
 * total energy  :   -57.9361598 Eh     change       -0.2496229E-04 Eh
 * total energy  :   -57.9361711 Eh     change       -0.1124685E-04 Eh
 * total energy  :   -57.9361822 Eh     change       -0.1113820E-04 Eh
 * total energy  :   -57.9361923 Eh     change       -0.1003879E-04 Eh
 * total energy  :   -57.9361966 Eh     change       -0.4358122E-05 Eh
   *** GEOMETRY OPTIMIZATION CONVERGED AFTER 44 ITERATIONS ***

 final structure:
================
56
 xtb: 6.7.1 (edcfbbe)
C            0.89752863694130        1.41980307066379        1.49197988766187
C            0.60013236632406        0.19123956316709        0.64103360738639
C            0.99607271057471       -1.12263156243140        1.31826443828501
C            0.17985678842057       -1.47194467883437        2.56443631619345
C           -1.29957305465419       -1.78297578136068        2.28209754382082
P           -1.68931369892657       -3.57063268086161        2.23833595740949
C           -1.10784995567185       -4.33418584477872        3.80146437443121
C           -1.28390042835834       -3.50561348814586        5.07629840953024
C           -2.73555383807389       -3.21657243795206        5.45762159810252
C           -3.49800400333208       -4.45529258593621        5.91313154466360
C           -3.49381980367092       -3.89826618367195        2.07321944332682
C           -4.36784531412158       -2.69609566641923        1.70895916652982
C           -4.25075323495137       -2.28139829160658        0.24136846356480
C           -5.05670095991837       -3.18050277985707       -0.68922411448444
C           -0.77634968431537       -4.53490365586839        0.96938673973940
C           -1.29525314384303       -4.49432732759517       -0.47055795736239
C           -0.80473207250611       -3.29521697152374       -1.28451973904693
C            0.62975145564424       -3.46690421482229       -1.77099668079742
H            0.28121176236724        1.44665129383281        2.38721605801051
H            0.69677842155144        2.32326187479208        0.92310309631735
H            1.94261481328204        1.43239395187471        1.79076277288618
H           -0.45962340739734        0.18507667419866        0.37446473561455
H            1.16362260453466        0.26718824762442       -0.29044686639848
H            0.92015346054863       -1.93271894174021        0.59321958144081
H            2.04370786105753       -1.04909413279075        1.61616276331202
H            0.65722729179978       -2.32075788828980        3.06006729042670
H            0.23115543491133       -0.62955942585020        3.25450871849345
H           -1.93113131145970       -1.37116967240331        3.07439431685131
H           -1.61986951448428       -1.32603560575878        1.34514135641543
H           -1.62915159745038       -5.29148557983118        3.89245745285536
H           -0.04537700731750       -4.55926315555926        3.66270503107271
H           -0.81339726282750       -4.05568709193150        5.89404669667678
H           -0.74702404771776       -2.56136287719659        4.97412953356696
H           -2.72987525402610       -2.49854063638810        6.27933550852773
H           -3.25286902187993       -2.74323623272661        4.61812605588597
H           -3.00748320226328       -4.90286019206089        6.77355425999588
H           -4.50919135793485       -4.18532436433582        6.20508160758196
H           -3.56416587611417       -5.21002517859559        5.13196486009450
H           -3.61094883557941       -4.68791617492874        1.32684161033563
H           -3.81793311975472       -4.31001573386155        3.03135625848632
H           -5.40686020540599       -2.96201660837620        1.91348695471551
H           -4.12233798254127       -1.85063321832247        2.35454157433723
H           -4.61704584882417       -1.25941687292189        0.13454064493767
H           -3.19982058825426       -2.29110083373602       -0.05892517450811
H           -6.11580387283069       -3.11482097703483       -0.45431056053538
H           -4.92032272549491       -2.87044208269076       -1.72142774580978
H           -4.75747364172168       -4.22338509592143       -0.60860424264075
H            0.26995197441648       -4.22232380225522        1.01121320808295
H           -0.82503180379266       -5.56516803397934        1.34168315139167
H           -0.96009791228055       -5.40421717367376       -0.97246678495837
H           -2.38556262797697       -4.51433907103467       -0.47342108952540
H           -1.45184417679266       -3.18006620249626       -2.15535692303363
H           -0.88846110372053       -2.38186911044958       -0.69188643860317
H            0.69903946301712       -4.31552746813530       -2.44653273866590
H            0.95291151270358       -2.57975260305734       -2.30864425433940
H            1.32185594009416       -3.63453848612387       -0.94834127825329

          :  Hamiltonian                  GFN2-xTB          :
         :: total energy             -57.936196631917 Eh    ::
         :: gradient norm              0.000282711651 Eh/a0 ::
         :: HOMO-LUMO gap              6.184432984298 eV    ::
         :: SCC energy               -58.793335849093 Eh    ::
         :: -> dispersion             -0.051069722341 Eh    ::
         :: repulsion energy           0.857139217176 Eh    ::

    * Orbital Energies and Occupations

         #    Occupation            Energy/Eh            Energy/eV
      -------------------------------------------------------------
         1        2.0000           -0.8411861             -22.8898
       ...           ...                  ...                  ...
        43        2.0000           -0.5611457             -15.2696
        44        2.0000           -0.5566920             -15.1484
        45        2.0000           -0.5557570             -15.1229
        46        2.0000           -0.5523775             -15.0310
        47        2.0000           -0.5516324             -15.0107
        48        2.0000           -0.5501177             -14.9695
        49        2.0000           -0.5485318             -14.9263
        50        2.0000           -0.5457799             -14.8514
        51        2.0000           -0.5430025             -14.7758
        52        2.0000           -0.5404731             -14.7070
        53        2.0000           -0.5354484             -14.5703
        54        2.0000           -0.5304494             -14.4343
        55        2.0000           -0.5252955             -14.2940 (HOMO)
        56                         -0.2980218              -8.1096 (LUMO)
        57                         -0.2819274              -7.6716
        58                         -0.2681384              -7.2964
        59                         -0.1945165              -5.2931
        60                         -0.1137210              -3.0945
        61                         -0.0747687              -2.0346
        62                         -0.0550101              -1.4969
        63                         -0.0492355              -1.3398
        64                         -0.0450152              -1.2249
        65                         -0.0401219              -1.0918
        66                         -0.0369670              -1.0059
       ...                                ...                  ...
       115                          0.7998487              21.7650
      -------------------------------------------------------------
                  HL-Gap            0.2272737 Eh            6.1844 eV

     #   Z          covCN         q      C6AA      α(0)
     1   6 C        3.752    -0.110    22.657     6.788
     2   6 C        3.799    -0.056    21.583     6.615
     3   6 C        3.801    -0.068    21.805     6.648
     4   6 C        3.854    -0.062    21.658     6.619
     5   6 C        3.749    -0.068    21.858     6.668
     6  15 P        3.892     0.175   152.674    22.196
     7   6 C        3.749    -0.078    22.051     6.697
     8   6 C        3.839    -0.066    21.742     6.633
     9   6 C        3.799    -0.060    21.655     6.626
    10   6 C        3.751    -0.111    22.681     6.792
    11   6 C        3.750    -0.076    22.009     6.691
    12   6 C        3.839    -0.064    21.701     6.627
    13   6 C        3.800    -0.061    21.669     6.628
    14   6 C        3.752    -0.110    22.672     6.790
    15   6 C        3.749    -0.074    21.983     6.687
    16   6 C        3.832    -0.065    21.726     6.632
    17   6 C        3.800    -0.058    21.615     6.620
    18   6 C        3.752    -0.111    22.675     6.791
    19   1 H        0.925     0.034     2.531     2.488
    20   1 H        0.925     0.047     2.353     2.399
    21   1 H        0.925     0.044     2.391     2.418
    22   1 H        0.924     0.025     2.654     2.547
    23   1 H        0.924     0.045     2.384     2.414
    24   1 H        0.925     0.040     2.443     2.444
    25   1 H        0.924     0.052     2.293     2.368
    26   1 H        0.924     0.047     2.362     2.403
    27   1 H        0.925     0.066     2.135     2.285
    28   1 H        0.928     0.089     1.892     2.151
    29   1 H        0.926     0.097     1.810     2.104
    30   1 H        0.927     0.086     1.914     2.164
    31   1 H        0.927     0.080     1.983     2.202
    32   1 H        0.924     0.066     2.125     2.280
    33   1 H        0.924     0.052     2.292     2.367
    34   1 H        0.924     0.055     2.264     2.353
    35   1 H        0.924     0.033     2.544     2.494
    36   1 H        0.925     0.052     2.295     2.369
    37   1 H        0.925     0.051     2.301     2.372
    38   1 H        0.925     0.029     2.597     2.520
    39   1 H        0.926     0.090     1.883     2.146
    40   1 H        0.927     0.093     1.848     2.126
    41   1 H        0.924     0.068     2.103     2.268
    42   1 H        0.924     0.046     2.374     2.409
    43   1 H        0.924     0.051     2.303     2.373
    44   1 H        0.924     0.037     2.490     2.468
    45   1 H        0.925     0.051     2.313     2.378
    46   1 H        0.925     0.051     2.311     2.377
    47   1 H        0.925     0.032     2.552     2.498
    48   1 H        0.926     0.093     1.850     2.127
    49   1 H        0.929     0.082     1.953     2.186
    50   1 H        0.924     0.065     2.143     2.289
    51   1 H        0.924     0.053     2.283     2.363
    52   1 H        0.924     0.051     2.311     2.378
    53   1 H        0.924     0.034     2.524     2.484
    54   1 H        0.925     0.049     2.335     2.389
    55   1 H        0.925     0.050     2.315     2.380
    56   1 H        0.925     0.033     2.540     2.492

Wiberg/Mayer (AO) data.
largest (>0.10) Wiberg bond orders for each atom

     #   Z sym  total        # sym  WBO       # sym  WBO       # sym  WBO
 ---------------------------------------------------------------------------
     1   6 C    3.994 --     2 C    1.021    21 H    0.987    20 H    0.986
                            19 H    0.985
     2   6 C    3.996 --     1 C    1.021     3 C    1.008    23 H    0.976
                            22 H    0.973
     3   6 C    3.993 --     2 C    1.008     4 C    1.006    25 H    0.973
                            24 H    0.967
     4   6 C    3.987 --     3 C    1.006     5 C    0.980    27 H    0.969
                            26 H    0.962
     5   6 C    3.985 --     6 P    1.003     4 C    0.980    28 H    0.928
                            29 H    0.927
     6  15 P    4.558 --     7 C    1.009    15 C    1.006     5 C    1.003
                            11 C    0.992
     7   6 C    3.989 --     6 P    1.009     8 C    0.991    31 H    0.936
                            30 H    0.932
     8   6 C    3.986 --     9 C    1.008     7 C    0.991    33 H    0.969
                            32 H    0.968
     9   6 C    3.995 --    10 C    1.021     8 C    1.008    34 H    0.975
                            35 H    0.962
    10   6 C    3.994 --     9 C    1.021    36 H    0.985    37 H    0.985
                            38 H    0.981
    11   6 C    3.984 --     6 P    0.992    12 C    0.991    40 H    0.931
                            39 H    0.930
    12   6 C    3.988 --    13 C    1.007    11 C    0.991    42 H    0.968
                            41 H    0.968
    13   6 C    3.995 --    14 C    1.021    12 C    1.007    43 H    0.976
                            44 H    0.961
    14   6 C    3.994 --    13 C    1.021    45 H    0.986    46 H    0.985
                            47 H    0.983
    15   6 C    3.987 --     6 P    1.006    16 C    0.991    48 H    0.931
                            49 H    0.930
    16   6 C    3.986 --    17 C    1.006    15 C    0.991    50 H    0.969
                            51 H    0.961
    17   6 C    3.995 --    18 C    1.020    16 C    1.006    52 H    0.976
                            53 H    0.966
    18   6 C    3.993 --    17 C    1.020    54 H    0.986    55 H    0.985
                            56 H    0.982
    19   1 H    0.999 --     1 C    0.985
    20   1 H    0.998 --     1 C    0.986
    21   1 H    0.998 --     1 C    0.987
    22   1 H    0.999 --     2 C    0.973
    23   1 H    0.998 --     2 C    0.976
    24   1 H    0.998 --     3 C    0.967
    25   1 H    0.997 --     3 C    0.973
    26   1 H    0.998 --     4 C    0.962
    27   1 H    0.995 --     4 C    0.969
    28   1 H    0.992 --     5 C    0.928
    29   1 H    0.990 --     5 C    0.927
    30   1 H    0.992 --     7 C    0.932
    31   1 H    0.993 --     7 C    0.936
    32   1 H    0.995 --     8 C    0.968
    33   1 H    0.997 --     8 C    0.969
    34   1 H    0.997 --     9 C    0.975
    35   1 H    0.999 --     9 C    0.962
    36   1 H    0.997 --    10 C    0.985
    37   1 H    0.997 --    10 C    0.985
    38   1 H    0.999 --    10 C    0.981
    39   1 H    0.992 --    11 C    0.930
    40   1 H    0.991 --    11 C    0.931
    41   1 H    0.995 --    12 C    0.968
    42   1 H    0.998 --    12 C    0.968
    43   1 H    0.997 --    13 C    0.976
    44   1 H    0.999 --    13 C    0.961
    45   1 H    0.997 --    14 C    0.986
    46   1 H    0.997 --    14 C    0.985
    47   1 H    0.999 --    14 C    0.983
    48   1 H    0.991 --    15 C    0.931
    49   1 H    0.993 --    15 C    0.930
    50   1 H    0.995 --    16 C    0.969
    51   1 H    0.997 --    16 C    0.961
    52   1 H    0.997 --    17 C    0.976
    53   1 H    0.999 --    17 C    0.966
    54   1 H    0.997 --    18 C    0.986
    55   1 H    0.997 --    18 C    0.985
    56   1 H    0.999 --    18 C    0.982
 ---------------------------------------------------------------------------

molecular dipole:
                 x           y           z       tot (Debye)
 q only:       -3.192      -6.232       3.957
   full:       -3.175      -6.393       4.058      20.870

           -------------------------------------------------
          | TOTAL ENERGY              -57.936196631917 Eh   |
          | GRADIENT NORM               0.000282711651 Eh/α |
          | HOMO-LUMO GAP               6.184432984298 eV   |
           -------------------------------------------------

 * finished run on 2024/12/20 at 06:43:33.072
