   * xtb version 6.7.1 (edcfbbe) compiled by 'conda@3ef47c1a292c' on 2024-11-25

   ID    Z sym.   atoms
    1    8 O      1, 3, 23
    2    6 C      2, 4, 6-11, 13-22, 24-29
    3    7 N      5, 12
    4    1 H      30-50

          program call               : xtb C0391.xyz --opt --namespace C0391 --charge +1
          :  Hamiltonian                  GFN2-xTB          :
 * total energy  :   -79.7493148 Eh     change       -0.1174257E-08 Eh
 * total energy  :   -79.7614615 Eh     change       -0.1214668E-01 Eh
 * total energy  :   -79.7652696 Eh     change       -0.3808149E-02 Eh
 * total energy  :   -79.7661497 Eh     change       -0.8801040E-03 Eh
 * total energy  :   -79.7667837 Eh     change       -0.6339709E-03 Eh
 * total energy  :   -79.7673611 Eh     change       -0.5773620E-03 Eh
 * total energy  :   -79.7679648 Eh     change       -0.6036812E-03 Eh
 * total energy  :   -79.7687098 Eh     change       -0.7450813E-03 Eh
 * total energy  :   -79.7694946 Eh     change       -0.7847223E-03 Eh
 * total energy  :   -79.7702327 Eh     change       -0.7381434E-03 Eh
 * total energy  :   -79.7849102 Eh     change       -0.8467766E-05 Eh
 * total energy  :   -79.7849183 Eh     change       -0.8148772E-05 Eh
 * total energy  :   -79.7849247 Eh     change       -0.6377248E-05 Eh
 * total energy  :   -79.7849302 Eh     change       -0.5527026E-05 Eh
 * total energy  :   -79.7849358 Eh     change       -0.5585513E-05 Eh
 * total energy  :   -79.7849419 Eh     change       -0.6106350E-05 Eh
 * total energy  :   -79.7849483 Eh     change       -0.6399836E-05 Eh
 * total energy  :   -79.7849542 Eh     change       -0.5866984E-05 Eh
 * total energy  :   -79.7849590 Eh     change       -0.4760430E-05 Eh
   *** GEOMETRY OPTIMIZATION CONVERGED AFTER 90 ITERATIONS ***

 final structure:
================
50
 xtb: 6.7.1 (edcfbbe)
O           -0.08888833443223       -0.02678887560341        0.49661027840658
C           -0.56142247885196        0.92597224535574       -0.30377788115634
O           -0.48688652545109        2.09649410872905       -0.09531767145530
C           -1.18468151057376        0.32763976054687       -1.57495981919824
N           -1.69820283888331       -0.99691009597713       -1.36774769809196
C           -0.97172676432245       -2.16361611031110       -1.50164492281882
C            0.33548176193468       -2.40367882491192       -1.90207269559359
C            0.74177526821534       -3.72138392268598       -1.95593741349052
C           -0.12322117063968       -4.76845568195653       -1.63139915504514
C           -1.42273619362211       -4.53821737892015       -1.22726972156530
C           -1.83744329700097       -3.21386597871072       -1.15417121422044
N           -3.04208837020962       -2.63261569010721       -0.79496823779989
C           -2.93132166184869       -1.30519408463833       -0.93961607078392
C           -3.97781576314780       -0.29316622957518       -0.67595281297877
C           -3.54629219503175        0.66305376579502        0.42425168135044
C           -3.74519228331742        2.02923831236266        0.28571254668650
C           -3.36322106552319        2.89531197667296        1.29481280757632
C           -2.77843503633415        2.40311463766324        2.44887187603974
C           -2.58236383446828        1.04044919049690        2.59373473868540
C           -2.96268543574035        0.17222742482178        1.58518669409695
C           -4.22378196900000       -3.34571990624921       -0.37144168598455
C           -4.74108313076772       -2.90698376093955        1.02581158804469
O           -5.78712622404141       -2.30528268254033        1.07871943861629
C           -3.94016654397016       -3.23892950121104        2.20800021675481
C           -2.73087059759565       -3.93899901513224        2.16550310947054
C           -2.04449449459957       -4.20361494317070        3.33486127561352
C           -2.54923505916651       -3.78330355870940        4.55710065490900
C           -3.74797320786964       -3.08764305686876        4.61134243508641
C           -4.43759708026929       -2.81581537450826        3.44790616271316
H            0.33029496880270        0.35843438327983        1.28370329155460
H           -1.96703874199846        1.00480280100388       -1.92171013516774
H           -0.39961530991408        0.28968791861249       -2.33638833865317
H            1.00889416560840       -1.60218772903740       -2.15625241547945
H            1.74961668591898       -3.95142913787734       -2.26185438935299
H            0.23355535804511       -5.78353191135807       -1.70076547325497
H           -2.07891304468963       -5.36159847287429       -0.99371389215684
H           -4.16719615343478        0.27763478401388       -1.59033596317509
H           -4.91491034313493       -0.77227427906816       -0.38774512341749
H           -4.20475323039765        2.42074054811282       -0.60981897022145
H           -3.52006673971530        3.95540445816648        1.17639498018152
H           -2.47786863385292        3.07910678811465        3.23351704831524
H           -2.13357119454057        0.64638508819070        3.49333868324875
H           -2.80355161165011       -0.89037863322901        1.70842943607796
H           -5.03894951600541       -3.16354448624037       -1.08009532672259
H           -4.00552331138694       -4.41357576827811       -0.36135208830604
H           -2.31571334620870       -4.28526969443968        1.23258065190272
H           -1.11298871893098       -4.74743582316440        3.29484722715118
H           -2.00930573678039       -4.00278845094652        5.46519887298126
H           -4.14383766292303       -2.76224123114684        5.56056531834264
H           -5.37152184625596       -2.27508790148565        3.46724810226884

          :  Hamiltonian                  GFN2-xTB          :
         :: total energy             -79.784958956577 Eh    ::
         :: gradient norm              0.000235967037 Eh/a0 ::
         :: HOMO-LUMO gap              2.742756473090 eV    ::
         :: SCC energy               -81.050926989997 Eh    ::
         :: -> dispersion             -0.065172995588 Eh    ::
         :: repulsion energy           1.265968033419 Eh    ::

    * Orbital Energies and Occupations

         #    Occupation            Energy/Eh            Energy/eV
      -------------------------------------------------------------
         1        2.0000           -0.8815918             -23.9893
       ...           ...                  ...                  ...
        60        2.0000           -0.5719937             -15.5647
        61        2.0000           -0.5606364             -15.2557
        62        2.0000           -0.5518375             -15.0163
        63        2.0000           -0.5470341             -14.8856
        64        2.0000           -0.5413776             -14.7316
        65        2.0000           -0.5359341             -14.5835
        66        2.0000           -0.5321363             -14.4802
        67        2.0000           -0.5303462             -14.4315
        68        2.0000           -0.5252727             -14.2934
        69        2.0000           -0.5234838             -14.2447
        70        2.0000           -0.5194604             -14.1352
        71        2.0000           -0.5117165             -13.9245
        72        2.0000           -0.5086656             -13.8415 (HOMO)
        73                         -0.4078711             -11.0987 (LUMO)
        74                         -0.4062376             -11.0543
        75                         -0.3666899              -9.9781
        76                         -0.3606083              -9.8127
        77                         -0.3535197              -9.6198
        78                         -0.3406390              -9.2693
        79                         -0.3320252              -9.0349
        80                         -0.3297786              -8.9737
        81                         -0.3133618              -8.5270
        82                         -0.2356056              -6.4112
        83                         -0.2051647              -5.5828
       ...                                ...                  ...
       137                          0.5570297              15.1575
      -------------------------------------------------------------
                  HL-Gap            0.1007944 Eh            2.7428 eV

     #   Z          covCN         q      C6AA      α(0)
     1   8 O        1.659    -0.366    20.198     6.067
     2   6 C        2.686     0.363    20.845     7.472
     3   8 O        0.856    -0.356    20.828     6.119
     4   6 C        3.741    -0.045    21.452     6.608
     5   7 N        2.832     0.019    20.911     6.792
     6   6 C        3.092     0.042    26.954     8.510
     7   6 C        2.909    -0.031    28.785     8.798
     8   6 C        2.926    -0.019    28.481     8.752
     9   6 C        2.925    -0.020    28.508     8.756
    10   6 C        2.909    -0.035    28.859     8.809
    11   6 C        3.094     0.040    27.003     8.517
    12   7 N        2.827     0.011    21.066     6.817
    13   6 C        3.073     0.122    25.252     8.239
    14   6 C        3.810    -0.083    22.080     6.689
    15   6 C        2.974     0.004    27.938     8.670
    16   6 C        2.923    -0.035    28.861     8.810
    17   6 C        2.920    -0.016    28.417     8.742
    18   6 C        2.920    -0.021    28.522     8.758
    19   6 C        2.920    -0.028    28.710     8.787
    20   6 C        2.923    -0.041    29.031     8.836
    21   6 C        3.738    -0.041    21.392     6.600
    22   6 C        2.819     0.225    23.276     7.905
    23   8 O        0.858    -0.336    20.448     6.063
    24   6 C        2.969    -0.017    28.435     8.747
    25   6 C        2.919    -0.031    28.763     8.795
    26   6 C        2.917    -0.023    28.589     8.768
    27   6 C        2.920    -0.010    28.266     8.718
    28   6 C        2.916    -0.019    28.473     8.750
    29   6 C        2.928    -0.010    28.278     8.721
    30   1 H        0.804     0.352     0.584     1.200
    31   1 H        0.924     0.110     1.696     2.036
    32   1 H        0.924     0.115     1.658     2.013
    33   1 H        0.926     0.069     2.101     2.267
    34   1 H        0.926     0.079     1.990     2.206
    35   1 H        0.926     0.078     1.997     2.210
    36   1 H        0.926     0.065     2.139     2.287
    37   1 H        0.924     0.087     1.911     2.162
    38   1 H        0.924     0.104     1.750     2.069
    39   1 H        0.926     0.046     2.373     2.409
    40   1 H        0.926     0.062     2.173     2.305
    41   1 H        0.926     0.058     2.225     2.332
    42   1 H        0.926     0.042     2.422     2.434
    43   1 H        0.925     0.015     2.808     2.621
    44   1 H        0.924     0.095     1.836     2.119
    45   1 H        0.925     0.094     1.845     2.124
    46   1 H        0.926     0.035     2.511     2.478
    47   1 H        0.926     0.052     2.290     2.366
    48   1 H        0.926     0.063     2.169     2.303
    49   1 H        0.926     0.064     2.158     2.297
    50   1 H        0.926     0.076     2.020     2.223

Wiberg/Mayer (AO) data.
largest (>0.10) Wiberg bond orders for each atom

     #   Z sym  total        # sym  WBO       # sym  WBO       # sym  WBO
 ---------------------------------------------------------------------------
     1   8 O    2.214 --     2 C    1.149    30 H    0.851     3 O    0.185
     2   6 C    3.930 --     3 O    1.805     1 O    1.149     4 C    0.931
     3   8 O    2.096 --     2 C    1.805     1 O    0.185
     4   6 C    3.954 --     5 N    0.995    31 H    0.952    32 H    0.939
                             2 C    0.931
     5   7 N    3.659 --    13 C    1.315     6 C    1.115     4 C    0.995
     6   6 C    3.952 --     7 C    1.345    11 C    1.278     5 N    1.115
     7   6 C    3.984 --     8 C    1.488     6 C    1.345    33 H    0.963
                            10 C    0.117
     8   6 C    3.983 --     7 C    1.488     9 C    1.384    34 H    0.966
     9   6 C    3.983 --    10 C    1.487     8 C    1.384    35 H    0.966
    10   6 C    3.984 --     9 C    1.487    11 C    1.343    36 H    0.960
                             7 C    0.117
    11   6 C    3.951 --    10 C    1.343     6 C    1.278    12 N    1.112
    12   7 N    3.654 --    13 C    1.326    11 C    1.112    21 C    0.978
    13   6 C    3.948 --    12 N    1.326     5 N    1.315    14 C    1.031
    14   6 C    3.975 --    13 C    1.031    15 C    0.965    38 H    0.945
                            37 H    0.937
    15   6 C    3.975 --    16 C    1.416    20 C    1.411    14 C    0.965
                            18 C    0.108
    16   6 C    3.989 --    17 C    1.441    15 C    1.416    39 H    0.967
                            19 C    0.110
    17   6 C    3.988 --    16 C    1.441    18 C    1.438    40 H    0.968
                            20 C    0.111
    18   6 C    3.989 --    19 C    1.440    17 C    1.438    41 H    0.969
                            15 C    0.108
    19   6 C    3.992 --    20 C    1.442    18 C    1.440    42 H    0.970
                            16 C    0.110
    20   6 C    3.992 --    19 C    1.442    15 C    1.411    43 H    0.966
                            17 C    0.111
    21   6 C    3.942 --    12 N    0.978    44 H    0.956    45 H    0.954
                            22 C    0.927
    22   6 C    3.929 --    23 O    1.828    24 C    1.069    21 C    0.927
    23   8 O    2.098 --    22 C    1.828
    24   6 C    3.986 --    25 C    1.361    29 C    1.352    22 C    1.069
    25   6 C    3.992 --    26 C    1.467    24 C    1.361    46 H    0.963
                            28 C    0.103
    26   6 C    3.991 --    25 C    1.467    27 C    1.422    47 H    0.969
                            29 C    0.101
    27   6 C    3.986 --    28 C    1.427    26 C    1.422    48 H    0.969
    28   6 C    3.989 --    29 C    1.465    27 C    1.427    49 H    0.967
                            25 C    0.103
    29   6 C    3.984 --    28 C    1.465    24 C    1.352    50 H    0.964
                            26 C    0.101
    30   1 H    0.876 --     1 O    0.851
    31   1 H    0.987 --     4 C    0.952
    32   1 H    0.986 --     4 C    0.939
    33   1 H    0.995 --     7 C    0.963
    34   1 H    0.993 --     8 C    0.966
    35   1 H    0.993 --     9 C    0.966
    36   1 H    0.995 --    10 C    0.960
    37   1 H    0.989 --    14 C    0.937
    38   1 H    0.989 --    14 C    0.945
    39   1 H    0.998 --    16 C    0.967
    40   1 H    0.995 --    17 C    0.968
    41   1 H    0.996 --    18 C    0.969
    42   1 H    0.998 --    19 C    0.970
    43   1 H    1.000 --    20 C    0.966
    44   1 H    0.990 --    21 C    0.956
    45   1 H    0.991 --    21 C    0.954
    46   1 H    0.999 --    25 C    0.963
    47   1 H    0.997 --    26 C    0.969
    48   1 H    0.996 --    27 C    0.969
    49   1 H    0.995 --    28 C    0.967
    50   1 H    0.994 --    29 C    0.964
 ---------------------------------------------------------------------------

molecular dipole:
                 x           y           z       tot (Debye)
 q only:       -3.227      -4.032      -0.357
   full:       -3.141      -4.209      -0.405      13.390

           -------------------------------------------------
          | TOTAL ENERGY              -79.784958956577 Eh   |
          | GRADIENT NORM               0.000235967037 Eh/α |
          | HOMO-LUMO GAP               2.742756473090 eV   |
           -------------------------------------------------

 * finished run on 2024/12/20 at 06:43:14.060
