   * xtb version 6.7.1 (edcfbbe) compiled by 'conda@3ef47c1a292c' on 2024-11-25

   ID    Z sym.   atoms
    1    6 C      1, 2, 4, 5, 7-29
    2    7 N      3, 6, 31
    3    8 O      30
    4    1 H      32-59

          program call               : xtb C0395.xyz --opt --namespace C0395 --charge +1
          :  Hamiltonian                  GFN2-xTB          :
 * total energy  :   -84.5522064 Eh     change       -0.6289014E-09 Eh
 * total energy  :   -84.5675488 Eh     change       -0.1534244E-01 Eh
 * total energy  :   -84.5728499 Eh     change       -0.5301081E-02 Eh
 * total energy  :   -84.5745300 Eh     change       -0.1680061E-02 Eh
 * total energy  :   -84.5754639 Eh     change       -0.9339163E-03 Eh
 * total energy  :   -84.5758785 Eh     change       -0.4146714E-03 Eh
 * total energy  :   -84.5761236 Eh     change       -0.2450476E-03 Eh
 * total energy  :   -84.5763357 Eh     change       -0.2121006E-03 Eh
 * total energy  :   -84.5765279 Eh     change       -0.1921900E-03 Eh
 * total energy  :   -84.5767146 Eh     change       -0.1867166E-03 Eh
 * total energy  :   -84.5827382 Eh     change       -0.1831779E-04 Eh
 * total energy  :   -84.5827601 Eh     change       -0.2188662E-04 Eh
 * total energy  :   -84.5827863 Eh     change       -0.2626466E-04 Eh
 * total energy  :   -84.5828149 Eh     change       -0.2860411E-04 Eh
 * total energy  :   -84.5828097 Eh     change        0.5242653E-05 Eh
 * total energy  :   -84.5828484 Eh     change       -0.3867003E-04 Eh
 * total energy  :   -84.5828396 Eh     change        0.8724669E-05 Eh
 * total energy  :   -84.5828515 Eh     change       -0.1185395E-04 Eh
 * total energy  :   -84.5828559 Eh     change       -0.4422500E-05 Eh
   *** GEOMETRY OPTIMIZATION CONVERGED AFTER 71 ITERATIONS ***

 final structure:
================
59
 xtb: 6.7.1 (edcfbbe)
C           -0.23429815987985       -0.60750407434118       -0.64216275571803
C            0.27179419370534       -0.76349055730674        0.73459723488739
N            0.56678550752862        0.18987858513067        1.62295451187960
C            0.97495785015514       -0.41186625265568        2.78099640655645
C            0.91635357687019       -1.75150168894687        2.58680158269671
N            0.47953514862465       -1.95172359148462        1.31097738369101
C            0.26146628432773       -3.23576982442125        0.68597950829575
C           -1.20973075249860       -3.50978563294435        0.46287645628051
C           -2.12399456041399       -3.28896152179514        1.48666536723218
C           -3.46815767855685       -3.55342866540758        1.28972344399156
C           -3.90825284697422       -4.04626791749609        0.07187155165060
C           -3.00070904040555       -4.27199458999064       -0.94973312068515
C           -1.65650859823494       -4.00001490603255       -0.75722216823923
C            0.62861349430945        1.61895040505563        1.42737539420662
C            2.07619699390839        2.13221690958438        1.35751959926108
C            2.76991065283944        2.10124438757736       -0.03138399992005
C            1.79319199590100        2.54304146152681       -1.10976005593824
C            1.12226778970669        3.75627961590152       -0.96000213979930
C            0.22709006651123        4.19398149296048       -1.91824219969990
C           -0.01712326438719        3.42719945010660       -3.04625653905700
C            0.64731194055393        2.22514798540442       -3.20832031195471
C            1.54660672420987        1.78690705359603       -2.24853150767211
C            3.98323750189695        3.03056627852933        0.01804420022460
C            4.89802854376905        2.91309203190031        1.06138796463820
C            6.01468486339656        3.72690983121411        1.11926675540344
C            6.24500995547359        4.66729046478229        0.12949464959001
C            5.35618396697845        4.77558729739996       -0.92459017206737
C            4.23772751331634        3.96068012756725       -0.98398068375373
C            3.28764958147653        0.68038645517027       -0.32709575167433
O            2.79601111177569       -0.32146941669983        0.16050049694537
N            4.31587568307625        0.62441134285823       -1.18674117944347
H           -1.15188519597009       -1.18214576576571       -0.76875747882442
H            0.50423744481806       -0.99299992173947       -1.34470873695221
H           -0.42532272222593        0.43188803977840       -0.88788976250096
H            1.26587615184205        0.14980627671523        3.64435158911701
H            1.15651254549514       -2.55947925410989        3.24651139467728
H            0.79981931659852       -3.26285521406763       -0.26522703251038
H            0.68652312838184       -3.99952209447469        1.34308375094430
H           -1.78523128664612       -2.91490903634201        2.44296751481367
H           -4.17071096647329       -3.38108154185406        2.09050414453464
H           -4.95542237162626       -4.25718248769501       -0.07866168880819
H           -3.33761081465695       -4.65982909428643       -1.89853972331449
H           -0.95073515555017       -4.17967253125486       -1.55523610531873
H            0.07871479205413        1.89087441017789        0.52645625806452
H            0.13731115285227        2.08551948367437        2.28581739681065
H            2.07778117032427        3.16647434157087        1.70214105026116
H            2.67467149517768        1.54936072459202        2.05776528771993
H            1.31734501920117        4.37508090629398       -0.09739053300289
H           -0.27574764919700        5.13961676519870       -1.78635876413899
H           -0.71299918797083        3.76948291076804       -3.79594402525424
H            0.47311293600574        1.62400499354607       -4.08775465845267
H            2.06005164078710        0.84986656558694       -2.40191989508271
H            4.75059389587659        2.17423177109759        1.83446598493806
H            6.70785997833840        3.62299882426322        1.93979229367285
H            7.11391488134544        5.30460152738452        0.17667865559906
H            5.52938720055320        5.49567114724596       -1.70945755600159
H            3.56197667285778        4.05906201717287       -1.82005693936820
H            4.75015516738487        1.45788550988901       -1.54628515565608
H            4.73261472141710       -0.26894180999114       -1.39504718756160

          :  Hamiltonian                  GFN2-xTB          :
         :: total energy             -84.582855915189 Eh    ::
         :: gradient norm              0.000990579208 Eh/a0 ::
         :: HOMO-LUMO gap              3.400399343211 eV    ::
         :: SCC energy               -86.022168696722 Eh    ::
         :: -> dispersion             -0.073964672485 Eh    ::
         :: repulsion energy           1.439312781533 Eh    ::

    * Orbital Energies and Occupations

         #    Occupation            Energy/Eh            Energy/eV
      -------------------------------------------------------------
         1        2.0000           -0.8521050             -23.1870
       ...           ...                  ...                  ...
        66        2.0000           -0.5261103             -14.3162
        67        2.0000           -0.5237957             -14.2532
        68        2.0000           -0.5226011             -14.2207
        69        2.0000           -0.5191604             -14.1271
        70        2.0000           -0.5157125             -14.0333
        71        2.0000           -0.5080653             -13.8252
        72        2.0000           -0.5067665             -13.7898
        73        2.0000           -0.5064111             -13.7801
        74        2.0000           -0.5044669             -13.7272
        75        2.0000           -0.5026442             -13.6776
        76        2.0000           -0.4951100             -13.4726
        77        2.0000           -0.4934392             -13.4272
        78        2.0000           -0.4854871             -13.2108 (HOMO)
        79                         -0.3605247              -9.8104 (LUMO)
        80                         -0.3324788              -9.0472
        81                         -0.3277993              -8.9199
        82                         -0.3249066              -8.8412
        83                         -0.3239463              -8.8150
        84                         -0.3216331              -8.7521
        85                         -0.3187691              -8.6741
        86                         -0.3144735              -8.5573
        87                         -0.3108743              -8.4593
        88                         -0.1997214              -5.4347
        89                         -0.1939915              -5.2788
       ...                                ...                  ...
       152                          0.5742553              15.6263
      -------------------------------------------------------------
                  HL-Gap            0.1249624 Eh            3.4004 eV

     #   Z          covCN         q      C6AA      α(0)
     1   6 C        3.755    -0.128    23.019     6.841
     2   6 C        3.105     0.126    25.108     8.210
     3   7 N        2.872     0.049    20.375     6.704
     4   6 C        3.062    -0.008    28.163     8.702
     5   6 C        3.047    -0.007    28.140     8.700
     6   7 N        2.882     0.050    20.366     6.703
     7   6 C        3.748    -0.026    21.102     6.552
     8   6 C        2.970    -0.002    28.067     8.690
     9   6 C        2.922    -0.039    28.972     8.827
    10   6 C        2.919    -0.024    28.613     8.772
    11   6 C        2.920    -0.023    28.587     8.768
    12   6 C        2.919    -0.024    28.596     8.769
    13   6 C        2.922    -0.038    28.950     8.823
    14   6 C        3.741    -0.017    20.958     6.532
    15   6 C        3.806    -0.061    21.661     6.625
    16   6 C        3.909    -0.020    20.871     6.493
    17   6 C        2.973     0.003    27.942     8.671
    18   6 C        2.925    -0.038    28.950     8.824
    19   6 C        2.919    -0.028    28.708     8.786
    20   6 C        2.919    -0.028    28.706     8.786
    21   6 C        2.919    -0.031    28.767     8.795
    22   6 C        2.923    -0.045    29.118     8.849
    23   6 C        2.976    -0.004    28.123     8.699
    24   6 C        2.924    -0.041    29.013     8.833
    25   6 C        2.919    -0.026    28.660     8.779
    26   6 C        2.919    -0.026    28.651     8.778
    27   6 C        2.920    -0.027    28.683     8.782
    28   6 C        2.923    -0.041    29.030     8.836
    29   6 C        2.750     0.290    22.084     7.695
    30   8 O        0.859    -0.471    23.159     6.452
    31   7 N        2.638    -0.259    26.718     7.677
    32   1 H        0.925     0.092     1.857     2.131
    33   1 H        0.925     0.102     1.764     2.077
    34   1 H        0.925     0.083     1.952     2.185
    35   1 H        0.927     0.093     1.854     2.129
    36   1 H        0.926     0.094     1.836     2.119
    37   1 H        0.924     0.085     1.926     2.170
    38   1 H        0.924     0.088     1.898     2.155
    39   1 H        0.925     0.030     2.586     2.515
    40   1 H        0.926     0.050     2.314     2.379
    41   1 H        0.926     0.055     2.262     2.352
    42   1 H        0.926     0.054     2.274     2.358
    43   1 H        0.926     0.042     2.429     2.437
    44   1 H        0.925     0.079     1.994     2.208
    45   1 H        0.924     0.078     2.002     2.213
    46   1 H        0.925     0.066     2.132     2.283
    47   1 H        0.925     0.063     2.169     2.303
    48   1 H        0.926     0.039     2.464     2.455
    49   1 H        0.926     0.047     2.360     2.402
    50   1 H        0.926     0.048     2.348     2.396
    51   1 H        0.926     0.042     2.420     2.433
    52   1 H        0.926     0.028     2.621     2.532
    53   1 H        0.926     0.029     2.602     2.523
    54   1 H        0.926     0.046     2.370     2.407
    55   1 H        0.926     0.049     2.330     2.387
    56   1 H        0.926     0.046     2.367     2.406
    57   1 H        0.926     0.037     2.495     2.470
    58   1 H        0.860     0.199     1.113     1.653
    59   1 H        0.860     0.203     1.089     1.635

Wiberg/Mayer (AO) data.
largest (>0.10) Wiberg bond orders for each atom

     #   Z sym  total        # sym  WBO       # sym  WBO       # sym  WBO
 ---------------------------------------------------------------------------
     1   6 C    3.981 --     2 C    1.046    34 H    0.969    32 H    0.953
                            33 H    0.946
     2   6 C    3.954 --     3 N    1.330     6 N    1.328     1 C    1.046
     3   7 N    3.692 --     2 C    1.330     4 C    1.201    14 C    0.976
     4   6 C    3.949 --     5 C    1.614     3 N    1.201    35 H    0.963
     5   6 C    3.950 --     4 C    1.614     6 N    1.206    36 H    0.963
     6   7 N    3.695 --     2 C    1.328     5 C    1.206     7 C    0.970
     7   6 C    3.943 --     8 C    0.984     6 N    0.970    38 H    0.957
                            37 H    0.957
     8   6 C    3.981 --    13 C    1.415     9 C    1.412     7 C    0.984
                            11 C    0.109
     9   6 C    3.992 --    10 C    1.446     8 C    1.412    39 H    0.969
                            12 C    0.112
    10   6 C    3.991 --     9 C    1.446    11 C    1.437    40 H    0.970
                            13 C    0.111
    11   6 C    3.990 --    12 C    1.441    10 C    1.437    41 H    0.969
                             8 C    0.109
    12   6 C    3.990 --    11 C    1.441    13 C    1.440    42 H    0.969
                             9 C    0.112
    13   6 C    3.990 --    12 C    1.440     8 C    1.415    43 H    0.968
                            10 C    0.111
    14   6 C    3.948 --    15 C    0.988     3 N    0.976    45 H    0.963
                            44 H    0.957
    15   6 C    3.987 --    14 C    0.988    46 H    0.969    47 H    0.968
                            16 C    0.967
    16   6 C    3.988 --    17 C    0.972    15 C    0.967    23 C    0.962
                            29 C    0.926
    17   6 C    3.986 --    22 C    1.421    18 C    1.395    16 C    0.972
                            20 C    0.110
    18   6 C    3.991 --    19 C    1.453    17 C    1.395    48 H    0.967
                            21 C    0.112
    19   6 C    3.990 --    18 C    1.453    20 C    1.430    49 H    0.970
                            22 C    0.109
    20   6 C    3.990 --    21 C    1.447    19 C    1.430    50 H    0.970
                            17 C    0.110
    21   6 C    3.991 --    20 C    1.447    22 C    1.433    51 H    0.970
                            18 C    0.112
    22   6 C    3.991 --    21 C    1.433    17 C    1.421    52 H    0.965
                            19 C    0.109
    23   6 C    3.983 --    28 C    1.415    24 C    1.405    16 C    0.962
                            26 C    0.109
    24   6 C    3.991 --    25 C    1.450    23 C    1.405    53 H    0.967
                            27 C    0.112
    25   6 C    3.990 --    24 C    1.450    26 C    1.434    54 H    0.970
                            28 C    0.110
    26   6 C    3.989 --    27 C    1.444    25 C    1.434    55 H    0.970
                            23 C    0.109
    27   6 C    3.991 --    26 C    1.444    28 C    1.437    56 H    0.970
                            24 C    0.112
    28   6 C    3.991 --    27 C    1.437    23 C    1.415    57 H    0.965
                            25 C    0.110
    29   6 C    3.940 --    30 O    1.658    31 N    1.296    16 C    0.926
    30   8 O    1.972 --    29 C    1.658    31 N    0.198
    31   7 N    3.407 --    29 C    1.296    59 H    0.936    58 H    0.933
                            30 O    0.198
    32   1 H    0.991 --     1 C    0.953
    33   1 H    0.989 --     1 C    0.946
    34   1 H    0.993 --     1 C    0.969
    35   1 H    0.991 --     4 C    0.963
    36   1 H    0.990 --     5 C    0.963
    37   1 H    0.992 --     7 C    0.957
    38   1 H    0.992 --     7 C    0.957
    39   1 H    0.999 --     9 C    0.969
    40   1 H    0.997 --    10 C    0.970
    41   1 H    0.996 --    11 C    0.969
    42   1 H    0.997 --    12 C    0.969
    43   1 H    0.998 --    13 C    0.968
    44   1 H    0.993 --    14 C    0.957
    45   1 H    0.993 --    14 C    0.963
    46   1 H    0.995 --    15 C    0.969
    47   1 H    0.996 --    15 C    0.968
    48   1 H    0.998 --    18 C    0.967
    49   1 H    0.997 --    19 C    0.970
    50   1 H    0.997 --    20 C    0.970
    51   1 H    0.998 --    21 C    0.970
    52   1 H    0.999 --    22 C    0.965
    53   1 H    0.999 --    24 C    0.967
    54   1 H    0.997 --    25 C    0.970
    55   1 H    0.997 --    26 C    0.970
    56   1 H    0.997 --    27 C    0.970
    57   1 H    0.999 --    28 C    0.965
    58   1 H    0.960 --    31 N    0.933
    59   1 H    0.958 --    31 N    0.936
 ---------------------------------------------------------------------------

molecular dipole:
                 x           y           z       tot (Debye)
 q only:        1.565      -0.216       0.847
   full:        1.875      -0.079       0.785       5.171

           -------------------------------------------------
          | TOTAL ENERGY              -84.582855915189 Eh   |
          | GRADIENT NORM               0.000990579208 Eh/α |
          | HOMO-LUMO GAP               3.400399343211 eV   |
           -------------------------------------------------

 * finished run on 2024/12/20 at 06:43:22.608
