   * xtb version 6.7.1 (edcfbbe) compiled by 'conda@3ef47c1a292c' on 2024-11-25

   ID    Z sym.   atoms
    1    6 C      1-3, 5, 6, 8-15
    2    7 N      4, 7
    3    1 H      16-40

          program call               : xtb C0393.xyz --opt --namespace C0393 --charge +1
          :  Hamiltonian                  GFN2-xTB          :
 * total energy  :   -46.1011743 Eh     change       -0.1449457E-08 Eh
 * total energy  :   -46.1059688 Eh     change       -0.4794514E-02 Eh
 * total energy  :   -46.1070906 Eh     change       -0.1121779E-02 Eh
 * total energy  :   -46.1072370 Eh     change       -0.1463537E-03 Eh
 * total energy  :   -46.1073416 Eh     change       -0.1046097E-03 Eh
 * total energy  :   -46.1073916 Eh     change       -0.4998279E-04 Eh
 * total energy  :   -46.1074530 Eh     change       -0.6145423E-04 Eh
 * total energy  :   -46.1075274 Eh     change       -0.7437021E-04 Eh
 * total energy  :   -46.1075985 Eh     change       -0.7113723E-04 Eh
 * total energy  :   -46.1076587 Eh     change       -0.6015232E-04 Eh
 * total energy  :   -46.1078092 Eh     change       -0.4114107E-04 Eh
 * total energy  :   -46.1078469 Eh     change       -0.3773441E-04 Eh
 * total energy  :   -46.1078793 Eh     change       -0.3240322E-04 Eh
 * total energy  :   -46.1079039 Eh     change       -0.2459111E-04 Eh
 * total energy  :   -46.1079243 Eh     change       -0.2035948E-04 Eh
 * total energy  :   -46.1079449 Eh     change       -0.2067089E-04 Eh
 * total energy  :   -46.1079624 Eh     change       -0.1747120E-04 Eh
 * total energy  :   -46.1079719 Eh     change       -0.9447775E-05 Eh
 * total energy  :   -46.1079753 Eh     change       -0.3457233E-05 Eh
   *** GEOMETRY OPTIMIZATION CONVERGED AFTER 21 ITERATIONS ***

 final structure:
================
40
 xtb: 6.7.1 (edcfbbe)
C            0.09896323989263       -0.64342611595797        0.21882665974940
C            0.42309371070520       -1.89992674709631        1.01555942759395
C            1.36586199568453       -1.62916481653857        2.19491757371504
N            0.75305703269292       -0.76767274484999        3.18290334622430
C            0.85172140832652        0.59360098101417        3.17780396342078
C            0.08152201540403        1.05705183394702        4.19311222724839
N           -0.47841886493370       -0.02660054492789        4.80822228606620
C           -0.06651522144608       -1.13515356292999        4.17885338974745
C           -0.37637101509341       -2.53615365316061        4.54650074181846
C            0.73895781485554       -3.18690302035302        5.40432903134869
C            0.85858108679954       -2.51433891837427        6.76783331608285
C            0.43442536259790       -4.67284760016493        5.56477963393602
C           -1.42467723094489        0.08971999277215        5.89694949680092
C           -2.79812251138650        0.54397677093561        5.39012629933851
C           -3.46597104766794       -0.49315899412252        4.49664285457226
H           -0.44311719212472        0.08302444428863        0.82046595972754
H           -0.52216439499393       -0.89992901635093       -0.63428099873421
H            1.00785474786382       -0.17964677060058       -0.15536512083984
H           -0.50173306650666       -2.35275682778390        1.37755925106928
H            0.91409280146949       -2.62376219545675        0.36523297749838
H            1.65372007179262       -2.56869930758199        2.66807368237759
H            2.26782533918552       -1.13096213830423        1.83437485455697
H            1.45722265715373        1.12211150746377        2.47127215110145
H           -0.10102582353222        2.05879465396068        4.52256167284086
H           -1.31400584407975       -2.58127744051434        5.09928488061122
H           -0.50201584146923       -3.12585909899160        3.63737514579597
H            1.69539719456827       -3.07857465827854        4.88225446114874
H           -0.06467240641346       -2.61969942233934        7.33310781322063
H            1.65127815129758       -2.98787553629207        7.34025298992275
H            1.10152518312666       -1.45769991532558        6.67499606763906
H            0.38345949915520       -5.17058021896207        4.59959254894032
H            1.21330200635140       -5.15125902746289        6.15135095865589
H           -0.51331866893046       -4.81676015505104        6.07755228027434
H           -1.51019036839479       -0.87078614157692        6.40343826719261
H           -1.03126245890466        0.82163669598406        6.60611361568715
H           -3.42667005701380        0.73181937373411        6.26046537450886
H           -2.69292008041679        1.48468660147088        4.84706270772653
H           -3.62907625727937       -1.42289215843250        5.03651555272427
H           -4.43296050503009       -0.12594732194668        4.16636675022174
H           -2.86721246236508       -0.70024878584039        3.61144590846814

          :  Hamiltonian                  GFN2-xTB          :
         :: total energy             -46.107975309299 Eh    ::
         :: gradient norm              0.000456385735 Eh/a0 ::
         :: HOMO-LUMO gap              4.375480615682 eV    ::
         :: SCC energy               -46.809040240781 Eh    ::
         :: -> dispersion             -0.034143325859 Eh    ::
         :: repulsion energy           0.701064931481 Eh    ::

    * Orbital Energies and Occupations

         #    Occupation            Energy/Eh            Energy/eV
      -------------------------------------------------------------
         1        2.0000           -0.8763522             -23.8468
       ...           ...                  ...                  ...
        31        2.0000           -0.6006407             -16.3443
        32        2.0000           -0.5891672             -16.0321
        33        2.0000           -0.5819115             -15.8346
        34        2.0000           -0.5801298             -15.7861
        35        2.0000           -0.5778888             -15.7252
        36        2.0000           -0.5743212             -15.6281
        37        2.0000           -0.5709977             -15.5376
        38        2.0000           -0.5646083             -15.3638
        39        2.0000           -0.5639455             -15.3457
        40        2.0000           -0.5627828             -15.3141
        41        2.0000           -0.5611865             -15.2707
        42        2.0000           -0.5555042             -15.1160
        43        2.0000           -0.5485137             -14.9258 (HOMO)
        44                         -0.3877177             -10.5503 (LUMO)
        45                         -0.3534854              -9.6188
        46                         -0.1768715              -4.8129
        47                         -0.1203560              -3.2751
        48                         -0.0693361              -1.8867
        49                         -0.0582793              -1.5859
        50                         -0.0504855              -1.3738
        51                         -0.0489507              -1.3320
        52                         -0.0459720              -1.2510
        53                         -0.0323808              -0.8811
        54                         -0.0209638              -0.5705
       ...                                ...                  ...
        85                          0.4864863              13.2380
      -------------------------------------------------------------
                  HL-Gap            0.1607960 Eh            4.3755 eV

     #   Z          covCN         q      C6AA      α(0)
     1   6 C        3.752    -0.115    22.761     6.804
     2   6 C        3.800    -0.063    21.714     6.635
     3   6 C        3.742    -0.023    21.059     6.547
     4   7 N        2.874     0.037    20.596     6.740
     5   6 C        3.046    -0.009    28.189     8.708
     6   6 C        3.051    -0.011    28.250     8.717
     7   7 N        2.871     0.040    20.542     6.731
     8   6 C        3.097     0.104    25.584     8.290
     9   6 C        3.807    -0.082    22.064     6.687
    10   6 C        3.849    -0.006    20.648     6.463
    11   6 C        3.755    -0.117    22.800     6.809
    12   6 C        3.757    -0.120    22.842     6.814
    13   6 C        3.742    -0.023    21.064     6.548
    14   6 C        3.801    -0.066    21.757     6.641
    15   6 C        3.752    -0.113    22.720     6.797
    16   1 H        0.925     0.037     2.489     2.467
    17   1 H        0.925     0.064     2.158     2.297
    18   1 H        0.925     0.052     2.300     2.372
    19   1 H        0.924     0.047     2.354     2.399
    20   1 H        0.925     0.070     2.084     2.257
    21   1 H        0.924     0.078     1.996     2.209
    22   1 H        0.924     0.085     1.923     2.169
    23   1 H        0.927     0.099     1.792     2.093
    24   1 H        0.927     0.097     1.815     2.107
    25   1 H        0.925     0.082     1.961     2.190
    26   1 H        0.924     0.080     1.981     2.201
    27   1 H        0.924     0.037     2.493     2.469
    28   1 H        0.925     0.047     2.352     2.399
    29   1 H        0.925     0.063     2.162     2.300
    30   1 H        0.925     0.030     2.585     2.514
    31   1 H        0.925     0.047     2.358     2.401
    32   1 H        0.925     0.063     2.168     2.302
    33   1 H        0.925     0.053     2.288     2.365
    34   1 H        0.925     0.085     1.928     2.171
    35   1 H        0.924     0.081     1.968     2.194
    36   1 H        0.925     0.071     2.077     2.254
    37   1 H        0.924     0.055     2.259     2.350
    38   1 H        0.925     0.047     2.354     2.399
    39   1 H        0.925     0.064     2.151     2.294
    40   1 H        0.925     0.033     2.550     2.497

Wiberg/Mayer (AO) data.
largest (>0.10) Wiberg bond orders for each atom

     #   Z sym  total        # sym  WBO       # sym  WBO       # sym  WBO
 ---------------------------------------------------------------------------
     1   6 C    3.992 --     2 C    1.022    18 H    0.986    16 H    0.986
                            17 H    0.982
     2   6 C    3.988 --     1 C    1.022     3 C    0.985    19 H    0.974
                            20 H    0.969
     3   6 C    3.943 --     2 C    0.985     4 N    0.971    22 H    0.965
                            21 H    0.963
     4   7 N    3.689 --     8 C    1.321     5 C    1.211     3 C    0.971
     5   6 C    3.951 --     6 C    1.609     4 N    1.211    23 H    0.962
     6   6 C    3.950 --     5 C    1.609     7 N    1.209    24 H    0.963
     7   7 N    3.693 --     8 C    1.326     6 C    1.209    13 C    0.970
     8   6 C    3.947 --     7 N    1.326     4 N    1.321     9 C    1.031
     9   6 C    3.979 --     8 C    1.031    25 H    0.958    26 H    0.954
                            10 C    0.951
    10   6 C    3.988 --    11 C    1.011    12 C    1.008    27 H    0.966
                             9 C    0.951
    11   6 C    3.993 --    10 C    1.011    30 H    0.986    28 H    0.984
                            29 H    0.982
    12   6 C    3.989 --    10 C    1.008    33 H    0.985    31 H    0.985
                            32 H    0.981
    13   6 C    3.942 --    14 C    0.987     7 N    0.970    35 H    0.963
                            34 H    0.961
    14   6 C    3.987 --    15 C    1.022    13 C    0.987    37 H    0.975
                            36 H    0.969
    15   6 C    3.993 --    14 C    1.022    40 H    0.987    38 H    0.986
                            39 H    0.983
    16   1 H    0.999 --     1 C    0.986
    17   1 H    0.996 --     1 C    0.982
    18   1 H    0.997 --     1 C    0.986
    19   1 H    0.998 --     2 C    0.974
    20   1 H    0.994 --     2 C    0.969
    21   1 H    0.994 --     3 C    0.963
    22   1 H    0.992 --     3 C    0.965
    23   1 H    0.989 --     5 C    0.962
    24   1 H    0.990 --     6 C    0.963
    25   1 H    0.993 --     9 C    0.958
    26   1 H    0.994 --     9 C    0.954
    27   1 H    0.999 --    10 C    0.966
    28   1 H    0.998 --    11 C    0.984
    29   1 H    0.996 --    11 C    0.982
    30   1 H    0.999 --    11 C    0.986
    31   1 H    0.998 --    12 C    0.985
    32   1 H    0.994 --    12 C    0.981
    33   1 H    0.997 --    12 C    0.985
    34   1 H    0.992 --    13 C    0.961
    35   1 H    0.993 --    13 C    0.963
    36   1 H    0.994 --    14 C    0.969
    37   1 H    0.997 --    14 C    0.975
    38   1 H    0.998 --    15 C    0.986
    39   1 H    0.996 --    15 C    0.983
    40   1 H    0.999 --    15 C    0.987
 ---------------------------------------------------------------------------

molecular dipole:
                 x           y           z       tot (Debye)
 q only:       -0.243      -1.707       7.601
   full:       -0.157      -1.610       7.618      19.795

           -------------------------------------------------
          | TOTAL ENERGY              -46.107975309299 Eh   |
          | GRADIENT NORM               0.000456385735 Eh/α |
          | HOMO-LUMO GAP               4.375480615682 eV   |
           -------------------------------------------------

 * finished run on 2024/12/20 at 06:43:16.246
