   * xtb version 6.7.1 (edcfbbe) compiled by 'conda@3ef47c1a292c' on 2024-11-25

   ID    Z sym.   atoms
    1    6 C      1-7, 10, 12-18
    2    7 N      8, 9, 11
    3    9 F      19-27
    4    1 H      28-48

          program call               : xtb C0390.xyz --opt --namespace C0390 --charge +1
          :  Hamiltonian                  GFN2-xTB          :
 * total energy  :   -93.7785218 Eh     change       -0.1263061E-09 Eh
 * total energy  :   -93.7900414 Eh     change       -0.1151964E-01 Eh
 * total energy  :   -93.7932053 Eh     change       -0.3163881E-02 Eh
 * total energy  :   -93.7937456 Eh     change       -0.5403144E-03 Eh
 * total energy  :   -93.7940508 Eh     change       -0.3052405E-03 Eh
 * total energy  :   -93.7941920 Eh     change       -0.1411738E-03 Eh
 * total energy  :   -93.7943473 Eh     change       -0.1552979E-03 Eh
 * total energy  :   -93.7944857 Eh     change       -0.1383677E-03 Eh
 * total energy  :   -93.7945957 Eh     change       -0.1100051E-03 Eh
 * total energy  :   -93.7946781 Eh     change       -0.8237020E-04 Eh
 * total energy  :   -93.7950714 Eh     change       -0.8916605E-05 Eh
 * total energy  :   -93.7950803 Eh     change       -0.8865214E-05 Eh
 * total energy  :   -93.7950891 Eh     change       -0.8820561E-05 Eh
 * total energy  :   -93.7950979 Eh     change       -0.8832078E-05 Eh
 * total energy  :   -93.7951067 Eh     change       -0.8757803E-05 Eh
 * total energy  :   -93.7951151 Eh     change       -0.8388823E-05 Eh
 * total energy  :   -93.7951227 Eh     change       -0.7609895E-05 Eh
 * total energy  :   -93.7951292 Eh     change       -0.6501242E-05 Eh
 * total energy  :   -93.7951315 Eh     change       -0.2286008E-05 Eh
   *** GEOMETRY OPTIMIZATION CONVERGED AFTER 44 ITERATIONS ***

 final structure:
================
48
 xtb: 6.7.1 (edcfbbe)
C            1.44140879613839       -0.47297885539347       -0.77055530948629
C            0.76523412551229       -1.77742990059460       -1.17552516775052
C            0.97830758705681       -2.90775378760604       -0.16650376065983
C            0.44532265681675       -2.62019785024298        1.23889573864538
C           -1.05248329327517       -2.31724524653880        1.30589223189510
C           -1.95972724690030       -3.43544790135048        0.78797255516608
C           -1.71847071812970       -4.79475989779756        1.44893052478234
N           -1.70370657364702       -4.71298620004776        2.88804625404268
N           -0.79065104456937       -5.36916436903697        3.59289881757725
C           -0.99724157423665       -5.06779127093503        4.83414404097954
N           -2.04896395156657       -4.20740248942391        4.94703011612250
C           -2.47514112831153       -4.00327540096866        3.69110099238904
C           -2.54187875231550       -3.58496367157914        6.15665675522264
C           -1.49909021153527       -2.66224526116541        6.80080405876961
C           -0.94413196437725       -1.55677451622306        5.89771613930282
C           -1.93909426396946       -0.51097118399621        5.29886198365740
C           -2.80541712469215        0.29703946094342        6.30775400097377
C           -2.01150275283644        1.11711370250602        7.37506836020235
F           -0.97295109873754        1.73665444108457        6.84318859162645
F           -2.79885955677630        2.00179667604622        7.95112179918749
F           -1.57002171584809        0.27162749879321        8.31142185715642
F           -3.61117067276959        1.11036309556221        5.62056814514555
F           -3.59596797016642       -0.58834878684930        6.96394081599971
F           -1.26661710892833        0.32897271536743        4.50728564095679
F           -2.80171255778712       -1.18863450799870        4.49086080773168
F            0.01604935833415       -0.88623495179281        6.55611264938547
F           -0.33111926718477       -2.12633573162626        4.82026559703959
H            0.98107438445354       -0.04308133056123        0.11566588163710
H            1.36133901525901        0.25356903347122       -1.57480974489339
H            2.49636581895024       -0.63902952897904       -0.56613202419213
H           -0.30168227603782       -1.60333612720106       -1.32890908540636
H            1.17774610883359       -2.10365222536036       -2.13216190254505
H            0.52249038753329       -3.81959974188710       -0.55970574944554
H            2.05024132785414       -3.09620936240902       -0.08123257541584
H            0.68440304036577       -3.46842625209099        1.88574502203819
H            0.97518286530428       -1.75937235149661        1.64673633803869
H           -1.30936949095458       -2.07817429433408        2.34111370806449
H           -1.26198707703186       -1.42327394452512        0.71971092333617
H           -3.00240318760878       -3.13822005257105        0.91536862426211
H           -1.79211920406925       -3.57052971434108       -0.27987945345703
H           -2.49537782651531       -5.50171005845608        1.14246878694930
H           -0.74888165729098       -5.20639931164407        1.16358233844914
H           -0.41974955039739       -5.44991271293391        5.65113012088089
H           -3.29863825895865       -3.38101241896775        3.40129672665370
H           -3.45846230418964       -3.04205844734513        5.91918695385402
H           -2.78536826110355       -4.36746496748538        6.88127749489034
H           -1.92410793095643       -2.21166774535113        7.69844345123234
H           -0.62140789874090       -3.23848425468985        7.10884992899832

          :  Hamiltonian                  GFN2-xTB          :
         :: total energy             -93.795131452696 Eh    ::
         :: gradient norm              0.000135998135 Eh/a0 ::
         :: HOMO-LUMO gap              1.888300395864 eV    ::
         :: SCC energy               -94.536230945644 Eh    ::
         :: -> dispersion             -0.046400923757 Eh    ::
         :: repulsion energy           0.741099492948 Eh    ::

    * Orbital Energies and Occupations

         #    Occupation            Energy/Eh            Energy/eV
      -------------------------------------------------------------
         1        2.0000           -1.0385973             -28.2617
       ...           ...                  ...                  ...
        67        2.0000           -0.6146218             -16.7247
        68        2.0000           -0.6032828             -16.4162
        69        2.0000           -0.6016298             -16.3712
        70        2.0000           -0.5920804             -16.1113
        71        2.0000           -0.5845172             -15.9055
        72        2.0000           -0.5709106             -15.5353
        73        2.0000           -0.5661883             -15.4068
        74        2.0000           -0.5494288             -14.9507
        75        2.0000           -0.5418233             -14.7438
        76        2.0000           -0.5353045             -14.5664
        77        2.0000           -0.5138329             -13.9821
        78        2.0000           -0.5087661             -13.8442
        79        2.0000           -0.5035792             -13.7031 (HOMO)
        80                         -0.4341854             -11.8148 (LUMO)
        81                         -0.4110660             -11.1857
        82                         -0.2278506              -6.2001
        83                         -0.2246322              -6.1126
        84                         -0.2142464              -5.8299
        85                         -0.1939194              -5.2768
        86                         -0.1865606              -5.0766
        87                         -0.1645490              -4.4776
        88                         -0.1407578              -3.8302
        89                         -0.1312490              -3.5715
        90                         -0.1085378              -2.9535
       ...                                ...                  ...
       129                          0.3524364               9.5903
      -------------------------------------------------------------
                  HL-Gap            0.0693938 Eh            1.8883 eV

     #   Z          covCN         q      C6AA      α(0)
     1   6 C        3.751    -0.107    22.612     6.781
     2   6 C        3.800    -0.056    21.590     6.616
     3   6 C        3.801    -0.063    21.711     6.634
     4   6 C        3.800    -0.066    21.761     6.642
     5   6 C        3.800    -0.067    21.785     6.645
     6   6 C        3.801    -0.076    21.944     6.669
     7   6 C        3.742    -0.040    21.371     6.595
     8   7 N        3.058     0.171    18.380     6.367
     9   7 N        2.048    -0.135    24.608     7.358
    10   6 C        3.141     0.088    25.809     8.313
    11   7 N        2.856     0.045    20.446     6.716
    12   6 C        3.064     0.054    26.724     8.477
    13   6 C        3.738    -0.028    21.158     6.564
    14   6 C        3.803    -0.098    22.375     6.734
    15   6 C        3.516     0.316    16.971     6.081
    16   6 C        3.518     0.314    16.981     6.079
    17   6 C        3.517     0.307    17.085     6.099
    18   6 C        3.326     0.487    17.400     6.627
    19   9 F        0.790    -0.154    10.767     3.876
    20   9 F        0.791    -0.138    10.610     3.848
    21   9 F        0.791    -0.176    10.988     3.916
    22   9 F        0.789    -0.147    10.702     3.864
    23   9 F        0.789    -0.189    11.127     3.940
    24   9 F        0.789    -0.155    10.780     3.878
    25   9 F        0.789    -0.199    11.227     3.958
    26   9 F        0.790    -0.185    11.082     3.932
    27   9 F        0.789    -0.204    11.280     3.967
    28   1 H        0.925     0.034     2.537     2.491
    29   1 H        0.925     0.042     2.416     2.431
    30   1 H        0.925     0.041     2.435     2.440
    31   1 H        0.924     0.029     2.599     2.521
    32   1 H        0.924     0.040     2.451     2.448
    33   1 H        0.924     0.026     2.646     2.544
    34   1 H        0.924     0.045     2.388     2.417
    35   1 H        0.924     0.024     2.677     2.559
    36   1 H        0.925     0.054     2.269     2.356
    37   1 H        0.924     0.019     2.750     2.593
    38   1 H        0.925     0.068     2.107     2.270
    39   1 H        0.924     0.051     2.301     2.372
    40   1 H        0.925     0.088     1.901     2.156
    41   1 H        0.924     0.100     1.789     2.092
    42   1 H        0.924     0.122     1.596     1.976
    43   1 H        0.926     0.123     1.590     1.972
    44   1 H        0.926     0.136     1.490     1.909
    45   1 H        0.924     0.108     1.718     2.050
    46   1 H        0.924     0.118     1.633     1.998
    47   1 H        0.924     0.117     1.638     2.002
    48   1 H        0.924     0.117     1.640     2.003

Wiberg/Mayer (AO) data.
largest (>0.10) Wiberg bond orders for each atom

     #   Z sym  total        # sym  WBO       # sym  WBO       # sym  WBO
 ---------------------------------------------------------------------------
     1   6 C    3.996 --     2 C    1.020    30 H    0.987    29 H    0.986
                            28 H    0.986
     2   6 C    3.997 --     1 C    1.020     3 C    1.008    32 H    0.977
                            31 H    0.976
     3   6 C    3.995 --     2 C    1.008     4 C    1.007    33 H    0.976
                            34 H    0.976
     4   6 C    3.994 --     5 C    1.007     3 C    1.007    35 H    0.976
                            36 H    0.972
     5   6 C    3.992 --     4 C    1.007     6 C    1.007    37 H    0.973
                            38 H    0.968
     6   6 C    3.980 --     5 C    1.007     7 C    0.987    39 H    0.975
                            40 H    0.962
     7   6 C    3.918 --     6 C    0.987     8 N    0.959    42 H    0.954
                            41 H    0.944
     8   7 N    3.759 --    12 C    1.423     9 N    1.210     7 C    0.959
     9   7 N    3.032 --    10 C    1.602     8 N    1.210
    10   6 C    3.947 --     9 N    1.602    11 N    1.231    43 H    0.953
    11   7 N    3.701 --    12 C    1.318    10 C    1.231    13 C    0.978
    12   6 C    3.947 --     8 N    1.423    11 N    1.318    44 H    0.947
    13   6 C    3.944 --    14 C    0.998    11 N    0.978    45 H    0.963
                            46 H    0.953
    14   6 C    3.970 --    13 C    0.998    15 C    0.968    48 H    0.958
                            47 H    0.957
    15   6 C    3.868 --    26 F    0.971    14 C    0.968    27 F    0.944
                            16 C    0.908
    16   6 C    3.882 --    24 F    0.994    25 F    0.946    17 C    0.914
                            15 C    0.908
    17   6 C    3.890 --    22 F    0.996    23 F    0.956    16 C    0.914
                            18 C    0.887
    18   6 C    3.884 --    20 F    0.997    19 F    0.986    21 F    0.959
                            17 C    0.887
    19   9 F    1.123 --    18 C    0.986
    20   9 F    1.139 --    18 C    0.997
    21   9 F    1.095 --    18 C    0.959
    22   9 F    1.118 --    17 C    0.996
    23   9 F    1.070 --    17 C    0.956
    24   9 F    1.114 --    16 C    0.994
    25   9 F    1.062 --    16 C    0.946
    26   9 F    1.085 --    15 C    0.971
    27   9 F    1.059 --    15 C    0.944
    28   1 H    0.999 --     1 C    0.986
    29   1 H    0.998 --     1 C    0.986
    30   1 H    0.998 --     1 C    0.987
    31   1 H    0.999 --     2 C    0.976
    32   1 H    0.998 --     2 C    0.977
    33   1 H    0.999 --     3 C    0.976
    34   1 H    0.998 --     3 C    0.976
    35   1 H    0.999 --     4 C    0.976
    36   1 H    0.997 --     4 C    0.972
    37   1 H    1.000 --     5 C    0.973
    38   1 H    0.995 --     5 C    0.968
    39   1 H    0.997 --     6 C    0.975
    40   1 H    0.992 --     6 C    0.962
    41   1 H    0.990 --     7 C    0.944
    42   1 H    0.985 --     7 C    0.954
    43   1 H    0.984 --    10 C    0.953
    44   1 H    0.982 --    12 C    0.947
    45   1 H    0.988 --    13 C    0.963
    46   1 H    0.985 --    13 C    0.953
    47   1 H    0.986 --    14 C    0.957
    48   1 H    0.986 --    14 C    0.958
 ---------------------------------------------------------------------------

molecular dipole:
                 x           y           z       tot (Debye)
 q only:       -3.863      -8.118       7.600
   full:       -4.232      -7.913       7.987      30.535

           -------------------------------------------------
          | TOTAL ENERGY              -93.795131452696 Eh   |
          | GRADIENT NORM               0.000135998135 Eh/α |
          | HOMO-LUMO GAP               1.888300395864 eV   |
           -------------------------------------------------

 * finished run on 2024/12/20 at 06:43:10.573
