   * xtb version 6.7.1 (edcfbbe) compiled by 'conda@3ef47c1a292c' on 2024-11-25

   ID    Z sym.   atoms
    1    6 C      1-6, 8, 10, 11, 13, 14
    2   16 S      7
    3    7 N      9, 12
    4    1 H      15-39

          program call               : xtb C0394.xyz --opt --namespace C0394 --charge +1
          :  Hamiltonian                  GFN2-xTB          :
 * total energy  :   -44.9994117 Eh     change       -0.4737473E-09 Eh
 * total energy  :   -45.0063714 Eh     change       -0.6959748E-02 Eh
 * total energy  :   -45.0083003 Eh     change       -0.1928902E-02 Eh
 * total energy  :   -45.0090412 Eh     change       -0.7408155E-03 Eh
 * total energy  :   -45.0101476 Eh     change       -0.1106415E-02 Eh
 * total energy  :   -45.0110654 Eh     change       -0.9178522E-03 Eh
 * total energy  :   -45.0120721 Eh     change       -0.1006675E-02 Eh
 * total energy  :   -45.0128666 Eh     change       -0.7944960E-03 Eh
 * total energy  :   -45.0133463 Eh     change       -0.4796977E-03 Eh
 * total energy  :   -45.0135359 Eh     change       -0.1895804E-03 Eh
 * total energy  :   -45.0183671 Eh     change       -0.2955444E-04 Eh
 * total energy  :   -45.0183901 Eh     change       -0.2297810E-04 Eh
 * total energy  :   -45.0184256 Eh     change       -0.3546405E-04 Eh
 * total energy  :   -45.0184639 Eh     change       -0.3833960E-04 Eh
 * total energy  :   -45.0184880 Eh     change       -0.2408891E-04 Eh
 * total energy  :   -45.0184971 Eh     change       -0.9126598E-05 Eh
 * total energy  :   -45.0185071 Eh     change       -0.9958350E-05 Eh
 * total energy  :   -45.0185136 Eh     change       -0.6493079E-05 Eh
 * total energy  :   -45.0185185 Eh     change       -0.4892268E-05 Eh
   *** GEOMETRY OPTIMIZATION CONVERGED AFTER 62 ITERATIONS ***

 final structure:
================
39
 xtb: 6.7.1 (edcfbbe)
C            1.02948347221800       -0.44020906541823        0.32027075696915
C           -0.35422277544642       -1.02301409999407        0.55619994469967
C           -0.39852691501278       -2.01745479366720        1.71294738815664
C           -1.81915662827899       -2.47913156943200        2.04529912898803
C           -2.52952965927679       -3.23122040671026        0.91913201803123
C           -1.82203655652243       -4.51660066389822        0.50848315056791
S            1.47496047267178        0.79072309495239        1.60956368081042
C            2.08537847849391       -0.15836329077553        2.95810332951663
N            2.97835003009439       -1.12812927606286        2.75746161243400
C            3.08072358598526       -2.30327927500530        3.60071936007541
C            3.93250577978324       -1.10417990510852        1.66980960714499
N            1.66299538790048        0.19018720337713        4.16776201719388
C            0.46197815742218        0.97246058194903        4.37133500433869
C            2.44786425205714        0.00170650507999        5.37232451837676
H            1.05327367383827        0.14401661764635       -0.59913179714814
H            1.78994909166842       -1.21341245289144        0.27506137354417
H           -1.06677430840088       -0.21465539457759        0.73262468033441
H           -0.65076128312751       -1.52736433974242       -0.36468078198976
H            0.22198054038271       -2.88306889373381        1.47475840591958
H            0.01971741205951       -1.54882544655992        2.61001875769140
H           -1.77163704120947       -3.12974991056758        2.92127472089068
H           -2.41869985844421       -1.60660606294585        2.31512433712110
H           -3.53216110948398       -3.48068232899839        1.27018545867524
H           -2.64546346211574       -2.58145644089636        0.05048463778360
H           -1.64546371764498       -5.14846674954501        1.37575419002611
H           -2.43772167850466       -5.07029366550355       -0.19415663150129
H           -0.86865562716861       -4.31259142571192        0.02604552903976
H            3.09460975444126       -3.18330008631608        2.95480016133363
H            4.00117440352711       -2.30493989114228        4.18668942679773
H            2.22323043057879       -2.38123654227334        4.26170926515136
H            3.77846224916421       -1.94069294528340        0.98553183707639
H            3.87368053436412       -0.16577878221274        1.12366590542329
H            4.93726559159596       -1.19801079207873        2.08794302431537
H            0.00107391588994        0.66249380731164        5.30852713610724
H            0.69252629478545        2.03773678156154        4.42833044343830
H           -0.24416214569630        0.81461973853278        3.55962796265185
H            2.02146380010714       -0.77179897506112        6.01303860396360
H            3.47725319922736       -0.24543742303594        5.13263992378411
H            2.44476225809461        0.94033656473078        5.92765191224695

          :  Hamiltonian                  GFN2-xTB          :
         :: total energy             -45.018518474418 Eh    ::
         :: gradient norm              0.000643427030 Eh/a0 ::
         :: HOMO-LUMO gap              2.654605163361 eV    ::
         :: SCC energy               -45.627949174021 Eh    ::
         :: -> dispersion             -0.033319235806 Eh    ::
         :: repulsion energy           0.609430699602 Eh    ::

    * Orbital Energies and Occupations

         #    Occupation            Energy/Eh            Energy/eV
      -------------------------------------------------------------
         1        2.0000           -0.8764536             -23.8495
       ...           ...                  ...                  ...
        30        2.0000           -0.6117796             -16.6474
        31        2.0000           -0.6002697             -16.3342
        32        2.0000           -0.5898407             -16.0504
        33        2.0000           -0.5823638             -15.8469
        34        2.0000           -0.5765350             -15.6883
        35        2.0000           -0.5653900             -15.3850
        36        2.0000           -0.5537383             -15.0680
        37        2.0000           -0.5492660             -14.9463
        38        2.0000           -0.5393845             -14.6774
        39        2.0000           -0.5259097             -14.3107
        40        2.0000           -0.5256058             -14.3025
        41        2.0000           -0.5202536             -14.1568
        42        2.0000           -0.5138581             -13.9828 (HOMO)
        43                         -0.4163031             -11.3282 (LUMO)
        44                         -0.3393307              -9.2337
        45                         -0.3022105              -8.2236
        46                         -0.1766166              -4.8060
        47                         -0.1708951              -4.6503
        48                         -0.1495131              -4.0685
        49                         -0.1223889              -3.3304
        50                         -0.1157559              -3.1499
        51                         -0.0610545              -1.6614
        52                         -0.0543185              -1.4781
        53                         -0.0400424              -1.0896
       ...                                ...                  ...
        86                          0.3440702               9.3626
      -------------------------------------------------------------
                  HL-Gap            0.0975549 Eh            2.6546 eV

     #   Z          covCN         q      C6AA      α(0)
     1   6 C        3.794    -0.023    20.995     6.525
     2   6 C        3.829    -0.066    21.748     6.635
     3   6 C        3.801    -0.055    21.571     6.613
     4   6 C        3.801    -0.061    21.673     6.628
     5   6 C        3.800    -0.058    21.619     6.620
     6   6 C        3.751    -0.106    22.583     6.777
     7  16 S        2.068    -0.064   143.729    20.178
     8   6 C        2.831     0.147    24.807     8.162
     9   7 N        2.766    -0.031    21.835     6.940
    10   6 C        3.701    -0.071    22.028     6.711
    11   6 C        3.702    -0.068    21.961     6.701
    12   7 N        2.792    -0.012    21.482     6.884
    13   6 C        3.708    -0.078    22.137     6.725
    14   6 C        3.702    -0.076    22.125     6.726
    15   1 H        0.925     0.080     1.976     2.198
    16   1 H        0.925     0.067     2.120     2.277
    17   1 H        0.924     0.057     2.230     2.335
    18   1 H        0.924     0.071     2.071     2.250
    19   1 H        0.924     0.039     2.467     2.456
    20   1 H        0.924     0.013     2.849     2.639
    21   1 H        0.924     0.039     2.456     2.451
    22   1 H        0.924     0.034     2.531     2.488
    23   1 H        0.924     0.044     2.400     2.423
    24   1 H        0.924     0.035     2.520     2.482
    25   1 H        0.925     0.038     2.469     2.457
    26   1 H        0.925     0.045     2.379     2.412
    27   1 H        0.925     0.029     2.595     2.519
    28   1 H        0.924     0.089     1.892     2.151
    29   1 H        0.924     0.080     1.980     2.200
    30   1 H        0.925     0.080     1.984     2.202
    31   1 H        0.924     0.077     2.012     2.218
    32   1 H        0.925     0.085     1.925     2.170
    33   1 H        0.924     0.086     1.920     2.167
    34   1 H        0.925     0.092     1.864     2.135
    35   1 H        0.924     0.089     1.888     2.149
    36   1 H        0.925     0.091     1.868     2.137
    37   1 H        0.924     0.084     1.934     2.175
    38   1 H        0.925     0.082     1.958     2.188
    39   1 H        0.924     0.097     1.815     2.107

Wiberg/Mayer (AO) data.
largest (>0.10) Wiberg bond orders for each atom

     #   Z sym  total        # sym  WBO       # sym  WBO       # sym  WBO
 ---------------------------------------------------------------------------
     1   6 C    3.953 --     2 C    1.012    16 H    0.965    15 H    0.964
                             7 S    0.955
     2   6 C    3.989 --     1 C    1.012     3 C    1.010    17 H    0.972
                            18 H    0.955
     3   6 C    3.997 --     2 C    1.010     4 C    1.004    19 H    0.975
                            20 H    0.968
     4   6 C    3.995 --     5 C    1.007     3 C    1.004    22 H    0.977
                            21 H    0.976
     5   6 C    3.995 --     6 C    1.021     4 C    1.007    23 H    0.976
                            24 H    0.976
     6   6 C    3.996 --     5 C    1.021    25 H    0.987    27 H    0.986
                            26 H    0.986
     7  16 S    2.372 --     8 C    1.109     1 C    0.955
     8   6 C    3.968 --    12 N    1.366     9 N    1.326     7 S    1.109
     9   7 N    3.555 --     8 C    1.326    11 C    0.990    10 C    0.982
                            12 N    0.122
    10   6 C    3.950 --     9 N    0.982    30 H    0.978    29 H    0.969
                            28 H    0.967
    11   6 C    3.950 --     9 N    0.990    32 H    0.975    31 H    0.968
                            33 H    0.965
    12   7 N    3.595 --     8 C    1.366    13 C    0.989    14 C    0.982
                             9 N    0.122
    13   6 C    3.944 --    12 N    0.989    34 H    0.971    36 H    0.970
                            35 H    0.965
    14   6 C    3.947 --    12 N    0.982    38 H    0.976    37 H    0.967
                            39 H    0.966
    15   1 H    0.993 --     1 C    0.964
    16   1 H    0.995 --     1 C    0.965
    17   1 H    0.997 --     2 C    0.972
    18   1 H    0.992 --     2 C    0.955
    19   1 H    0.999 --     3 C    0.975
    20   1 H    1.000 --     3 C    0.968
    21   1 H    0.998 --     4 C    0.976
    22   1 H    0.999 --     4 C    0.977
    23   1 H    0.998 --     5 C    0.976
    24   1 H    0.999 --     5 C    0.976
    25   1 H    0.998 --     6 C    0.987
    26   1 H    0.998 --     6 C    0.986
    27   1 H    0.999 --     6 C    0.986
    28   1 H    0.992 --    10 C    0.967
    29   1 H    0.993 --    10 C    0.969
    30   1 H    0.994 --    10 C    0.978
    31   1 H    0.993 --    11 C    0.968
    32   1 H    0.993 --    11 C    0.975
    33   1 H    0.992 --    11 C    0.965
    34   1 H    0.991 --    13 C    0.971
    35   1 H    0.991 --    13 C    0.965
    36   1 H    0.992 --    13 C    0.970
    37   1 H    0.992 --    14 C    0.967
    38   1 H    0.993 --    14 C    0.976
    39   1 H    0.990 --    14 C    0.966
 ---------------------------------------------------------------------------

molecular dipole:
                 x           y           z       tot (Debye)
 q only:        3.626      -1.453       5.802
   full:        3.725      -1.619       5.683      17.755

           -------------------------------------------------
          | TOTAL ENERGY              -45.018518474418 Eh   |
          | GRADIENT NORM               0.000643427030 Eh/α |
          | HOMO-LUMO GAP               2.654605163361 eV   |
           -------------------------------------------------

 * finished run on 2024/12/20 at 06:43:17.987
