   * xtb version 6.7.1 (edcfbbe) compiled by 'conda@3ef47c1a292c' on 2024-11-25

   ID    Z sym.   atoms
    1    6 C      1-16, 18, 20-22
    2    7 N      17
    3    8 O      19
    4    1 H      23-66

          program call               : xtb C0397.xyz --opt --namespace C0397 --charge +1
          :  Hamiltonian                  GFN2-xTB          :
 * total energy  :   -71.8698464 Eh     change       -0.1194564E-09 Eh
 * total energy  :   -71.8778849 Eh     change       -0.8038483E-02 Eh
 * total energy  :   -71.8796498 Eh     change       -0.1764875E-02 Eh
 * total energy  :   -71.8798678 Eh     change       -0.2180731E-03 Eh
 * total energy  :   -71.8800555 Eh     change       -0.1876662E-03 Eh
 * total energy  :   -71.8801543 Eh     change       -0.9884219E-04 Eh
 * total energy  :   -71.8802779 Eh     change       -0.1235692E-03 Eh
 * total energy  :   -71.8803747 Eh     change       -0.9683454E-04 Eh
 * total energy  :   -71.8804369 Eh     change       -0.6214038E-04 Eh
 * total energy  :   -71.8804798 Eh     change       -0.4296379E-04 Eh
 * total energy  :   -71.8830032 Eh     change       -0.2154581E-04 Eh
 * total energy  :   -71.8830226 Eh     change       -0.1943291E-04 Eh
 * total energy  :   -71.8830403 Eh     change       -0.1770634E-04 Eh
 * total energy  :   -71.8830567 Eh     change       -0.1643571E-04 Eh
 * total energy  :   -71.8830716 Eh     change       -0.1485509E-04 Eh
 * total energy  :   -71.8830839 Eh     change       -0.1233081E-04 Eh
 * total energy  :   -71.8830913 Eh     change       -0.7423381E-05 Eh
 * total energy  :   -71.8830972 Eh     change       -0.5905236E-05 Eh
 * total energy  :   -71.8831015 Eh     change       -0.4252818E-05 Eh
   *** GEOMETRY OPTIMIZATION CONVERGED AFTER 65 ITERATIONS ***

 final structure:
================
66
 xtb: 6.7.1 (edcfbbe)
C            1.85686818763234       -0.30600867708442       -0.05916325923211
C            1.66060802968453        0.10293988709589        1.39585726956502
C            1.85847320517915        1.60081180483648        1.63344633872719
C            0.87910290344936        2.50824243695984        0.88617560460949
C           -0.59599764845378        2.28456634768815        1.22422564229759
C           -0.96343045671856        2.50586218250413        2.69290037361660
C           -0.66536519173597        3.90739139002084        3.23025476224129
C           -1.33252843974005        5.04967909319684        2.46154144198455
C           -2.85918424602262        4.97814774899442        2.39789742005511
C           -3.56483855467161        5.03782290889957        3.75402101070321
C           -3.31142182563999        6.31423406444835        4.55954172582198
C           -3.68000828668560        7.61459737400140        3.84133764070378
C           -5.12935696908111        7.69108638648387        3.35699749662905
C           -6.18715903929164        7.55444782838622        4.45459607395022
C           -6.08514866691464        8.57848423107478        5.59310721078724
C           -6.07849542868144       10.05526459469528        5.18628224414942
N           -7.40263020336955       10.76008929471080        5.11467895493101
C           -7.87704136155294       11.01713135428823        6.56617713696946
O           -6.95888732180875       11.84283466359884        7.17132878890795
C           -9.30062562511273       11.53616639227816        6.65547899204932
C           -7.18405862424004       12.04350497648664        4.42034874738953
C           -8.38911284958867        9.97494403357812        4.36031853780540
H            1.08285250504602        0.11704825121639       -0.69451382636712
H            1.81655939421429       -1.38859679376826       -0.15478632807007
H            2.82456651948136        0.03331600127576       -0.42219701243984
H            0.66559253830099       -0.19810391808190        1.72782359348248
H            2.38412308147764       -0.43545927990037        2.01297422017518
H            1.78811934259378        1.79721414294723        2.70522929838583
H            2.87114516190652        1.86960611522809        1.32206362985625
H            1.14495402530768        3.54603194709261        1.09908562152369
H            1.00779929398288        2.36195041480899       -0.18793245115168
H           -1.19464187780924        2.95004609442069        0.59791637716952
H           -0.87380433833519        1.26365784231975        0.95537115951939
H           -2.02759561198995        2.29050334211225        2.81545820625655
H           -0.42241921809910        1.78536669265186        3.30919670188730
H           -0.97476803896792        3.94529212702770        4.27737802101267
H            0.41318312166764        4.07423810308730        3.21303627036023
H           -1.03106064320381        5.99448540940773        2.92015907782919
H           -0.95239696173254        5.05905374516828        1.43845383183547
H           -3.21520190958719        5.79492772512644        1.76535134069222
H           -3.15129669033362        4.04847379604259        1.90695244484824
H           -4.63843153613009        4.91809160728330        3.58811456586455
H           -3.24346799202077        4.18943533448985        4.35993121256997
H           -3.86523686144586        6.24279516163876        5.49918090056493
H           -2.25342806695548        6.36569865114175        4.82058439037282
H           -3.46720160782320        8.45287653831797        4.51004972445040
H           -3.03191193032641        7.73232875730608        2.97200050624823
H           -5.26449687800120        8.63031339338038        2.81159820592193
H           -5.30136055890276        6.89158771425846        2.63625885840065
H           -7.17297036579304        7.57950735562422        3.98794400576168
H           -6.08410216174750        6.56879511663282        4.90903562365883
H           -6.87020256793814        8.37155512032560        6.32165599511404
H           -5.13989789762541        8.40085713474622        6.10704277129587
H           -5.48542298299982       10.62172129738307        5.90697129802270
H           -5.60654788056630       10.14566207692067        4.20807997736832
H           -7.80724319992147       10.03907335095134        7.05572328000747
H           -7.27288400015180       12.75604188837167        7.21241081333778
H          -10.02798966281452       10.81330541588289        6.30117250741896
H           -9.51360247733772       11.71866630196102        7.70768492750131
H           -9.43196908805517       12.47515743043108        6.12174127936828
H           -6.87058454539691       11.85749157051820        3.39517842460430
H           -8.10277720278607       12.62562977815278        4.39561795637328
H           -6.40527714424820       12.61221932705890        4.92543361794391
H           -7.95241738907428        9.66888462485633        3.41151666615949
H           -8.68002002701629        9.08938504081476        4.91962024292830
H           -9.27362725488389       10.57319793654712        4.15313191748186

          :  Hamiltonian                  GFN2-xTB          :
         :: total energy             -71.883101498553 Eh    ::
         :: gradient norm              0.000430377249 Eh/a0 ::
         :: HOMO-LUMO gap              5.583395477350 eV    ::
         :: SCC energy               -72.877881300503 Eh    ::
         :: -> dispersion             -0.055130952584 Eh    ::
         :: repulsion energy           0.994779801950 Eh    ::

    * Orbital Energies and Occupations

         #    Occupation            Energy/Eh            Energy/eV
      -------------------------------------------------------------
         1        2.0000           -0.8744237             -23.7943
       ...           ...                  ...                  ...
        55        2.0000           -0.5125279             -13.9466
        56        2.0000           -0.5065089             -13.7828
        57        2.0000           -0.5031308             -13.6909
        58        2.0000           -0.4961734             -13.5016
        59        2.0000           -0.4908832             -13.3576
        60        2.0000           -0.4871115             -13.2550
        61        2.0000           -0.4828382             -13.1387
        62        2.0000           -0.4727455             -12.8641
        63        2.0000           -0.4717102             -12.8359
        64        2.0000           -0.4684082             -12.7460
        65        2.0000           -0.4588497             -12.4859
        66        2.0000           -0.4532018             -12.3322
        67        2.0000           -0.4518584             -12.2957 (HOMO)
        68                         -0.2466724              -6.7123 (LUMO)
        69                         -0.1847352              -5.0269
        70                         -0.1474138              -4.0113
        71                         -0.1407534              -3.8301
        72                         -0.0904772              -2.4620
        73                         -0.0714959              -1.9455
        74                         -0.0597338              -1.6254
        75                         -0.0544063              -1.4805
        76                         -0.0405444              -1.1033
        77                         -0.0272963              -0.7428
        78                         -0.0121086              -0.3295
       ...                                ...                  ...
       132                          0.2692878               7.3277
      -------------------------------------------------------------
                  HL-Gap            0.2051860 Eh            5.5834 eV

     #   Z          covCN         q      C6AA      α(0)
     1   6 C        3.751    -0.102    22.503     6.765
     2   6 C        3.799    -0.052    21.510     6.604
     3   6 C        3.801    -0.057    21.602     6.617
     4   6 C        3.800    -0.057    21.598     6.617
     5   6 C        3.800    -0.056    21.590     6.616
     6   6 C        3.800    -0.057    21.596     6.617
     7   6 C        3.800    -0.057    21.598     6.617
     8   6 C        3.800    -0.057    21.604     6.618
     9   6 C        3.800    -0.058    21.615     6.620
    10   6 C        3.800    -0.059    21.631     6.622
    11   6 C        3.800    -0.060    21.646     6.624
    12   6 C        3.800    -0.062    21.689     6.631
    13   6 C        3.800    -0.062    21.691     6.631
    14   6 C        3.799    -0.071    21.857     6.657
    15   6 C        3.799    -0.073    21.895     6.662
    16   6 C        3.759    -0.043    21.398     6.595
    17   7 N        3.613     0.094    19.605     6.576
    18   6 C        3.666     0.151    18.392     6.150
    19   8 O        1.658    -0.407    20.982     6.184
    20   6 C        3.751    -0.148    23.432     6.903
    21   6 C        3.720    -0.089    22.316     6.747
    22   6 C        3.711    -0.093    22.415     6.766
    23   1 H        0.925     0.034     2.536     2.490
    24   1 H        0.925     0.032     2.557     2.501
    25   1 H        0.925     0.034     2.530     2.487
    26   1 H        0.924     0.030     2.586     2.515
    27   1 H        0.924     0.027     2.623     2.533
    28   1 H        0.924     0.028     2.616     2.530
    29   1 H        0.924     0.029     2.602     2.523
    30   1 H        0.924     0.027     2.629     2.536
    31   1 H        0.924     0.032     2.558     2.501
    32   1 H        0.924     0.026     2.651     2.546
    33   1 H        0.924     0.033     2.551     2.498
    34   1 H        0.924     0.025     2.656     2.548
    35   1 H        0.924     0.033     2.542     2.493
    36   1 H        0.924     0.025     2.654     2.548
    37   1 H        0.924     0.033     2.538     2.491
    38   1 H        0.924     0.025     2.664     2.552
    39   1 H        0.924     0.035     2.522     2.484
    40   1 H        0.924     0.023     2.684     2.562
    41   1 H        0.924     0.037     2.489     2.467
    42   1 H        0.924     0.024     2.681     2.560
    43   1 H        0.924     0.039     2.456     2.451
    44   1 H        0.924     0.023     2.683     2.562
    45   1 H        0.924     0.041     2.429     2.437
    46   1 H        0.924     0.022     2.709     2.574
    47   1 H        0.924     0.045     2.381     2.413
    48   1 H        0.924     0.015     2.808     2.621
    49   1 H        0.925     0.054     2.275     2.359
    50   1 H        0.924     0.031     2.568     2.506
    51   1 H        0.924     0.062     2.176     2.307
    52   1 H        0.924     0.044     2.391     2.418
    53   1 H        0.924     0.080     1.980     2.201
    54   1 H        0.924     0.096     1.823     2.111
    55   1 H        0.925     0.092     1.863     2.134
    56   1 H        0.924     0.087     1.908     2.160
    57   1 H        0.805     0.328     0.642     1.259
    58   1 H        0.925     0.078     2.003     2.213
    59   1 H        0.925     0.095     1.833     2.117
    60   1 H        0.925     0.067     2.122     2.278
    61   1 H        0.925     0.096     1.825     2.113
    62   1 H        0.925     0.089     1.885     2.147
    63   1 H        0.925     0.102     1.770     2.081
    64   1 H        0.925     0.104     1.746     2.066
    65   1 H        0.925     0.097     1.810     2.104
    66   1 H        0.925     0.095     1.834     2.118

Wiberg/Mayer (AO) data.
largest (>0.10) Wiberg bond orders for each atom

     #   Z sym  total        # sym  WBO       # sym  WBO       # sym  WBO
 ---------------------------------------------------------------------------
     1   6 C    3.997 --     2 C    1.020    25 H    0.988    24 H    0.987
                            23 H    0.986
     2   6 C    3.998 --     1 C    1.020     3 C    1.008    27 H    0.978
                            26 H    0.976
     3   6 C    3.998 --     2 C    1.008     4 C    1.008    29 H    0.977
                            28 H    0.976
     4   6 C    3.998 --     5 C    1.008     3 C    1.008    31 H    0.975
                            30 H    0.975
     5   6 C    3.998 --     4 C    1.008     6 C    1.008    32 H    0.975
                            33 H    0.974
     6   6 C    3.997 --     5 C    1.008     7 C    1.008    34 H    0.975
                            35 H    0.975
     7   6 C    3.997 --     8 C    1.008     6 C    1.008    36 H    0.975
                            37 H    0.975
     8   6 C    3.997 --     9 C    1.008     7 C    1.008    38 H    0.975
                            39 H    0.974
     9   6 C    3.997 --     8 C    1.008    10 C    1.008    40 H    0.975
                            41 H    0.974
    10   6 C    3.997 --     9 C    1.008    11 C    1.007    42 H    0.975
                            43 H    0.974
    11   6 C    3.996 --    10 C    1.007    12 C    1.007    44 H    0.976
                            45 H    0.974
    12   6 C    3.996 --    13 C    1.007    11 C    1.007    46 H    0.976
                            47 H    0.973
    13   6 C    3.995 --    14 C    1.008    12 C    1.007    48 H    0.972
                            49 H    0.971
    14   6 C    3.992 --    13 C    1.008    15 C    1.004    50 H    0.974
                            51 H    0.970
    15   6 C    3.984 --    16 C    1.006    14 C    1.004    52 H    0.965
                            53 H    0.963
    16   6 C    3.919 --    15 C    1.006    54 H    0.965    55 H    0.958
                            17 N    0.918
    17   7 N    3.791 --    22 C    0.965    21 C    0.964    16 C    0.918
                            18 C    0.856
    18   6 C    3.924 --    19 O    1.057    20 C    1.011    56 H    0.944
                            17 N    0.856
    19   8 O    2.035 --    18 C    1.057    57 H    0.871
    20   6 C    3.981 --    18 C    1.011    58 H    0.978    60 H    0.976
                            59 H    0.969
    21   6 C    3.932 --    61 H    0.974    63 H    0.973    62 H    0.972
                            17 N    0.964
    22   6 C    3.930 --    66 H    0.973    65 H    0.973    64 H    0.970
                            17 N    0.965
    23   1 H    0.999 --     1 C    0.986
    24   1 H    0.999 --     1 C    0.987
    25   1 H    0.999 --     1 C    0.988
    26   1 H    0.999 --     2 C    0.976
    27   1 H    0.999 --     2 C    0.978
    28   1 H    0.999 --     3 C    0.976
    29   1 H    0.999 --     3 C    0.977
    30   1 H    0.999 --     4 C    0.975
    31   1 H    0.999 --     4 C    0.975
    32   1 H    0.999 --     5 C    0.975
    33   1 H    0.999 --     5 C    0.974
    34   1 H    0.999 --     6 C    0.975
    35   1 H    0.999 --     6 C    0.975
    36   1 H    0.999 --     7 C    0.975
    37   1 H    0.999 --     7 C    0.975
    38   1 H    0.999 --     8 C    0.975
    39   1 H    0.999 --     8 C    0.974
    40   1 H    0.999 --     9 C    0.975
    41   1 H    0.999 --     9 C    0.974
    42   1 H    0.999 --    10 C    0.975
    43   1 H    0.998 --    10 C    0.974
    44   1 H    0.999 --    11 C    0.976
    45   1 H    0.998 --    11 C    0.974
    46   1 H    1.000 --    12 C    0.976
    47   1 H    0.998 --    12 C    0.973
    48   1 H    1.000 --    13 C    0.972
    49   1 H    0.997 --    13 C    0.971
    50   1 H    0.999 --    14 C    0.974
    51   1 H    0.996 --    14 C    0.970
    52   1 H    0.998 --    15 C    0.965
    53   1 H    0.993 --    15 C    0.963
    54   1 H    0.991 --    16 C    0.965
    55   1 H    0.991 --    16 C    0.958
    56   1 H    0.992 --    18 C    0.944
    57   1 H    0.892 --    19 O    0.871
    58   1 H    0.994 --    20 C    0.978
    59   1 H    0.991 --    20 C    0.969
    60   1 H    0.996 --    20 C    0.976
    61   1 H    0.991 --    21 C    0.974
    62   1 H    0.992 --    21 C    0.972
    63   1 H    0.990 --    21 C    0.973
    64   1 H    0.989 --    22 C    0.970
    65   1 H    0.991 --    22 C    0.973
    66   1 H    0.991 --    22 C    0.973
 ---------------------------------------------------------------------------

molecular dipole:
                 x           y           z       tot (Debye)
 q only:      -14.084      20.019       9.587
   full:      -14.284      20.239       9.562      67.490

           -------------------------------------------------
          | TOTAL ENERGY              -71.883101498553 Eh   |
          | GRADIENT NORM               0.000430377249 Eh/α |
          | HOMO-LUMO GAP               5.583395477350 eV   |
           -------------------------------------------------

 * finished run on 2024/12/20 at 06:43:30.433
