   * xtb version 6.7.1 (edcfbbe) compiled by 'conda@3ef47c1a292c' on 2024-11-25

   ID    Z sym.   atoms
    1   35 Br     1, 4, 6, 10
    2    6 C      2, 3, 5, 7-9, 12, 13, 15, 16
    3    7 N      11, 14
    4    9 F      17-19
    5    1 H      20-25

          program call               : xtb C0406.xyz --opt --namespace C0406 --charge +1
          :  Hamiltonian                  GFN2-xTB          :
 * total energy  :   -60.4284435 Eh     change       -0.3102087E-09 Eh
 * total energy  :   -60.4434967 Eh     change       -0.1505323E-01 Eh
 * total energy  :   -60.4464072 Eh     change       -0.2910488E-02 Eh
 * total energy  :   -60.4447052 Eh     change        0.1702030E-02 Eh
 * total energy  :   -60.4471541 Eh     change       -0.2448894E-02 Eh
 * total energy  :   -60.4472865 Eh     change       -0.1324251E-03 Eh
 * total energy  :   -60.4473912 Eh     change       -0.1046779E-03 Eh
 * total energy  :   -60.4474850 Eh     change       -0.9377423E-04 Eh
 * total energy  :   -60.4475131 Eh     change       -0.2813597E-04 Eh
 * total energy  :   -60.4475468 Eh     change       -0.3369654E-04 Eh
 * total energy  :   -60.4475710 Eh     change       -0.2417325E-04 Eh
 * total energy  :   -60.4475846 Eh     change       -0.1366294E-04 Eh
 * total energy  :   -60.4475931 Eh     change       -0.8500311E-05 Eh
 * total energy  :   -60.4475984 Eh     change       -0.5296035E-05 Eh
 * total energy  :   -60.4476023 Eh     change       -0.3862957E-05 Eh
   *** GEOMETRY OPTIMIZATION CONVERGED AFTER 15 ITERATIONS ***

 final structure:
================
25
 xtb: 6.7.1 (edcfbbe)
Br           1.08356606836114       -0.01493009602810        0.01092389823736
C            2.95928842257639       -0.03628633676215        0.03065348548245
C            3.65860261257880        1.18841658312937        0.01706372274165
Br           2.68817200377999        2.79340982278821       -0.01796265130945
C            5.05258827386076        1.22887609417229        0.00846659827865
Br           5.91050334216088        2.90506735641234       -0.11933807242016
C            5.73507272619479        0.00574137627856        0.05340126873214
C            5.03294918132136       -1.22514549127874        0.06783729485243
C            3.63205343704665       -1.25818303965834        0.03616893096228
Br           2.61997268051551       -2.84849966246611       -0.06144890384547
N            5.98105382539043       -2.22524569974534        0.09558886255518
C            5.71666776397628       -3.63559031407586        0.25441174221901
C            7.18439565263700       -1.63785733829001        0.05799115408890
N            7.07732605928591       -0.30237628818744        0.07184176824189
C            8.16509253434064        0.63787452664498        0.19824781423053
C            8.51477265842822       -2.36521663716780       -0.05662538067994
F            9.35934669720863       -1.67984906319063       -0.82292293241026
F            9.08106348181559       -2.52362977785761        1.14107360901918
F            8.37561673732375       -3.56406403311285       -0.60935365150319
H            5.35920394008851       -4.06860897355864       -0.68107810258738
H            6.61040542797393       -4.16645998418212        0.56887575742319
H            4.95328069481456       -3.77357746304487        1.01814733245740
H            8.33754405810500        1.15710981693793       -0.74565361559875
H            7.91804267427764        1.37315237544397        0.96243407836294
H            9.08064904593764        0.13457224679892        0.49598599246913

          :  Hamiltonian                  GFN2-xTB          :
         :: total energy             -60.447602300359 Eh    ::
         :: gradient norm              0.000475371830 Eh/a0 ::
         :: HOMO-LUMO gap              1.940139067743 eV    ::
         :: SCC energy               -60.929498731682 Eh    ::
         :: -> dispersion             -0.036913212227 Eh    ::
         :: repulsion energy           0.481896431323 Eh    ::

    * Orbital Energies and Occupations

         #    Occupation            Energy/Eh            Energy/eV
      -------------------------------------------------------------
         1        2.0000           -1.0494389             -28.5567
       ...           ...                  ...                  ...
        40        2.0000           -0.6524288             -17.7535
        41        2.0000           -0.6464740             -17.5915
        42        2.0000           -0.6393760             -17.3983
        43        2.0000           -0.6343055             -17.2603
        44        2.0000           -0.6212793             -16.9059
        45        2.0000           -0.5847777             -15.9126
        46        2.0000           -0.5777272             -15.7208
        47        2.0000           -0.5761891             -15.6789
        48        2.0000           -0.5758669             -15.6701
        49        2.0000           -0.5647596             -15.3679
        50        2.0000           -0.5520602             -15.0223
        51        2.0000           -0.5518339             -15.0162
        52        2.0000           -0.5488546             -14.9351 (HOMO)
        53                         -0.4775558             -12.9950 (LUMO)
        54                         -0.4334599             -11.7950
        55                         -0.4263117             -11.6005
        56                         -0.3906424             -10.6299
        57                         -0.3754204             -10.2157
        58                         -0.3483094              -9.4780
        59                         -0.3442850              -9.3685
        60                         -0.3273895              -8.9087
        61                         -0.2381637              -6.4808
        62                         -0.1970861              -5.3630
        63                         -0.1605648              -4.3692
       ...                                ...                  ...
       102                          0.4546430              12.3715
      -------------------------------------------------------------
                  HL-Gap            0.0712988 Eh            1.9401 eV

     #   Z          covCN         q      C6AA      α(0)
     1  35 Br       1.583    -0.000   185.029    21.932
     2   6 C        3.072     0.066    26.439     8.431
     3   6 C        3.072     0.067    26.437     8.430
     4  35 Br       1.581    -0.000   185.029    21.932
     5   6 C        2.981     0.058    26.698     8.476
     6  35 Br       1.305    -0.032   185.899    21.984
     7   6 C        3.146     0.034    26.989     8.499
     8   6 C        3.147     0.034    26.990     8.499
     9   6 C        2.980     0.058    26.699     8.476
    10  35 Br       1.307    -0.032   185.905    21.984
    11   7 N        2.812     0.060    20.194     6.674
    12   6 C        3.692    -0.097    22.550     6.795
    13   6 C        3.116     0.074    26.193     8.383
    14   7 N        2.813     0.059    20.205     6.676
    15   6 C        3.692    -0.096    22.528     6.792
    16   6 C        3.329     0.496    17.246     6.592
    17   9 F        0.792    -0.166    10.893     3.899
    18   9 F        0.791    -0.170    10.933     3.906
    19   9 F        0.792    -0.164    10.869     3.894
    20   1 H        0.924     0.130     1.536     1.938
    21   1 H        0.925     0.118     1.629     1.996
    22   1 H        0.925     0.129     1.543     1.943
    23   1 H        0.924     0.130     1.532     1.936
    24   1 H        0.925     0.129     1.543     1.942
    25   1 H        0.925     0.116     1.643     2.005

Wiberg/Mayer (AO) data.
largest (>0.10) Wiberg bond orders for each atom

     #   Z sym  total        # sym  WBO       # sym  WBO       # sym  WBO
 ---------------------------------------------------------------------------
     1  35 Br   1.317 --     2 C    1.082
     2   6 C    3.964 --     9 C    1.380     3 C    1.292     1 Br   1.082
     3   6 C    3.964 --     5 C    1.380     2 C    1.292     4 Br   1.082
     4  35 Br   1.317 --     3 C    1.082
     5   6 C    3.957 --     3 C    1.380     7 C    1.290     6 Br   1.050
     6  35 Br   1.271 --     5 C    1.050
     7   6 C    3.957 --     5 C    1.290     8 C    1.252    14 N    1.155
     8   6 C    3.957 --     9 C    1.290     7 C    1.252    11 N    1.154
     9   6 C    3.957 --     2 C    1.380     8 C    1.290    10 Br   1.050
    10  35 Br   1.271 --     9 C    1.050
    11   7 N    3.685 --    13 C    1.333     8 C    1.154    12 C    0.979
                            14 N    0.104
    12   6 C    3.906 --    11 N    0.979    21 H    0.967    22 H    0.952
                            20 H    0.949
    13   6 C    3.942 --    11 N    1.333    14 N    1.332    16 C    0.935
    14   7 N    3.685 --    13 C    1.332     7 C    1.155    15 C    0.979
                            11 N    0.104
    15   6 C    3.907 --    14 N    0.979    25 H    0.968    24 H    0.951
                            23 H    0.949
    16   6 C    3.874 --    19 F    0.974    17 F    0.969    18 F    0.962
                            13 C    0.935
    17   9 F    1.109 --    16 C    0.969
    18   9 F    1.104 --    16 C    0.962
    19   9 F    1.113 --    16 C    0.974
    20   1 H    0.981 --    12 C    0.949
    21   1 H    0.985 --    12 C    0.967
    22   1 H    0.982 --    12 C    0.952
    23   1 H    0.981 --    15 C    0.949
    24   1 H    0.982 --    15 C    0.951
    25   1 H    0.986 --    15 C    0.968
 ---------------------------------------------------------------------------

molecular dipole:
                 x           y           z       tot (Debye)
 q only:       11.395      -1.872       0.368
   full:       11.068      -1.689       0.337      28.471

           -------------------------------------------------
          | TOTAL ENERGY              -60.447602300359 Eh   |
          | GRADIENT NORM               0.000475371830 Eh/α |
          | HOMO-LUMO GAP               1.940139067743 eV   |
           -------------------------------------------------

 * finished run on 2024/12/20 at 06:43:42.728
