   * xtb version 6.7.1 (edcfbbe) compiled by 'conda@3ef47c1a292c' on 2024-11-25

   ID    Z sym.   atoms
    1    6 C      1-7, 9-13
    2    7 N      8
    3    1 H      14-25

          program call               : xtb C0400.xyz --opt --namespace C0400 --charge +1
          :  Hamiltonian                  GFN2-xTB          :
 * total energy  :   -34.3093254 Eh     change       -0.8807390E-09 Eh
 * total energy  :   -34.3120440 Eh     change       -0.2718568E-02 Eh
 * total energy  :   -34.3124151 Eh     change       -0.3711781E-03 Eh
 * total energy  :   -34.3124789 Eh     change       -0.6372728E-04 Eh
 * total energy  :   -34.3125169 Eh     change       -0.3805809E-04 Eh
 * total energy  :   -34.3125389 Eh     change       -0.2194610E-04 Eh
 * total energy  :   -34.3125525 Eh     change       -0.1361390E-04 Eh
 * total energy  :   -34.3125756 Eh     change       -0.2312245E-04 Eh
 * total energy  :   -34.3125920 Eh     change       -0.1641836E-04 Eh
 * total energy  :   -34.3126076 Eh     change       -0.1555885E-04 Eh
 * total energy  :   -34.3126253 Eh     change       -0.1769954E-04 Eh
 * total energy  :   -34.3126425 Eh     change       -0.1722046E-04 Eh
 * total energy  :   -34.3126551 Eh     change       -0.1263163E-04 Eh
 * total energy  :   -34.3126608 Eh     change       -0.5666023E-05 Eh
 * total energy  :   -34.3126633 Eh     change       -0.2532270E-05 Eh
   *** GEOMETRY OPTIMIZATION CONVERGED AFTER 15 ITERATIONS ***

 final structure:
================
25
 xtb: 6.7.1 (edcfbbe)
C            1.20181799607363       -0.36921460651154        0.29088239870966
C            0.97974474489994        0.87912884482186       -0.26527150011446
C           -0.31289115440711        1.30939344137546       -0.51202335387819
C           -1.38855879700774        0.48507929382081       -0.21094812432131
C           -1.16271929407447       -0.76637542608772        0.34829675514776
C            0.13028339498217       -1.19274315753323        0.59493746636772
C           -2.80891503227791        0.95542715775564       -0.45789486288083
N           -3.38606778490057        1.40324406805329        0.80298931085577
C           -3.04131197472408        2.60246568880642        1.28699463499657
C           -3.49547670994128        3.03596085863447        2.51425053203615
C           -4.32166252544559        2.20749939600543        3.26407558014124
C           -4.66474540606802        0.96580333177697        2.74638043280457
C           -4.17949034974491        0.59221642827953        1.50923821246605
H            2.20925675221917       -0.70288114485504        0.48276115720685
H            1.81181354650904        1.51984818905350       -0.51128838957262
H           -0.47739384672528        2.27820966810726       -0.96103540019997
H           -1.99372213928825       -1.41721989931860        0.57932269521867
H            0.29940026624155       -2.16915636724444        1.02085784170326
H           -2.81266034672741        1.78516765432704       -1.16710736352369
H           -3.41597528051706        0.14240879768800       -0.85930141858219
H           -2.39097907186761        3.21082609022886        0.67611987056128
H           -3.20624130454050        4.00948817228081        2.87620117673567
H           -4.69090164637253        2.52395700832356        4.22677164079478
H           -5.30463935749274        0.29159456084181        3.29283754514040
H           -4.43044467880232       -0.36290804863077        1.07190316218695

          :  Hamiltonian                  GFN2-xTB          :
         :: total energy             -34.312663343969 Eh    ::
         :: gradient norm              0.000440697764 Eh/a0 ::
         :: HOMO-LUMO gap              1.938887168694 eV    ::
         :: SCC energy               -34.952108794945 Eh    ::
         :: -> dispersion             -0.022171969008 Eh    ::
         :: repulsion energy           0.639445450976 Eh    ::

    * Orbital Energies and Occupations

         #    Occupation            Energy/Eh            Energy/eV
      -------------------------------------------------------------
         1        2.0000           -0.8795655             -23.9342
       ...           ...                  ...                  ...
        20        2.0000           -0.6368872             -17.3306
        21        2.0000           -0.6236622             -16.9707
        22        2.0000           -0.6234027             -16.9637
        23        2.0000           -0.6186821             -16.8352
        24        2.0000           -0.6151529             -16.7392
        25        2.0000           -0.6097189             -16.5913
        26        2.0000           -0.6021319             -16.3848
        27        2.0000           -0.6006458             -16.3444
        28        2.0000           -0.6001407             -16.3307
        29        2.0000           -0.5489946             -14.9389
        30        2.0000           -0.5446023             -14.8194
        31        2.0000           -0.5303896             -14.4326
        32        2.0000           -0.5295375             -14.4094 (HOMO)
        33                         -0.4582847             -12.4706 (LUMO)
        34                         -0.4283884             -11.6570
        35                         -0.3551497              -9.6641
        36                         -0.3476459              -9.4599
        37                         -0.3071685              -8.3585
        38                         -0.2251026              -6.1254
        39                         -0.1551493              -4.2218
        40                         -0.0751223              -2.0442
        41                         -0.0538422              -1.4651
        42                         -0.0428161              -1.1651
        43                         -0.0283736              -0.7721
       ...                                ...                  ...
        64                          0.5389400              14.6653
      -------------------------------------------------------------
                  HL-Gap            0.0712528 Eh            1.9389 eV

     #   Z          covCN         q      C6AA      α(0)
     1   6 C        2.920    -0.018    28.452     8.747
     2   6 C        2.920    -0.020    28.509     8.756
     3   6 C        2.922    -0.036    28.888     8.814
     4   6 C        2.973    -0.002    28.082     8.692
     5   6 C        2.922    -0.037    28.914     8.818
     6   6 C        2.919    -0.020    28.515     8.757
     7   6 C        3.764    -0.038    21.296     6.578
     8   7 N        2.752     0.113    19.300     6.525
     9   6 C        2.894     0.033    27.253     8.559
    10   6 C        2.916    -0.010    28.257     8.717
    11   6 C        2.925     0.013    27.720     8.634
    12   6 C        2.916    -0.010    28.263     8.718
    13   6 C        2.891     0.034    27.244     8.558
    14   1 H        0.926     0.064     2.149     2.292
    15   1 H        0.926     0.062     2.176     2.307
    16   1 H        0.926     0.043     2.415     2.430
    17   1 H        0.926     0.038     2.477     2.461
    18   1 H        0.926     0.060     2.196     2.317
    19   1 H        0.924     0.094     1.837     2.120
    20   1 H        0.924     0.092     1.856     2.131
    21   1 H        0.926     0.110     1.693     2.035
    22   1 H        0.926     0.108     1.710     2.045
    23   1 H        0.926     0.108     1.718     2.050
    24   1 H        0.926     0.108     1.710     2.045
    25   1 H        0.926     0.108     1.709     2.045

Wiberg/Mayer (AO) data.
largest (>0.10) Wiberg bond orders for each atom

     #   Z sym  total        # sym  WBO       # sym  WBO       # sym  WBO
 ---------------------------------------------------------------------------
     1   6 C    3.987 --     2 C    1.440     6 C    1.436    14 H    0.968
                             4 C    0.108
     2   6 C    3.988 --     1 C    1.440     3 C    1.439    15 H    0.968
                             5 C    0.111
     3   6 C    3.989 --     2 C    1.439     4 C    1.414    16 H    0.967
                             6 C    0.110
     4   6 C    3.974 --     3 C    1.414     5 C    1.411     7 C    0.967
                             1 C    0.108
     5   6 C    3.992 --     6 C    1.444     4 C    1.411    17 H    0.968
                             2 C    0.111
     6   6 C    3.989 --     5 C    1.444     1 C    1.436    18 H    0.968
                             3 C    0.110
     7   6 C    3.930 --     4 C    0.967    20 H    0.962    19 H    0.958
                             8 N    0.953
     8   7 N    3.768 --    13 C    1.331     9 C    1.323     7 C    0.953
     9   6 C    3.957 --    10 C    1.468     8 N    1.323    21 H    0.954
    10   6 C    3.981 --     9 C    1.468    11 C    1.417    22 H    0.959
    11   6 C    3.967 --    12 C    1.426    10 C    1.417    23 H    0.961
    12   6 C    3.980 --    13 C    1.457    11 C    1.426    24 H    0.959
    13   6 C    3.956 --    12 C    1.457     8 N    1.331    25 H    0.954
    14   1 H    0.995 --     1 C    0.968
    15   1 H    0.995 --     2 C    0.968
    16   1 H    0.998 --     3 C    0.967
    17   1 H    0.999 --     5 C    0.968
    18   1 H    0.996 --     6 C    0.968
    19   1 H    0.991 --     7 C    0.958
    20   1 H    0.991 --     7 C    0.962
    21   1 H    0.988 --     9 C    0.954
    22   1 H    0.988 --    10 C    0.959
    23   1 H    0.988 --    11 C    0.961
    24   1 H    0.988 --    12 C    0.959
    25   1 H    0.988 --    13 C    0.954
 ---------------------------------------------------------------------------

molecular dipole:
                 x           y           z       tot (Debye)
 q only:       -5.782       2.663       2.560
   full:       -5.871       2.670       2.517      17.596

           -------------------------------------------------
          | TOTAL ENERGY              -34.312663343969 Eh   |
          | GRADIENT NORM               0.000440697764 Eh/α |
          | HOMO-LUMO GAP               1.938887168694 eV   |
           -------------------------------------------------

 * finished run on 2024/12/20 at 06:43:33.680
