   * xtb version 6.7.1 (edcfbbe) compiled by 'conda@3ef47c1a292c' on 2024-11-25

   ID    Z sym.   atoms
    1    6 C      1-7, 9, 11-22
    2    8 O      8
    3    7 N      10
    4    1 H      23-56

          program call               : xtb C0402.xyz --opt --namespace C0402 --charge +1
          :  Hamiltonian                  GFN2-xTB          :
 * total energy  :   -66.7638533 Eh     change       -0.1137167E-08 Eh
 * total energy  :   -66.7714567 Eh     change       -0.7603401E-02 Eh
 * total energy  :   -66.7735024 Eh     change       -0.2045727E-02 Eh
 * total energy  :   -66.7740714 Eh     change       -0.5689789E-03 Eh
 * total energy  :   -66.7748029 Eh     change       -0.7315541E-03 Eh
 * total energy  :   -66.7754169 Eh     change       -0.6139193E-03 Eh
 * total energy  :   -66.7760054 Eh     change       -0.5885543E-03 Eh
 * total energy  :   -66.7765513 Eh     change       -0.5458677E-03 Eh
 * total energy  :   -66.7770116 Eh     change       -0.4603730E-03 Eh
 * total energy  :   -66.7774243 Eh     change       -0.4126589E-03 Eh
 * total energy  :   -66.7827081 Eh     change       -0.6355648E-05 Eh
 * total energy  :   -66.7827157 Eh     change       -0.7582075E-05 Eh
 * total energy  :   -66.7827244 Eh     change       -0.8777340E-05 Eh
 * total energy  :   -66.7827320 Eh     change       -0.7580125E-05 Eh
 * total energy  :   -66.7827388 Eh     change       -0.6785333E-05 Eh
 * total energy  :   -66.7827459 Eh     change       -0.7111069E-05 Eh
 * total energy  :   -66.7827528 Eh     change       -0.6844506E-05 Eh
 * total energy  :   -66.7827587 Eh     change       -0.5940639E-05 Eh
 * total energy  :   -66.7827634 Eh     change       -0.4657282E-05 Eh
   *** GEOMETRY OPTIMIZATION CONVERGED AFTER 58 ITERATIONS ***

 final structure:
================
56
 xtb: 6.7.1 (edcfbbe)
C            2.22884065601024        0.22456180491799        1.63065871619949
C            0.71204460205296        0.08044810219814        1.55831125562307
C            0.00420139717895        1.38661559260156        1.89054400658655
C           -1.50402488019532        1.19053239511683        1.83708400244467
C           -2.03634095988918        0.70949236834479        0.47668081323079
C           -1.23205188549138       -0.51532335981573       -0.00056577270223
C            0.28162737829705       -0.33249766641023        0.15473696614683
O           -1.50479827938948       -0.71965936858757       -1.41173132639383
C           -1.29082278557937       -2.00799725707520       -1.86797902056987
N           -1.54135621838607       -2.04720850476549       -3.33982867271445
C           -0.53488269327618       -1.18437726186812       -4.05600778176253
C            0.86962156429605       -1.72705035975771       -4.05491982565563
C            1.29638340270688       -2.59092317880097       -5.06030791051529
C            2.59224526897337       -3.07570348664858       -5.06442300241139
C            3.47870300141096       -2.70082964113808       -4.06798277738194
C            3.07075200059500       -1.82214039371346       -3.07877700145166
C            1.77595350331519       -1.33333420698997       -3.07655732682374
C           -1.46397145816526       -3.44251886164626       -3.80133231243065
C           -2.88751984814351       -1.51660181621583       -3.62351684162397
C           -3.55233142244204        0.43302979682373        0.62801260863208
C           -4.31066932415039        1.72101224671491        0.95952673284811
C           -4.19950992300804       -0.18839995159993       -0.60774423764314
H            2.72037671827467       -0.71530450865400        1.38915723402994
H            2.57401676603755        0.98531336569219        0.93379027453113
H            2.53068438422065        0.51899760595520        2.63182553176446
H            0.39483959384532       -0.68890847015596        2.27037727600673
H            0.28541002712830        1.72252593098019        2.88913668087306
H            0.30882899434290        2.15817627424150        1.18051401287930
H           -1.78983066141529        0.46170757179824        2.59926310425646
H           -1.98195687481009        2.13623321543564        2.08359065785511
H           -1.89086636004291        1.49595163454892       -0.27039305790322
H           -1.56405319740619       -1.40431182594337        0.55348673371890
H            0.59223784150740        0.44988474654701       -0.54282981242776
H            0.78849459932983       -1.26275716910277       -0.11543798612611
H           -0.25784611183278       -2.35009185511179       -1.70184987908275
H           -1.98070419198218       -2.72272528688128       -1.38602811733592
H           -0.88187576471591       -1.07503920026250       -5.08515565604291
H           -0.56439661381743       -0.21131462381100       -3.56175765174749
H            0.62350907225727       -2.87250993757719       -5.85727682205769
H            2.91175260001505       -3.74003287723129       -5.85191204541994
H            4.48867494549099       -3.07882545360934       -4.07295356197930
H            3.76277960773051       -1.50646183304935       -2.31376298142303
H            1.47528053307213       -0.62174342193132       -2.32410465541381
H           -2.22788845807739       -4.04205512028378       -3.30904442971885
H           -1.62853449105864       -3.48170715504139       -4.87627717304846
H           -0.48417517588229       -3.86177175299036       -3.57907574236586
H           -3.63983433850741       -2.11152071649532       -3.10928583884391
H           -2.95117662428893       -0.49125620006101       -3.26703113225441
H           -3.08252076217589       -1.54704933406276       -4.69317295249670
H           -3.68052010848839       -0.26744293315793        1.46145012028004
H           -4.09775017995412        2.48988556942039        0.22017540171728
H           -5.38094361021852        1.53079764149436        0.95218121291516
H           -4.05620211099942        2.10268534781305        1.94256350774397
H           -3.81909626655038       -1.18697916879625       -0.79757810227033
H           -5.27279773730327       -0.26966779709029       -0.45225224657598
H           -4.02951914044621        0.43940074567857       -1.47861319566190

          :  Hamiltonian                  GFN2-xTB          :
         :: total energy             -66.782763350946 Eh    ::
         :: gradient norm              0.000308405696 Eh/a0 ::
         :: HOMO-LUMO gap              3.989359787457 eV    ::
         :: SCC energy               -67.764395766835 Eh    ::
         :: -> dispersion             -0.054580358730 Eh    ::
         :: repulsion energy           0.981632415890 Eh    ::

    * Orbital Energies and Occupations

         #    Occupation            Energy/Eh            Energy/eV
      -------------------------------------------------------------
         1        2.0000           -0.8632032             -23.4890
       ...           ...                  ...                  ...
        50        2.0000           -0.5450776             -14.8323
        51        2.0000           -0.5423286             -14.7575
        52        2.0000           -0.5382948             -14.6477
        53        2.0000           -0.5358304             -14.5807
        54        2.0000           -0.5325091             -14.4903
        55        2.0000           -0.5261711             -14.3178
        56        2.0000           -0.5252190             -14.2919
        57        2.0000           -0.5246511             -14.2765
        58        2.0000           -0.5226624             -14.2224
        59        2.0000           -0.5156933             -14.0327
        60        2.0000           -0.5127432             -13.9525
        61        2.0000           -0.5065968             -13.7852
        62        2.0000           -0.5011120             -13.6360 (HOMO)
        63                         -0.3545058              -9.6466 (LUMO)
        64                         -0.3433563              -9.3432
        65                         -0.2344758              -6.3804
        66                         -0.2087374              -5.6800
        67                         -0.1630751              -4.4375
        68                         -0.1415452              -3.8516
        69                         -0.1379495              -3.7538
        70                         -0.1036213              -2.8197
        71                         -0.0674986              -1.8367
        72                         -0.0591648              -1.6100
        73                         -0.0428082              -1.1649
       ...                                ...                  ...
       122                          0.5432608              14.7829
      -------------------------------------------------------------
                  HL-Gap            0.1466063 Eh            3.9894 eV

     #   Z          covCN         q      C6AA      α(0)
     1   6 C        3.756    -0.112    22.698     6.793
     2   6 C        3.855    -0.015    20.807     6.488
     3   6 C        3.811    -0.068    21.803     6.646
     4   6 C        3.809    -0.069    21.817     6.649
     5   6 C        3.850    -0.031    21.086     6.531
     6   6 C        3.740     0.109    18.869     6.198
     7   6 C        3.811    -0.068    21.803     6.646
     8   8 O        1.698    -0.313    19.228     5.920
     9   6 C        3.654     0.128    18.782     6.222
    10   7 N        3.620     0.120    19.187     6.506
    11   6 C        3.763    -0.042    21.365     6.589
    12   6 C        2.967    -0.008    28.217     8.713
    13   6 C        2.923    -0.039    28.979     8.828
    14   6 C        2.918    -0.023    28.577     8.766
    15   6 C        2.920    -0.019    28.482     8.752
    16   6 C        2.918    -0.023    28.579     8.767
    17   6 C        2.924    -0.040    29.002     8.831
    18   6 C        3.718    -0.093    22.398     6.760
    19   6 C        3.722    -0.093    22.390     6.757
    20   6 C        3.851    -0.015    20.801     6.487
    21   6 C        3.758    -0.114    22.741     6.799
    22   6 C        3.757    -0.107    22.599     6.778
    23   1 H        0.925     0.038     2.480     2.463
    24   1 H        0.925     0.041     2.437     2.441
    25   1 H        0.925     0.051     2.311     2.377
    26   1 H        0.924     0.035     2.518     2.482
    27   1 H        0.924     0.049     2.337     2.391
    28   1 H        0.924     0.042     2.422     2.434
    29   1 H        0.924     0.039     2.459     2.452
    30   1 H        0.925     0.056     2.246     2.344
    31   1 H        0.924     0.052     2.299     2.371
    32   1 H        0.923     0.023     2.690     2.565
    33   1 H        0.924     0.046     2.367     2.406
    34   1 H        0.924     0.024     2.668     2.554
    35   1 H        0.923     0.064     2.150     2.293
    36   1 H        0.923     0.054     2.267     2.355
    37   1 H        0.924     0.084     1.936     2.176
    38   1 H        0.924     0.102     1.763     2.077
    39   1 H        0.926     0.039     2.456     2.451
    40   1 H        0.926     0.058     2.225     2.332
    41   1 H        0.926     0.061     2.190     2.314
    42   1 H        0.926     0.057     2.234     2.337
    43   1 H        0.926     0.049     2.334     2.389
    44   1 H        0.925     0.094     1.843     2.123
    45   1 H        0.925     0.103     1.756     2.072
    46   1 H        0.925     0.098     1.802     2.099
    47   1 H        0.925     0.096     1.818     2.108
    48   1 H        0.925     0.119     1.622     1.992
    49   1 H        0.925     0.095     1.836     2.119
    50   1 H        0.924     0.033     2.543     2.494
    51   1 H        0.925     0.041     2.434     2.440
    52   1 H        0.925     0.047     2.352     2.398
    53   1 H        0.925     0.045     2.382     2.414
    54   1 H        0.925     0.020     2.728     2.583
    55   1 H        0.925     0.046     2.371     2.408
    56   1 H        0.925     0.035     2.514     2.480

Wiberg/Mayer (AO) data.
largest (>0.10) Wiberg bond orders for each atom

     #   Z sym  total        # sym  WBO       # sym  WBO       # sym  WBO
 ---------------------------------------------------------------------------
     1   6 C    3.994 --     2 C    1.008    24 H    0.986    23 H    0.986
                            25 H    0.985
     2   6 C    3.994 --     1 C    1.008     3 C    0.999     7 C    0.993
                            26 H    0.967
     3   6 C    3.996 --     4 C    1.008     2 C    0.999    28 H    0.975
                            27 H    0.974
     4   6 C    3.993 --     3 C    1.008     5 C    0.991    29 H    0.975
                            30 H    0.969
     5   6 C    3.988 --     4 C    0.991    20 C    0.982     6 C    0.980
                            31 H    0.964
     6   6 C    3.913 --     7 C    0.991     5 C    0.980    32 H    0.964
                             8 O    0.905
     7   6 C    3.994 --     2 C    0.993     6 C    0.991    34 H    0.970
                            33 H    0.970
     8   8 O    2.072 --     9 C    1.033     6 C    0.905
     9   6 C    3.935 --     8 O    1.033    36 H    0.953    35 H    0.950
                            10 N    0.926
    10   7 N    3.804 --    18 C    0.961    19 C    0.954     9 C    0.926
                            11 C    0.902
    11   6 C    3.919 --    12 C    1.006    37 H    0.965    38 H    0.961
                            10 N    0.902
    12   6 C    3.979 --    17 C    1.410    13 C    1.404    11 C    1.006
                            15 C    0.109
    13   6 C    3.991 --    14 C    1.448    12 C    1.404    39 H    0.968
                            16 C    0.110
    14   6 C    3.990 --    13 C    1.448    15 C    1.435    40 H    0.969
                            17 C    0.109
    15   6 C    3.988 --    16 C    1.440    14 C    1.435    41 H    0.969
                            12 C    0.109
    16   6 C    3.990 --    17 C    1.442    15 C    1.440    42 H    0.969
                            13 C    0.110
    17   6 C    3.990 --    16 C    1.442    12 C    1.410    43 H    0.962
                            14 C    0.109
    18   6 C    3.928 --    44 H    0.975    45 H    0.973    46 H    0.972
                            10 N    0.961
    19   6 C    3.919 --    49 H    0.975    47 H    0.974    48 H    0.966
                            10 N    0.954
    20   6 C    3.994 --    22 C    1.009    21 C    1.008     5 C    0.982
                            50 H    0.968
    21   6 C    3.993 --    20 C    1.008    51 H    0.986    52 H    0.984
                            53 H    0.982
    22   6 C    3.997 --    20 C    1.009    54 H    0.984    56 H    0.984
                            55 H    0.984
    23   1 H    0.998 --     1 C    0.986
    24   1 H    0.998 --     1 C    0.986
    25   1 H    0.997 --     1 C    0.985
    26   1 H    0.999 --     2 C    0.967
    27   1 H    0.997 --     3 C    0.974
    28   1 H    0.998 --     3 C    0.975
    29   1 H    0.998 --     4 C    0.975
    30   1 H    0.996 --     4 C    0.969
    31   1 H    0.997 --     5 C    0.964
    32   1 H    0.999 --     6 C    0.964
    33   1 H    0.998 --     7 C    0.970
    34   1 H    0.999 --     7 C    0.970
    35   1 H    0.996 --     9 C    0.950
    36   1 H    0.997 --     9 C    0.953
    37   1 H    0.993 --    11 C    0.965
    38   1 H    0.989 --    11 C    0.961
    39   1 H    0.998 --    13 C    0.968
    40   1 H    0.996 --    14 C    0.969
    41   1 H    0.996 --    15 C    0.969
    42   1 H    0.996 --    16 C    0.969
    43   1 H    0.998 --    17 C    0.962
    44   1 H    0.991 --    18 C    0.975
    45   1 H    0.989 --    18 C    0.973
    46   1 H    0.990 --    18 C    0.972
    47   1 H    0.990 --    19 C    0.974
    48   1 H    0.986 --    19 C    0.966
    49   1 H    0.991 --    19 C    0.975
    50   1 H    0.999 --    20 C    0.968
    51   1 H    0.998 --    21 C    0.986
    52   1 H    0.997 --    21 C    0.984
    53   1 H    0.998 --    21 C    0.982
    54   1 H    1.000 --    22 C    0.984
    55   1 H    0.997 --    22 C    0.984
    56   1 H    0.999 --    22 C    0.984
 ---------------------------------------------------------------------------

molecular dipole:
                 x           y           z       tot (Debye)
 q only:       -1.952      -3.479      -5.313
   full:       -1.987      -3.756      -5.336      17.338

           -------------------------------------------------
          | TOTAL ENERGY              -66.782763350946 Eh   |
          | GRADIENT NORM               0.000308405696 Eh/α |
          | HOMO-LUMO GAP               3.989359787457 eV   |
           -------------------------------------------------

 * finished run on 2024/12/20 at 06:43:38.091
