   * xtb version 6.7.1 (edcfbbe) compiled by 'conda@3ef47c1a292c' on 2024-11-25

   ID    Z sym.   atoms
    1    6 C      1-4, 6-9
    2    7 N      5
    3    1 H      10-29

          program call               : xtb C0408.xyz --opt --namespace C0408 --charge +1
          :  Hamiltonian                  GFN2-xTB          :
 * total energy  :   -29.8406145 Eh     change       -0.1084324E-09 Eh
 * total energy  :   -29.8421262 Eh     change       -0.1511689E-02 Eh
 * total energy  :   -29.8424457 Eh     change       -0.3195232E-03 Eh
 * total energy  :   -29.8425312 Eh     change       -0.8549886E-04 Eh
 * total energy  :   -29.8425773 Eh     change       -0.4610957E-04 Eh
 * total energy  :   -29.8426106 Eh     change       -0.3327767E-04 Eh
 * total energy  :   -29.8426272 Eh     change       -0.1660932E-04 Eh
 * total energy  :   -29.8426432 Eh     change       -0.1604861E-04 Eh
 * total energy  :   -29.8426602 Eh     change       -0.1690447E-04 Eh
 * total energy  :   -29.8426786 Eh     change       -0.1844256E-04 Eh
 * total energy  :   -29.8428601 Eh     change       -0.8976064E-05 Eh
 * total energy  :   -29.8428690 Eh     change       -0.8801758E-05 Eh
 * total energy  :   -29.8428774 Eh     change       -0.8472144E-05 Eh
 * total energy  :   -29.8428853 Eh     change       -0.7898945E-05 Eh
 * total energy  :   -29.8428926 Eh     change       -0.7271259E-05 Eh
 * total energy  :   -29.8428992 Eh     change       -0.6637458E-05 Eh
 * total energy  :   -29.8429053 Eh     change       -0.6037836E-05 Eh
 * total energy  :   -29.8429107 Eh     change       -0.5458108E-05 Eh
 * total energy  :   -29.8429157 Eh     change       -0.4923031E-05 Eh
   *** GEOMETRY OPTIMIZATION CONVERGED AFTER 36 ITERATIONS ***

 final structure:
================
29
 xtb: 6.7.1 (edcfbbe)
C            0.91514350730665        0.19303420064636        0.08228197761605
C            0.69443840222796       -1.01936837881650       -0.81655018543307
C            1.26709644924403       -2.31831316316739       -0.24115515554637
C            0.69455807007861       -2.70535375806775        1.11849023333468
N           -0.79316846588306       -2.79692236020391        1.09556165952494
C           -1.37108032440337       -3.91695422143917        0.29945616784626
C           -1.08332795999525       -5.27648796642058        0.92803446525525
C           -1.54536374391402       -5.40584160481527        2.38270198260340
C           -3.04182913391244       -5.17608140387807        2.56799801540726
H            0.34343062684446        0.14088358155599        1.00726555398496
H            0.61333768224148        1.09697878641044       -0.43873252461847
H            1.96779272109397        0.28990711446825        0.33402519411876
H           -0.37030270066127       -1.12781637770771       -1.04752681445548
H            1.19534846860890       -0.83774523286788       -1.76769366384211
H            1.12412171899729       -3.12776247307818       -0.95785633443686
H            2.34297731187849       -2.19830312608735       -0.10990502618315
H            1.09958185371806       -3.66441774429858        1.44029415477160
H            0.96871103227167       -1.95169380824556        1.85846748874355
H           -1.13756987064534       -2.90913801099620        2.05688897404019
H           -1.13842912775245       -1.90510358772333        0.72031793395828
H           -2.44965142611916       -3.76128031654665        0.24308312064772
H           -0.96564351352509       -3.87404493304642       -0.71108200211989
H           -1.60675237712665       -6.02099742283715        0.32730341339018
H           -0.01962699008204       -5.50785182981139        0.86230282521128
H           -1.31035050067723       -6.41936294248117        2.70846357608708
H           -0.97787174939502       -4.73529666139225        3.03623372764230
H           -3.60833192728443       -5.82249398649485        1.90312712556004
H           -3.32728331854589       -5.41619100394531        3.58805736281795
H           -3.33599471459043       -4.14513136871130        2.37883675407571

          :  Hamiltonian                  GFN2-xTB          :
         :: total energy             -29.842915650055 Eh    ::
         :: gradient norm              0.000153233595 Eh/a0 ::
         :: HOMO-LUMO gap              8.877241139595 eV    ::
         :: SCC energy               -30.278448972287 Eh    ::
         :: -> dispersion             -0.018104227095 Eh    ::
         :: repulsion energy           0.435533322233 Eh    ::

    * Orbital Energies and Occupations

         #    Occupation            Energy/Eh            Energy/eV
      -------------------------------------------------------------
         1        2.0000           -0.8725627             -23.7436
       ...           ...                  ...                  ...
        16        2.0000           -0.6507220             -17.7070
        17        2.0000           -0.6335381             -17.2394
        18        2.0000           -0.6325031             -17.2113
        19        2.0000           -0.6206666             -16.8892
        20        2.0000           -0.6185240             -16.8309
        21        2.0000           -0.6081958             -16.5499
        22        2.0000           -0.6074908             -16.5307
        23        2.0000           -0.5809367             -15.8081
        24        2.0000           -0.5807785             -15.8038
        25        2.0000           -0.5714474             -15.5499
        26        2.0000           -0.5708126             -15.5326
        27        2.0000           -0.5666948             -15.4205
        28        2.0000           -0.5664311             -15.4134 (HOMO)
        29                         -0.2401985              -6.5361 (LUMO)
        30                         -0.1439681              -3.9176
        31                         -0.1436086              -3.9078
        32                         -0.0946207              -2.5748
        33                         -0.0743771              -2.0239
        34                         -0.0711880              -1.9371
        35                         -0.0481634              -1.3106
        36                         -0.0423879              -1.1534
        37                         -0.0399584              -1.0873
        38                         -0.0151326              -0.4118
        39                         -0.0129629              -0.3527
       ...                                ...                  ...
        56                          0.1590993               4.3293
      -------------------------------------------------------------
                  HL-Gap            0.3262326 Eh            8.8772 eV

     #   Z          covCN         q      C6AA      α(0)
     1   6 C        3.751    -0.118    22.820     6.812
     2   6 C        3.799    -0.067    21.782     6.645
     3   6 C        3.801    -0.081    22.041     6.684
     4   6 C        3.732    -0.033    21.257     6.581
     5   7 N        3.530    -0.042    22.045     6.974
     6   6 C        3.732    -0.033    21.257     6.581
     7   6 C        3.801    -0.081    22.041     6.684
     8   6 C        3.799    -0.067    21.782     6.645
     9   6 C        3.751    -0.118    22.820     6.812
    10   1 H        0.925     0.026     2.637     2.540
    11   1 H        0.925     0.060     2.195     2.317
    12   1 H        0.925     0.056     2.246     2.344
    13   1 H        0.924     0.028     2.618     2.530
    14   1 H        0.924     0.068     2.112     2.273
    15   1 H        0.924     0.061     2.191     2.315
    16   1 H        0.924     0.083     1.945     2.181
    17   1 H        0.925     0.097     1.815     2.107
    18   1 H        0.924     0.093     1.848     2.126
    19   1 H        0.859     0.247     0.894     1.481
    20   1 H        0.859     0.247     0.894     1.481
    21   1 H        0.924     0.093     1.848     2.126
    22   1 H        0.925     0.097     1.815     2.107
    23   1 H        0.924     0.083     1.945     2.181
    24   1 H        0.924     0.061     2.191     2.315
    25   1 H        0.924     0.068     2.112     2.273
    26   1 H        0.924     0.028     2.618     2.530
    27   1 H        0.925     0.056     2.246     2.344
    28   1 H        0.925     0.060     2.195     2.317
    29   1 H        0.925     0.026     2.637     2.540

Wiberg/Mayer (AO) data.
largest (>0.10) Wiberg bond orders for each atom

     #   Z sym  total        # sym  WBO       # sym  WBO       # sym  WBO
 ---------------------------------------------------------------------------
     1   6 C    3.992 --     2 C    1.020    10 H    0.986    12 H    0.985
                            11 H    0.984
     2   6 C    3.993 --     1 C    1.020     3 C    1.005    14 H    0.972
                            13 H    0.970
     3   6 C    3.983 --     4 C    1.009     2 C    1.005    15 H    0.971
                            16 H    0.964
     4   6 C    3.914 --     3 C    1.009    18 H    0.966    17 H    0.965
                             5 N    0.931
     5   7 N    3.725 --     6 C    0.931     4 C    0.931    19 H    0.904
                            20 H    0.904
     6   6 C    3.914 --     7 C    1.009    21 H    0.966    22 H    0.965
                             5 N    0.931
     7   6 C    3.983 --     6 C    1.009     8 C    1.005    24 H    0.971
                            23 H    0.964
     8   6 C    3.993 --     9 C    1.020     7 C    1.005    25 H    0.972
                            26 H    0.970
     9   6 C    3.992 --     8 C    1.020    29 H    0.986    27 H    0.985
                            28 H    0.984
    10   1 H    0.999 --     1 C    0.986
    11   1 H    0.996 --     1 C    0.984
    12   1 H    0.997 --     1 C    0.985
    13   1 H    0.999 --     2 C    0.970
    14   1 H    0.995 --     2 C    0.972
    15   1 H    0.996 --     3 C    0.971
    16   1 H    0.993 --     3 C    0.964
    17   1 H    0.991 --     4 C    0.965
    18   1 H    0.991 --     4 C    0.966
    19   1 H    0.939 --     5 N    0.904
    20   1 H    0.939 --     5 N    0.904
    21   1 H    0.991 --     6 C    0.966
    22   1 H    0.991 --     6 C    0.965
    23   1 H    0.993 --     7 C    0.964
    24   1 H    0.996 --     7 C    0.971
    25   1 H    0.995 --     8 C    0.972
    26   1 H    0.999 --     8 C    0.970
    27   1 H    0.997 --     9 C    0.985
    28   1 H    0.996 --     9 C    0.984
    29   1 H    0.999 --     9 C    0.986
 ---------------------------------------------------------------------------

molecular dipole:
                 x           y           z       tot (Debye)
 q only:       -1.117      -5.717       1.746
   full:       -1.256      -5.560       1.864      15.243

           -------------------------------------------------
          | TOTAL ENERGY              -29.842915650055 Eh   |
          | GRADIENT NORM               0.000153233595 Eh/α |
          | HOMO-LUMO GAP               8.877241139595 eV   |
           -------------------------------------------------

 * finished run on 2024/12/20 at 06:43:47.351
