   * xtb version 6.7.1 (edcfbbe) compiled by 'conda@3ef47c1a292c' on 2024-11-25

   ID    Z sym.   atoms
    1    6 C      1-12, 14-16
    2    7 N      13
    3    1 H      17-36

          program call               : xtb C0405.xyz --opt --namespace C0405 --charge +1
          :  Hamiltonian                  GFN2-xTB          :
 * total energy  :   -44.8351965 Eh     change       -0.1720124E-08 Eh
 * total energy  :   -44.8438055 Eh     change       -0.8609005E-02 Eh
 * total energy  :   -44.8458304 Eh     change       -0.2024884E-02 Eh
 * total energy  :   -44.8460644 Eh     change       -0.2339753E-03 Eh
 * total energy  :   -44.8462349 Eh     change       -0.1704877E-03 Eh
 * total energy  :   -44.8462879 Eh     change       -0.5303557E-04 Eh
 * total energy  :   -44.8463475 Eh     change       -0.5960994E-04 Eh
 * total energy  :   -44.8463724 Eh     change       -0.2482704E-04 Eh
 * total energy  :   -44.8463846 Eh     change       -0.1227259E-04 Eh
 * total energy  :   -44.8463961 Eh     change       -0.1151652E-04 Eh
 * total energy  :   -44.8464065 Eh     change       -0.1034394E-04 Eh
 * total energy  :   -44.8464171 Eh     change       -0.1056632E-04 Eh
 * total energy  :   -44.8464263 Eh     change       -0.9250283E-05 Eh
 * total energy  :   -44.8464323 Eh     change       -0.5943862E-05 Eh
 * total energy  :   -44.8464361 Eh     change       -0.3835827E-05 Eh
   *** GEOMETRY OPTIMIZATION CONVERGED AFTER 15 ITERATIONS ***

 final structure:
================
36
 xtb: 6.7.1 (edcfbbe)
C            1.70332388210050       -2.30835238258066       -0.28014695816523
C            1.23997987494670       -0.89236972558462       -0.17415299339616
C            2.13694448356468        0.13539988068024       -0.32717242329625
C            1.72957880086515        1.46783861975185       -0.25221873662846
C            0.41636386920816        1.80921407946509       -0.02325250379105
C           -0.53949953959292        0.77768068020327        0.20443768835950
C           -0.11951823380828       -0.58171863612252        0.10586398877587
C           -1.07369327537336       -1.60360877174266        0.30713833218862
C           -2.37315217461261       -1.31684687781097        0.61565340576698
C           -2.77762950365161        0.01590835101259        0.75538599119644
C           -1.88581853439043        1.03141770039203        0.55200131504882
C            0.05619835628558        3.27087728105912        0.01107137652902
N           -0.31741196232080        3.84966507344910       -1.33336480155079
C           -1.49933303199962        3.16728429061413       -1.88620098254996
C           -0.61998526882798        5.28131591630583       -1.16077340486117
C            0.80136848014240        3.70496571219934       -2.28028672077778
H            1.53502917477234       -2.83780993367733        0.65642111878493
H            1.16643594850870       -2.83528979461595       -1.06741475160103
H            2.76552335534178       -2.34351052643895       -0.50593606596646
H            3.17833806752195       -0.08021607311265       -0.50951062741199
H            2.47793382362126        2.23914455398523       -0.36703161542339
H           -0.76431026134588       -2.63207851068536        0.22402844120084
H           -3.08697597766906       -2.11061269884210        0.76904318697695
H           -3.79702080709774        0.23933103070737        1.03004060918512
H           -2.22952506059189        2.04441949917402        0.69578949443899
H           -0.77768073164880        3.45406571577525        0.68851919140031
H            0.91621472041000        3.84060554470810        0.36969201856561
H           -2.36543291322690        3.33362879928166       -1.24945769462583
H           -1.72048756504449        3.55174279744257       -2.88029819852896
H           -1.31451484443012        2.09664131166717       -1.95186686497151
H            0.25313013379399        5.81021376956477       -0.78258720705060
H           -0.90754676587140        5.72102795957930       -2.11443495760211
H           -1.43904443528366        5.41401944970053       -0.45600706316098
H            1.68746101191975        4.20695628118244       -1.89629106119237
H            1.02891057379825        2.65046330166086       -2.42667126930575
H            0.53752632998579        4.14735633165099       -3.23919925656053

          :  Hamiltonian                  GFN2-xTB          :
         :: total energy             -44.846436086374 Eh    ::
         :: gradient norm              0.000324408718 Eh/a0 ::
         :: HOMO-LUMO gap              3.041931697689 eV    ::
         :: SCC energy               -45.619072041611 Eh    ::
         :: -> dispersion             -0.035391540719 Eh    ::
         :: repulsion energy           0.772635955237 Eh    ::

    * Orbital Energies and Occupations

         #    Occupation            Energy/Eh            Energy/eV
      -------------------------------------------------------------
         1        2.0000           -0.8606395             -23.4192
       ...           ...                  ...                  ...
        30        2.0000           -0.5990891             -16.3020
        31        2.0000           -0.5898800             -16.0515
        32        2.0000           -0.5813815             -15.8202
        33        2.0000           -0.5783733             -15.7383
        34        2.0000           -0.5677312             -15.4488
        35        2.0000           -0.5612788             -15.2732
        36        2.0000           -0.5551703             -15.1070
        37        2.0000           -0.5512199             -14.9995
        38        2.0000           -0.5269884             -14.3401
        39        2.0000           -0.5238442             -14.2545
        40        2.0000           -0.5224282             -14.2160
        41        2.0000           -0.5110908             -13.9075
        42        2.0000           -0.4868644             -13.2483 (HOMO)
        43                         -0.3750754             -10.2063 (LUMO)
        44                         -0.3391083              -9.2276
        45                         -0.3077624              -8.3746
        46                         -0.2577780              -7.0145
        47                         -0.2133396              -5.8053
        48                         -0.1740829              -4.7370
        49                         -0.1416256              -3.8538
        50                         -0.1371346              -3.7316
        51                         -0.1356437              -3.6911
        52                         -0.0609413              -1.6583
        53                         -0.0328317              -0.8934
       ...                                ...                  ...
        84                          0.5805823              15.7984
      -------------------------------------------------------------
                  HL-Gap            0.1117889 Eh            3.0419 eV

     #   Z          covCN         q      C6AA      α(0)
     1   6 C        3.759    -0.118    22.818     6.810
     2   6 C        2.964     0.027    27.401     8.586
     3   6 C        2.919    -0.043    29.079     8.843
     4   6 C        2.920    -0.042    29.033     8.836
     5   6 C        2.962    -0.026    28.654     8.780
     6   6 C        2.981     0.001    27.991     8.679
     7   6 C        2.987     0.008    27.837     8.655
     8   6 C        2.920    -0.030    28.739     8.791
     9   6 C        2.915    -0.024    28.602     8.770
    10   6 C        2.916    -0.023    28.586     8.767
    11   6 C        2.918    -0.047    29.162     8.856
    12   6 C        3.763    -0.041    21.345     6.586
    13   7 N        3.621     0.140    18.855     6.449
    14   6 C        3.722    -0.093    22.400     6.759
    15   6 C        3.725    -0.095    22.423     6.761
    16   6 C        3.723    -0.094    22.415     6.761
    17   1 H        0.925     0.067     2.114     2.274
    18   1 H        0.925     0.064     2.157     2.297
    19   1 H        0.925     0.058     2.227     2.334
    20   1 H        0.926     0.051     2.309     2.376
    21   1 H        0.926     0.035     2.511     2.478
    22   1 H        0.926     0.057     2.236     2.338
    23   1 H        0.926     0.052     2.290     2.366
    24   1 H        0.926     0.047     2.360     2.402
    25   1 H        0.926     0.022     2.709     2.574
    26   1 H        0.925     0.084     1.938     2.177
    27   1 H        0.924     0.081     1.966     2.193
    28   1 H        0.925     0.097     1.809     2.103
    29   1 H        0.925     0.094     1.842     2.122
    30   1 H        0.925     0.104     1.751     2.069
    31   1 H        0.925     0.097     1.808     2.103
    32   1 H        0.925     0.098     1.802     2.099
    33   1 H        0.925     0.096     1.818     2.108
    34   1 H        0.925     0.096     1.819     2.109
    35   1 H        0.925     0.104     1.749     2.068
    36   1 H        0.925     0.095     1.833     2.117

Wiberg/Mayer (AO) data.
largest (>0.10) Wiberg bond orders for each atom

     #   Z sym  total        # sym  WBO       # sym  WBO       # sym  WBO
 ---------------------------------------------------------------------------
     1   6 C    3.992 --     2 C    1.037    19 H    0.982    18 H    0.963
                            17 H    0.961
     2   6 C    3.985 --     3 C    1.503     7 C    1.248     1 C    1.037
                             5 C    0.109
     3   6 C    3.990 --     2 C    1.503     4 C    1.346    20 H    0.966
     4   6 C    3.991 --     5 C    1.500     3 C    1.346    21 H    0.967
     5   6 C    3.971 --     4 C    1.500     6 C    1.247    12 C    1.008
                             2 C    0.109
     6   6 C    3.989 --    11 C    1.284     7 C    1.254     5 C    1.247
     7   6 C    3.990 --     8 C    1.286     6 C    1.254     2 C    1.248
     8   6 C    3.990 --     9 C    1.553     7 C    1.286    22 H    0.964
                            11 C    0.117
     9   6 C    3.990 --     8 C    1.553    10 C    1.325    23 H    0.969
    10   6 C    3.991 --    11 C    1.551     9 C    1.325    24 H    0.970
    11   6 C    3.991 --    10 C    1.551     6 C    1.284    25 H    0.961
                             8 C    0.117
    12   6 C    3.922 --     5 C    1.008    27 H    0.965    26 H    0.960
                            13 N    0.899
    13   7 N    3.812 --    15 C    0.961    16 C    0.960    14 C    0.960
                            12 C    0.899
    14   6 C    3.928 --    29 H    0.975    28 H    0.973    30 H    0.970
                            13 N    0.960
    15   6 C    3.930 --    33 H    0.975    31 H    0.975    32 H    0.974
                            13 N    0.961
    16   6 C    3.928 --    34 H    0.975    36 H    0.975    35 H    0.970
                            13 N    0.960
    17   1 H    0.995 --     1 C    0.961
    18   1 H    0.995 --     1 C    0.963
    19   1 H    0.996 --     1 C    0.982
    20   1 H    0.996 --     3 C    0.966
    21   1 H    0.998 --     4 C    0.967
    22   1 H    0.996 --     8 C    0.964
    23   1 H    0.996 --     9 C    0.969
    24   1 H    0.997 --    10 C    0.970
    25   1 H    0.999 --    11 C    0.961
    26   1 H    0.993 --    12 C    0.960
    27   1 H    0.993 --    12 C    0.965
    28   1 H    0.990 --    14 C    0.973
    29   1 H    0.991 --    14 C    0.975
    30   1 H    0.989 --    14 C    0.970
    31   1 H    0.990 --    15 C    0.975
    32   1 H    0.989 --    15 C    0.974
    33   1 H    0.991 --    15 C    0.975
    34   1 H    0.991 --    16 C    0.975
    35   1 H    0.989 --    16 C    0.970
    36   1 H    0.991 --    16 C    0.975
 ---------------------------------------------------------------------------

molecular dipole:
                 x           y           z       tot (Debye)
 q only:       -0.519       5.647      -2.364
   full:       -0.540       5.766      -2.302      15.839

           -------------------------------------------------
          | TOTAL ENERGY              -44.846436086374 Eh   |
          | GRADIENT NORM               0.000324408718 Eh/α |
          | HOMO-LUMO GAP               3.041931697689 eV   |
           -------------------------------------------------

 * finished run on 2024/12/20 at 06:43:41.941
