   * xtb version 6.7.1 (edcfbbe) compiled by 'conda@3ef47c1a292c' on 2024-11-25

   ID    Z sym.   atoms
    1    6 C      1-18, 20, 21, 23, 24
    2    7 N      19
    3    8 O      22
    4    1 H      25-72

          program call               : xtb C0407.xyz --opt --namespace C0407 --charge +1
          :  Hamiltonian                  GFN2-xTB          :
 * total energy  :   -78.1925473 Eh     change       -0.9444534E-10 Eh
 * total energy  :   -78.2008569 Eh     change       -0.8309621E-02 Eh
 * total energy  :   -78.2028591 Eh     change       -0.2002115E-02 Eh
 * total energy  :   -78.2030212 Eh     change       -0.1621584E-03 Eh
 * total energy  :   -78.2032657 Eh     change       -0.2445028E-03 Eh
 * total energy  :   -78.2031874 Eh     change        0.7830472E-04 Eh
 * total energy  :   -78.2034048 Eh     change       -0.2173952E-03 Eh
 * total energy  :   -78.2035332 Eh     change       -0.1283932E-03 Eh
 * total energy  :   -78.2036953 Eh     change       -0.1620584E-03 Eh
 * total energy  :   -78.2038208 Eh     change       -0.1255826E-03 Eh
 * total energy  :   -78.2056981 Eh     change       -0.9267569E-05 Eh
 * total energy  :   -78.2057076 Eh     change       -0.9457609E-05 Eh
 * total energy  :   -78.2057183 Eh     change       -0.1071899E-04 Eh
 * total energy  :   -78.2057317 Eh     change       -0.1341619E-04 Eh
 * total energy  :   -78.2057423 Eh     change       -0.1059109E-04 Eh
 * total energy  :   -78.2057496 Eh     change       -0.7332510E-05 Eh
 * total energy  :   -78.2057563 Eh     change       -0.6669229E-05 Eh
 * total energy  :   -78.2057632 Eh     change       -0.6930911E-05 Eh
 * total energy  :   -78.2057656 Eh     change       -0.2349368E-05 Eh
   *** GEOMETRY OPTIMIZATION CONVERGED AFTER 44 ITERATIONS ***

 final structure:
================
72
 xtb: 6.7.1 (edcfbbe)
C            1.30294777950499        0.84596208147491       -0.73178728709996
C            1.22346907151533       -0.32226670017392       -1.70714246738089
C            1.45832992204581       -1.67990291599761       -1.04334657276587
C            0.42743774307333       -2.06876853345894        0.01865309198607
C           -1.01959799242488       -2.13561574440549       -0.47448060019771
C           -1.25837952616395       -3.07775915995644       -1.65582874216958
C           -0.86192823566769       -4.53462801390109       -1.41149863650816
C           -1.61410180617585       -5.22939345282875       -0.27484286080669
C           -3.13360227616775       -5.29258113660060       -0.44586802886804
C           -3.61244785740337       -5.94211370518323       -1.74588079222640
C           -3.10229758929247       -7.36410230198224       -1.98458639607684
C           -3.51709523165225       -8.38716684594245       -0.92584899259206
C           -5.02660925275537       -8.59228364968503       -0.78044085276807
C           -5.75159344530167       -8.99357224597992       -2.06733706707112
C           -5.19283354652393      -10.23367029434120       -2.76850853535988
C           -5.19178259827809      -11.51164575582312       -1.92626873979402
C           -6.58992431345892      -12.01974675985150       -1.55318780852959
C           -7.39545895526311      -12.54195336080798       -2.75019107579813
N           -7.51757286136701      -14.02763263596855       -2.85768861476957
C           -8.19685746858676      -14.64273404094755       -1.67777254058312
C           -9.39360702194911      -13.87136556310484       -1.11044377534110
O          -10.33572350606487      -13.61383752674151       -2.12600744904310
C           -8.30049998246476      -14.32813747885561       -4.07615446298365
C           -6.18593853026808      -14.64338564273035       -3.00311331029677
H            0.49515234581059        0.80664276395879       -0.00561334002274
H            1.22939941079349        1.78968184449077       -1.26762620230056
H            2.24953156112638        0.83002935494667       -0.19574725567869
H            0.25226600823861       -0.31493909061611       -2.20486796955991
H            1.98482637422963       -0.18765727412417       -2.47978130048809
H            1.48417839947787       -2.44767096620172       -1.81959205202274
H            2.44311545619646       -1.66815139570740       -0.56868501492259
H            0.71300003534609       -3.03957527257683        0.43015730998414
H            0.47302919832846       -1.35114780989839        0.84015884752306
H           -1.65119197794645       -2.43945955238172        0.36355667763419
H           -1.34393044360871       -1.13543417701930       -0.76897476954081
H           -2.31692376888577       -3.03099481869791       -1.92158895300513
H           -0.69781748668377       -2.71498308936105       -2.51972727436789
H           -1.01664221068856       -5.09024211961744       -2.33928627716947
H            0.20570640541076       -4.58165350267601       -1.18876372902510
H           -1.21991620050499       -6.24367185891232       -0.17497282171259
H           -1.40091236195200       -4.71367410014507        0.66336394495709
H           -3.55071689970366       -5.83484129015701        0.40623937614806
H           -3.54019904499015       -4.28021832343211       -0.40623058305692
H           -4.70505516869107       -5.94210500016793       -1.74711984088727
H           -3.29486395626036       -5.32545488629436       -2.58866229280778
H           -3.45223690161770       -7.69254518611870       -2.96610813376461
H           -2.01211406918050       -7.34805439904085       -2.02676555281762
H           -3.04137417653134       -9.34133901244616       -1.16639129429425
H           -3.12570915818745       -8.07472756166931        0.04345505547948
H           -5.19830239669243       -9.34849874419784       -0.00979234782345
H           -5.47788376964666       -7.66721552619977       -0.41881244849504
H           -6.80983596551928       -9.14235257145945       -1.83690442067099
H           -5.69978184664601       -8.16443187678713       -2.77384096855949
H           -5.76384911072791      -10.39002483641503       -3.68786841110791
H           -4.16391631732096      -10.03308878907065       -3.06681639596459
H           -4.64260567277601      -12.28308022837265       -2.47042172710697
H           -4.64528451229226      -11.31896110819351       -1.00352272636583
H           -6.49394655850901      -12.78615294342554       -0.78392465461270
H           -7.13549894899255      -11.19225731284957       -1.10017188999522
H           -8.41088055146104      -12.14581895606437       -2.74038646657284
H           -6.91866167112221      -12.19687927254037       -3.66945108238993
H           -8.53608228393641      -15.63357272821975       -1.98547934957097
H           -7.47310745560128      -14.76353050756640       -0.87083349154967
H           -9.82289104741896      -14.50559933466395       -0.32535486212243
H           -9.06600607903711      -12.93346637117340       -0.64322006530142
H          -11.18377133426139      -13.37646014161710       -1.73703172227900
H           -7.84969018405963      -13.84451806711474       -4.94011811721572
H           -8.32177464207487      -15.40207547203932       -4.25046837001484
H           -9.32079920655763      -13.97155954446815       -3.95244891762744
H           -5.70593710651941      -14.27294569944702       -3.90724259410462
H           -5.55642008034713      -14.40584446572444       -2.14900192107412
H           -6.28026714701348      -15.72559739473128       -3.07728108650271

          :  Hamiltonian                  GFN2-xTB          :
         :: total energy             -78.205765569340 Eh    ::
         :: gradient norm              0.000224265073 Eh/a0 ::
         :: HOMO-LUMO gap              5.980487451376 eV    ::
         :: SCC energy               -79.290248664662 Eh    ::
         :: -> dispersion             -0.060415307795 Eh    ::
         :: repulsion energy           1.084483095322 Eh    ::

    * Orbital Energies and Occupations

         #    Occupation            Energy/Eh            Energy/eV
      -------------------------------------------------------------
         1        2.0000           -0.8580313             -23.3482
       ...           ...                  ...                  ...
        61        2.0000           -0.4991708             -13.5831
        62        2.0000           -0.4947225             -13.4621
        63        2.0000           -0.4916191             -13.3776
        64        2.0000           -0.4851755             -13.2023
        65        2.0000           -0.4803827             -13.0719
        66        2.0000           -0.4774831             -12.9930
        67        2.0000           -0.4731312             -12.8746
        68        2.0000           -0.4652129             -12.6591
        69        2.0000           -0.4636291             -12.6160
        70        2.0000           -0.4613120             -12.5529
        71        2.0000           -0.4530294             -12.3276
        72        2.0000           -0.4473329             -12.1725
        73        2.0000           -0.4461696             -12.1409 (HOMO)
        74                         -0.2263907              -6.1604 (LUMO)
        75                         -0.1684048              -4.5825
        76                         -0.1467725              -3.9939
        77                         -0.1401533              -3.8138
        78                         -0.1049972              -2.8571
        79                         -0.0636866              -1.7330
        80                         -0.0513247              -1.3966
        81                         -0.0456013              -1.2409
        82                         -0.0322274              -0.8770
        83                         -0.0248958              -0.6774
        84                         -0.0132384              -0.3602
       ...                                ...                  ...
       144                          0.2757759               7.5042
      -------------------------------------------------------------
                  HL-Gap            0.2197789 Eh            5.9805 eV

     #   Z          covCN         q      C6AA      α(0)
     1   6 C        3.751    -0.101    22.498     6.764
     2   6 C        3.799    -0.052    21.504     6.603
     3   6 C        3.800    -0.057    21.595     6.616
     4   6 C        3.800    -0.056    21.591     6.616
     5   6 C        3.800    -0.056    21.580     6.614
     6   6 C        3.800    -0.056    21.586     6.615
     7   6 C        3.800    -0.056    21.589     6.616
     8   6 C        3.800    -0.056    21.587     6.615
     9   6 C        3.800    -0.056    21.589     6.616
    10   6 C        3.800    -0.057    21.600     6.617
    11   6 C        3.800    -0.058    21.615     6.619
    12   6 C        3.800    -0.058    21.625     6.621
    13   6 C        3.800    -0.059    21.637     6.623
    14   6 C        3.800    -0.061    21.670     6.628
    15   6 C        3.800    -0.063    21.719     6.635
    16   6 C        3.800    -0.069    21.818     6.650
    17   6 C        3.799    -0.073    21.889     6.661
    18   6 C        3.759    -0.045    21.427     6.599
    19   7 N        3.621     0.137    18.908     6.458
    20   6 C        3.760    -0.040    21.340     6.586
    21   6 C        3.672     0.072    19.611     6.347
    22   8 O        1.656    -0.440    21.637     6.279
    23   6 C        3.727    -0.104    22.588     6.786
    24   6 C        3.723    -0.095    22.435     6.764
    25   1 H        0.925     0.034     2.527     2.486
    26   1 H        0.925     0.031     2.568     2.506
    27   1 H        0.925     0.034     2.537     2.491
    28   1 H        0.924     0.030     2.582     2.513
    29   1 H        0.924     0.026     2.642     2.542
    30   1 H        0.924     0.028     2.619     2.531
    31   1 H        0.924     0.028     2.613     2.528
    32   1 H        0.924     0.027     2.631     2.537
    33   1 H        0.924     0.032     2.565     2.504
    34   1 H        0.924     0.026     2.639     2.540
    35   1 H        0.924     0.031     2.571     2.508
    36   1 H        0.924     0.026     2.639     2.541
    37   1 H        0.924     0.031     2.570     2.507
    38   1 H        0.924     0.025     2.653     2.547
    39   1 H        0.924     0.032     2.557     2.501
    40   1 H        0.924     0.025     2.666     2.553
    41   1 H        0.924     0.033     2.546     2.495
    42   1 H        0.924     0.025     2.664     2.553
    43   1 H        0.924     0.033     2.542     2.493
    44   1 H        0.924     0.025     2.661     2.551
    45   1 H        0.924     0.034     2.523     2.484
    46   1 H        0.924     0.024     2.674     2.557
    47   1 H        0.924     0.037     2.492     2.469
    48   1 H        0.924     0.023     2.691     2.565
    49   1 H        0.924     0.039     2.465     2.455
    50   1 H        0.924     0.022     2.707     2.573
    51   1 H        0.924     0.041     2.436     2.441
    52   1 H        0.924     0.022     2.708     2.573
    53   1 H        0.924     0.046     2.373     2.409
    54   1 H        0.924     0.022     2.706     2.572
    55   1 H        0.925     0.053     2.288     2.365
    56   1 H        0.924     0.031     2.578     2.511
    57   1 H        0.925     0.060     2.204     2.322
    58   1 H        0.925     0.044     2.399     2.422
    59   1 H        0.925     0.072     2.068     2.249
    60   1 H        0.925     0.096     1.817     2.108
    61   1 H        0.924     0.090     1.877     2.143
    62   1 H        0.924     0.098     1.801     2.099
    63   1 H        0.924     0.087     1.905     2.159
    64   1 H        0.924     0.062     2.177     2.307
    65   1 H        0.924     0.053     2.280     2.362
    66   1 H        0.805     0.314     0.679     1.295
    67   1 H        0.925     0.093     1.852     2.128
    68   1 H        0.925     0.093     1.846     2.125
    69   1 H        0.925     0.130     1.538     1.940
    70   1 H        0.925     0.100     1.786     2.090
    71   1 H        0.925     0.101     1.776     2.084
    72   1 H        0.925     0.093     1.849     2.127

Wiberg/Mayer (AO) data.
largest (>0.10) Wiberg bond orders for each atom

     #   Z sym  total        # sym  WBO       # sym  WBO       # sym  WBO
 ---------------------------------------------------------------------------
     1   6 C    3.997 --     2 C    1.020    27 H    0.988    26 H    0.988
                            25 H    0.986
     2   6 C    3.998 --     1 C    1.020     3 C    1.008    29 H    0.979
                            28 H    0.976
     3   6 C    3.998 --     2 C    1.008     4 C    1.008    31 H    0.977
                            30 H    0.976
     4   6 C    3.998 --     5 C    1.008     3 C    1.008    33 H    0.976
                            32 H    0.975
     5   6 C    3.998 --     6 C    1.008     4 C    1.008    34 H    0.976
                            35 H    0.975
     6   6 C    3.998 --     7 C    1.008     5 C    1.008    36 H    0.975
                            37 H    0.975
     7   6 C    3.998 --     6 C    1.008     8 C    1.008    38 H    0.975
                            39 H    0.974
     8   6 C    3.997 --     7 C    1.008     9 C    1.007    40 H    0.976
                            41 H    0.975
     9   6 C    3.997 --    10 C    1.008     8 C    1.007    42 H    0.976
                            43 H    0.975
    10   6 C    3.997 --    11 C    1.008     9 C    1.008    44 H    0.975
                            45 H    0.975
    11   6 C    3.997 --    10 C    1.008    12 C    1.008    46 H    0.975
                            47 H    0.974
    12   6 C    3.997 --    11 C    1.008    13 C    1.007    48 H    0.976
                            49 H    0.974
    13   6 C    3.997 --    12 C    1.007    14 C    1.007    50 H    0.976
                            51 H    0.974
    14   6 C    3.996 --    15 C    1.007    13 C    1.007    52 H    0.974
                            53 H    0.973
    15   6 C    3.995 --    16 C    1.008    14 C    1.007    54 H    0.973
                            55 H    0.971
    16   6 C    3.992 --    15 C    1.008    17 C    1.004    56 H    0.975
                            57 H    0.971
    17   6 C    3.985 --    16 C    1.004    18 C    1.003    58 H    0.968
                            59 H    0.966
    18   6 C    3.921 --    17 C    1.003    60 H    0.966    61 H    0.960
                            19 N    0.923
    19   7 N    3.812 --    24 C    0.961    23 C    0.954    20 C    0.939
                            18 C    0.923
    20   6 C    3.943 --    21 C    1.004    63 H    0.965    62 H    0.965
                            19 N    0.939
    21   6 C    3.958 --    22 O    1.004    20 C    1.004    64 H    0.964
                            65 H    0.964
    22   8 O    1.959 --    21 C    1.004    66 H    0.885
    23   6 C    3.918 --    67 H    0.976    68 H    0.975    69 H    0.961
                            19 N    0.954
    24   6 C    3.930 --    72 H    0.976    70 H    0.974    71 H    0.971
                            19 N    0.961
    25   1 H    0.999 --     1 C    0.986
    26   1 H    0.999 --     1 C    0.988
    27   1 H    0.999 --     1 C    0.988
    28   1 H    0.999 --     2 C    0.976
    29   1 H    0.999 --     2 C    0.979
    30   1 H    0.999 --     3 C    0.976
    31   1 H    0.999 --     3 C    0.977
    32   1 H    0.999 --     4 C    0.975
    33   1 H    0.999 --     4 C    0.976
    34   1 H    0.999 --     5 C    0.976
    35   1 H    0.999 --     5 C    0.975
    36   1 H    0.999 --     6 C    0.975
    37   1 H    0.999 --     6 C    0.975
    38   1 H    0.999 --     7 C    0.975
    39   1 H    0.999 --     7 C    0.974
    40   1 H    0.999 --     8 C    0.976
    41   1 H    0.999 --     8 C    0.975
    42   1 H    0.999 --     9 C    0.976
    43   1 H    0.999 --     9 C    0.975
    44   1 H    0.999 --    10 C    0.975
    45   1 H    0.999 --    10 C    0.975
    46   1 H    0.999 --    11 C    0.975
    47   1 H    0.999 --    11 C    0.974
    48   1 H    0.999 --    12 C    0.976
    49   1 H    0.998 --    12 C    0.974
    50   1 H    1.000 --    13 C    0.976
    51   1 H    0.998 --    13 C    0.974
    52   1 H    1.000 --    14 C    0.974
    53   1 H    0.998 --    14 C    0.973
    54   1 H    1.000 --    15 C    0.973
    55   1 H    0.997 --    15 C    0.971
    56   1 H    0.999 --    16 C    0.975
    57   1 H    0.996 --    16 C    0.971
    58   1 H    0.998 --    17 C    0.968
    59   1 H    0.995 --    17 C    0.966
    60   1 H    0.991 --    18 C    0.966
    61   1 H    0.992 --    18 C    0.960
    62   1 H    0.990 --    20 C    0.965
    63   1 H    0.992 --    20 C    0.965
    64   1 H    0.996 --    21 C    0.964
    65   1 H    0.997 --    21 C    0.964
    66   1 H    0.901 --    22 O    0.885
    67   1 H    0.991 --    23 C    0.976
    68   1 H    0.991 --    23 C    0.975
    69   1 H    0.983 --    23 C    0.961
    70   1 H    0.990 --    24 C    0.974
    71   1 H    0.990 --    24 C    0.971
    72   1 H    0.991 --    24 C    0.976
 ---------------------------------------------------------------------------

molecular dipole:
                 x           y           z       tot (Debye)
 q only:      -14.135     -25.697      -4.637
   full:      -14.278     -25.806      -4.450      75.810

           -------------------------------------------------
          | TOTAL ENERGY              -78.205765569340 Eh   |
          | GRADIENT NORM               0.000224265073 Eh/α |
          | HOMO-LUMO GAP               5.980487451376 eV   |
           -------------------------------------------------

 * finished run on 2024/12/20 at 06:43:46.425
