   * xtb version 6.7.1 (edcfbbe) compiled by 'conda@3ef47c1a292c' on 2024-11-25

   ID    Z sym.   atoms
    1    6 C      1-3, 5, 6
    2    7 N      4
    3    1 H      7-20

          program call               : xtb C0409.xyz --opt --namespace C0409 --charge +1
          :  Hamiltonian                  GFN2-xTB          :
 * total energy  :   -20.3513216 Eh     change       -0.7753798E-10 Eh
 * total energy  :   -20.3535215 Eh     change       -0.2199932E-02 Eh
 * total energy  :   -20.3539995 Eh     change       -0.4779508E-03 Eh
 * total energy  :   -20.3540292 Eh     change       -0.2973664E-04 Eh
 * total energy  :   -20.3540548 Eh     change       -0.2555978E-04 Eh
 * total energy  :   -20.3540683 Eh     change       -0.1351519E-04 Eh
 * total energy  :   -20.3540991 Eh     change       -0.3085851E-04 Eh
 * total energy  :   -20.3541262 Eh     change       -0.2706977E-04 Eh
 * total energy  :   -20.3541325 Eh     change       -0.6327385E-05 Eh
 * total energy  :   -20.3541346 Eh     change       -0.2060543E-05 Eh
   *** GEOMETRY OPTIMIZATION CONVERGED AFTER 10 ITERATIONS ***

 final structure:
================
20
 xtb: 6.7.1 (edcfbbe)
C            1.07781190657742        0.09133307098797        0.01595202699170
C            0.53356715790953       -1.07213538488580        0.84000182166360
C            0.87898676390993       -0.95983204894174        2.32341832350623
N            0.42265779257927        0.32284753703569        2.92696108044587
C           -1.04390044128743        0.39680142544046        3.04075403061511
C            1.05827197100115        0.55880932214844        4.23437136335281
H            0.54750436668347        1.02346787899177        0.20941780845514
H            0.95537425306507       -0.12525524661350       -1.04102801841579
H            2.13999613705795        0.23788283096669        0.19962649354682
H           -0.54281251015858       -1.16381162535821        0.69329997313424
H            0.98042709366118       -1.99997135341421        0.48198847343903
H            0.43198487603893       -1.78155058823295        2.88581499645186
H            1.96386253206484       -1.01204881692145        2.43825654925625
H            0.72702317500524        1.06137760796024        2.27883735552915
H           -1.40075924769177       -0.39581220822396        3.69651155538893
H           -1.34070005625851        1.35719540733011        3.45824353897999
H           -1.51046981731991        0.28448158073347        2.06502521389184
H            2.14221643392298        0.56688928161824        4.13666909481151
H            0.73862110111471        1.51551173343395        4.64367594598460
H            0.77443651212457       -0.23112040405518        4.92813237297107

          :  Hamiltonian                  GFN2-xTB          :
         :: total energy             -20.354134603163 Eh    ::
         :: gradient norm              0.000235075036 Eh/a0 ::
         :: HOMO-LUMO gap              9.563659583706 eV    ::
         :: SCC energy               -20.646423163704 Eh    ::
         :: -> dispersion             -0.010302222098 Eh    ::
         :: repulsion energy           0.292288560541 Eh    ::

    * Orbital Energies and Occupations

         #    Occupation            Energy/Eh            Energy/eV
      -------------------------------------------------------------
         1        2.0000           -0.8807315             -23.9659
       ...           ...                  ...                  ...
         7        2.0000           -0.7389967             -20.1091
         8        2.0000           -0.7333656             -19.9559
         9        2.0000           -0.7100510             -19.3215
        10        2.0000           -0.6810054             -18.5311
        11        2.0000           -0.6732852             -18.3210
        12        2.0000           -0.6663293             -18.1317
        13        2.0000           -0.6559179             -17.8484
        14        2.0000           -0.6551928             -17.8287
        15        2.0000           -0.6512583             -17.7216
        16        2.0000           -0.6384508             -17.3731
        17        2.0000           -0.6110106             -16.6264
        18        2.0000           -0.5959637             -16.2170
        19        2.0000           -0.5891966             -16.0329 (HOMO)
        20                         -0.2377386              -6.4692 (LUMO)
        21                         -0.1531008              -4.1661
        22                         -0.1473592              -4.0098
        23                         -0.1300292              -3.5383
        24                         -0.0732132              -1.9922
        25                         -0.0469120              -1.2765
        26                         -0.0386417              -1.0515
        27                         -0.0180734              -0.4918
        28                         -0.0016818              -0.0458
        29                          0.0157141               0.4276
        30                          0.0313282               0.8525
       ...                                ...                  ...
        38                          0.1449013               3.9430
      -------------------------------------------------------------
                  HL-Gap            0.3514580 Eh            9.5637 eV

     #   Z          covCN         q      C6AA      α(0)
     1   6 C        3.751    -0.125    22.952     6.832
     2   6 C        3.800    -0.076    21.956     6.671
     3   6 C        3.746    -0.042    21.400     6.599
     4   7 N        3.577     0.062    20.152     6.667
     5   6 C        3.700    -0.097    22.530     6.788
     6   6 C        3.701    -0.098    22.540     6.789
     7   1 H        0.925     0.037     2.486     2.466
     8   1 H        0.925     0.077     2.006     2.215
     9   1 H        0.925     0.054     2.269     2.356
    10   1 H        0.925     0.063     2.159     2.298
    11   1 H        0.924     0.085     1.928     2.171
    12   1 H        0.924     0.094     1.843     2.123
    13   1 H        0.924     0.093     1.849     2.126
    14   1 H        0.859     0.237     0.935     1.515
    15   1 H        0.925     0.107     1.724     2.054
    16   1 H        0.925     0.103     1.758     2.074
    17   1 H        0.925     0.108     1.712     2.046
    18   1 H        0.925     0.103     1.756     2.072
    19   1 H        0.925     0.106     1.735     2.060
    20   1 H        0.925     0.108     1.713     2.046

Wiberg/Mayer (AO) data.
largest (>0.10) Wiberg bond orders for each atom

     #   Z sym  total        # sym  WBO       # sym  WBO       # sym  WBO
 ---------------------------------------------------------------------------
     1   6 C    3.990 --     2 C    1.019     9 H    0.985     8 H    0.979
                             7 H    0.979
     2   6 C    3.984 --     1 C    1.019     3 C    1.007    10 H    0.971
                            11 H    0.965
     3   6 C    3.920 --     2 C    1.007    12 H    0.968    13 H    0.966
                             4 N    0.927
     4   7 N    3.779 --     6 C    0.962     5 C    0.961     3 C    0.927
                            14 H    0.899
     5   6 C    3.918 --    16 H    0.975    15 H    0.975    17 H    0.971
                             4 N    0.961
     6   6 C    3.919 --    20 H    0.975    18 H    0.975    19 H    0.974
                             4 N    0.962
     7   1 H    0.999 --     1 C    0.979
     8   1 H    0.994 --     1 C    0.979
     9   1 H    0.997 --     1 C    0.985
    10   1 H    0.996 --     2 C    0.971
    11   1 H    0.992 --     2 C    0.965
    12   1 H    0.991 --     3 C    0.968
    13   1 H    0.991 --     3 C    0.966
    14   1 H    0.944 --     4 N    0.899
    15   1 H    0.989 --     5 C    0.975
    16   1 H    0.989 --     5 C    0.975
    17   1 H    0.988 --     5 C    0.971
    18   1 H    0.989 --     6 C    0.975
    19   1 H    0.989 --     6 C    0.974
    20   1 H    0.988 --     6 C    0.975
 ---------------------------------------------------------------------------

molecular dipole:
                 x           y           z       tot (Debye)
 q only:        0.754       0.278       5.277
   full:        0.806       0.402       5.253      13.548

           -------------------------------------------------
          | TOTAL ENERGY              -20.354134603163 Eh   |
          | GRADIENT NORM               0.000235075036 Eh/α |
          | HOMO-LUMO GAP               9.563659583706 eV   |
           -------------------------------------------------

 * finished run on 2024/12/20 at 06:43:47.648
