   * xtb version 6.7.1 (edcfbbe) compiled by 'conda@3ef47c1a292c' on 2024-11-25

   ID    Z sym.   atoms
    1    6 C      1, 2, 4, 6, 8-13, 16, 17
    2    8 O      3, 5, 14, 15
    3    7 N      7
    4    1 H      18-33

          program call               : xtb C0403.xyz --opt --namespace C0403 --charge +1
          :  Hamiltonian                  GFN2-xTB          :
 * total energy  :   -52.6338794 Eh     change       -0.6013110E-09 Eh
 * total energy  :   -52.6441716 Eh     change       -0.1029219E-01 Eh
 * total energy  :   -52.6466130 Eh     change       -0.2441418E-02 Eh
 * total energy  :   -52.6471993 Eh     change       -0.5862418E-03 Eh
 * total energy  :   -52.6474746 Eh     change       -0.2752840E-03 Eh
 * total energy  :   -52.6476485 Eh     change       -0.1739780E-03 Eh
 * total energy  :   -52.6478707 Eh     change       -0.2221959E-03 Eh
 * total energy  :   -52.6481252 Eh     change       -0.2544859E-03 Eh
 * total energy  :   -52.6483700 Eh     change       -0.2448210E-03 Eh
 * total energy  :   -52.6485559 Eh     change       -0.1858308E-03 Eh
 * total energy  :   -52.6552326 Eh     change       -0.1151467E-04 Eh
 * total energy  :   -52.6552452 Eh     change       -0.1265505E-04 Eh
 * total energy  :   -52.6552654 Eh     change       -0.2015107E-04 Eh
 * total energy  :   -52.6552892 Eh     change       -0.2384108E-04 Eh
 * total energy  :   -52.6553006 Eh     change       -0.1136987E-04 Eh
 * total energy  :   -52.6553099 Eh     change       -0.9275432E-05 Eh
 * total energy  :   -52.6553150 Eh     change       -0.5167252E-05 Eh
 * total energy  :   -52.6553186 Eh     change       -0.3578529E-05 Eh
 * total energy  :   -52.6553226 Eh     change       -0.4005399E-05 Eh
   *** GEOMETRY OPTIMIZATION CONVERGED AFTER 60 ITERATIONS ***

 final structure:
================
33
 xtb: 6.7.1 (edcfbbe)
C            0.35137177398025       -0.10536565508064       -0.28323334949965
C           -0.10501821333980        1.29564620623639        0.08097219574287
O            0.57252710865743        2.29250153725611       -0.72118478395383
C            1.76848011521138        2.67081608953255       -0.32745878832568
O            2.36896763993711        2.31259374045805        0.63697648715444
C            2.36634486032990        3.74752863129510       -1.28912177757331
N            2.34368685062340        3.38109089449562       -2.68042170874986
C            3.50079151336793        3.23781876435348       -3.34881164030971
C            3.51650884823877        2.94456625492084       -4.69298921938011
C            2.31172904382330        2.80625369282308       -5.37513138827296
C            1.12919899173910        2.95440973630498       -4.66711325286940
C            1.17082785243249        3.24076977799064       -3.31582693393096
C            1.55207329997049        5.06393531415466       -1.06317512377129
O            0.80730990825766        5.49428667470600       -1.89789538560317
O            1.82828700128616        5.54423738166238        0.11197412992987
C            1.17638525300811        6.76284261859152        0.54256148418760
C            2.14887057151926        7.54975918377947        1.39796887690430
H            0.19367599877529       -0.29911760344513       -1.34161600687216
H           -0.22341874735686       -0.82430035982736        0.29205268019239
H            1.40435009529015       -0.23715411799422       -0.04617344438178
H           -1.16237171793942        1.44352971287706       -0.14093375663554
H            0.09333775018503        1.50519267383703        1.13494896179592
H            3.39191223113257        3.91566321893409       -0.94802464634143
H            4.41652491162524        3.36149519511533       -2.78959739986423
H            4.46055161060605        2.83275754328441       -5.20179632106815
H            2.30119632680199        2.58662918471575       -6.43115996815261
H            0.17237609971116        2.85341597187236       -5.15363836669278
H            0.26841802490176        3.35373307961060       -2.73787880172388
H            0.85905565834605        7.32279067863179       -0.34161666083434
H            0.29409200285486        6.46939248543806        1.11852779185615
H            3.00957371964026        7.86382759686499        0.81396251561489
H            1.64903710714185        8.43139065173610        1.78685925194151
H            2.49136650924674        6.94236324486793        2.23086434948774

          :  Hamiltonian                  GFN2-xTB          :
         :: total energy             -52.655322614292 Eh    ::
         :: gradient norm              0.000741771528 Eh/a0 ::
         :: HOMO-LUMO gap              2.661208971875 eV    ::
         :: SCC energy               -53.312591378723 Eh    ::
         :: -> dispersion             -0.027601544715 Eh    ::
         :: repulsion energy           0.657268764431 Eh    ::

    * Orbital Energies and Occupations

         #    Occupation            Energy/Eh            Energy/eV
      -------------------------------------------------------------
         1        2.0000           -0.9000353             -24.4912
       ...           ...                  ...                  ...
        34        2.0000           -0.6246783             -16.9984
        35        2.0000           -0.6194155             -16.8552
        36        2.0000           -0.6155563             -16.7501
        37        2.0000           -0.6108602             -16.6224
        38        2.0000           -0.6054623             -16.4755
        39        2.0000           -0.5889895             -16.0272
        40        2.0000           -0.5838337             -15.8869
        41        2.0000           -0.5801773             -15.7874
        42        2.0000           -0.5780508             -15.7296
        43        2.0000           -0.5729608             -15.5911
        44        2.0000           -0.5662571             -15.4086
        45        2.0000           -0.5628206             -15.3151
        46        2.0000           -0.5540506             -15.0765 (HOMO)
        47                         -0.4562529             -12.4153 (LUMO)
        48                         -0.4230523             -11.5118
        49                         -0.3905882             -10.6284
        50                         -0.3694910             -10.0544
        51                         -0.3039558              -8.2711
        52                         -0.1880415              -5.1169
        53                         -0.1594408              -4.3386
        54                         -0.1349133              -3.6712
        55                         -0.0778578              -2.1186
        56                         -0.0604759              -1.6456
        57                         -0.0401942              -1.0937
       ...                                ...                  ...
        84                          0.5508171              14.9885
      -------------------------------------------------------------
                  HL-Gap            0.0977976 Eh            2.6612 eV

     #   Z          covCN         q      C6AA      α(0)
     1   6 C        3.751    -0.123    22.920     6.828
     2   6 C        3.697     0.069    19.590     6.331
     3   8 O        1.701    -0.253    18.186     5.758
     4   6 C        2.713     0.364    20.832     7.471
     5   8 O        0.856    -0.339    20.501     6.071
     6   6 C        3.807    -0.044    21.357     6.579
     7   7 N        2.751     0.113    19.305     6.526
     8   6 C        2.890     0.030    27.323     8.570
     9   6 C        2.916    -0.009    28.242     8.715
    10   6 C        2.924     0.014    27.696     8.630
    11   6 C        2.916    -0.007    28.194     8.707
    12   6 C        2.889     0.041    27.078     8.531
    13   6 C        2.712     0.364    20.819     7.469
    14   8 O        0.856    -0.379    21.269     6.183
    15   8 O        1.703    -0.223    17.704     5.681
    16   6 C        3.695     0.071    19.552     6.326
    17   6 C        3.751    -0.125    22.956     6.833
    18   1 H        0.925     0.059     2.213     2.326
    19   1 H        0.925     0.079     1.992     2.207
    20   1 H        0.925     0.067     2.122     2.278
    21   1 H        0.924     0.082     1.954     2.186
    22   1 H        0.924     0.078     1.995     2.209
    23   1 H        0.924     0.119     1.618     1.989
    24   1 H        0.926     0.108     1.715     2.048
    25   1 H        0.926     0.111     1.691     2.033
    26   1 H        0.926     0.109     1.703     2.040
    27   1 H        0.926     0.112     1.679     2.026
    28   1 H        0.926     0.135     1.494     1.911
    29   1 H        0.924     0.076     2.016     2.220
    30   1 H        0.924     0.076     2.019     2.222
    31   1 H        0.925     0.068     2.113     2.273
    32   1 H        0.925     0.078     1.996     2.209
    33   1 H        0.925     0.077     2.013     2.219

Wiberg/Mayer (AO) data.
largest (>0.10) Wiberg bond orders for each atom

     #   Z sym  total        # sym  WBO       # sym  WBO       # sym  WBO
 ---------------------------------------------------------------------------
     1   6 C    3.985 --     2 C    1.016    18 H    0.985    20 H    0.983
                            19 H    0.976
     2   6 C    3.889 --     1 C    1.016    22 H    0.969    21 H    0.969
                             3 O    0.894
     3   8 O    2.342 --     4 C    1.189     2 C    0.894     5 O    0.194
     4   6 C    3.942 --     5 O    1.791     3 O    1.189     6 C    0.876
     5   8 O    2.120 --     4 C    1.791     3 O    0.194
     6   6 C    3.948 --     7 N    0.995    23 H    0.947     4 C    0.876
                            13 C    0.876
     7   7 N    3.762 --    12 C    1.310     8 C    1.297     6 C    0.995
     8   6 C    3.952 --     9 C    1.483     7 N    1.297    24 H    0.954
     9   6 C    3.980 --     8 C    1.483    10 C    1.403    25 H    0.958
    10   6 C    3.963 --    11 C    1.436     9 C    1.403    26 H    0.961
    11   6 C    3.980 --    12 C    1.447    10 C    1.436    27 H    0.958
    12   6 C    3.945 --    11 C    1.447     7 N    1.310    28 H    0.946
    13   6 C    3.941 --    14 O    1.739    15 O    1.234     6 C    0.876
    14   8 O    2.098 --    13 C    1.739    15 O    0.197
    15   8 O    2.379 --    13 C    1.234    16 C    0.889    14 O    0.197
    16   6 C    3.884 --    17 C    1.019    29 H    0.969    30 H    0.963
                            15 O    0.889
    17   6 C    3.981 --    16 C    1.019    31 H    0.984    33 H    0.982
                            32 H    0.976
    18   1 H    0.997 --     1 C    0.985
    19   1 H    0.993 --     1 C    0.976
    20   1 H    0.996 --     1 C    0.983
    21   1 H    0.993 --     2 C    0.969
    22   1 H    0.994 --     2 C    0.969
    23   1 H    0.985 --     6 C    0.947
    24   1 H    0.988 --     8 C    0.954
    25   1 H    0.987 --     9 C    0.958
    26   1 H    0.988 --    10 C    0.961
    27   1 H    0.987 --    11 C    0.958
    28   1 H    0.982 --    12 C    0.946
    29   1 H    0.994 --    16 C    0.969
    30   1 H    0.994 --    16 C    0.963
    31   1 H    0.995 --    17 C    0.984
    32   1 H    0.992 --    17 C    0.976
    33   1 H    0.994 --    17 C    0.982
 ---------------------------------------------------------------------------

molecular dipole:
                 x           y           z       tot (Debye)
 q only:        3.616       6.298      -4.958
   full:        3.646       6.333      -4.975      22.471

           -------------------------------------------------
          | TOTAL ENERGY              -52.655322614292 Eh   |
          | GRADIENT NORM               0.000741771528 Eh/α |
          | HOMO-LUMO GAP               2.661208971875 eV   |
           -------------------------------------------------

 * finished run on 2024/12/20 at 06:43:39.438
