   * xtb version 6.7.1 (edcfbbe) compiled by 'conda@3ef47c1a292c' on 2024-11-25

   ID    Z sym.   atoms
    1    6 C      1-6, 8, 9, 11-20
    2    7 N      7, 10
    3    1 H      21-47

          program call               : xtb C0404.xyz --opt --namespace C0404 --charge +1
          :  Hamiltonian                  GFN2-xTB          :
 * total energy  :   -57.8210540 Eh     change       -0.1403166E-08 Eh
 * total energy  :   -57.8260886 Eh     change       -0.5034667E-02 Eh
 * total energy  :   -57.8270747 Eh     change       -0.9860753E-03 Eh
 * total energy  :   -57.8272833 Eh     change       -0.2085422E-03 Eh
 * total energy  :   -57.8274509 Eh     change       -0.1676047E-03 Eh
 * total energy  :   -57.8275253 Eh     change       -0.7445565E-04 Eh
 * total energy  :   -57.8276259 Eh     change       -0.1006062E-03 Eh
 * total energy  :   -57.8277313 Eh     change       -0.1053654E-03 Eh
 * total energy  :   -57.8278188 Eh     change       -0.8747846E-04 Eh
 * total energy  :   -57.8278886 Eh     change       -0.6984090E-04 Eh
 * total energy  :   -57.8281435 Eh     change       -0.3272414E-04 Eh
 * total energy  :   -57.8281624 Eh     change       -0.1887467E-04 Eh
 * total energy  :   -57.8281776 Eh     change       -0.1522479E-04 Eh
 * total energy  :   -57.8282017 Eh     change       -0.2406477E-04 Eh
 * total energy  :   -57.8282144 Eh     change       -0.1274248E-04 Eh
 * total energy  :   -57.8282211 Eh     change       -0.6730335E-05 Eh
 * total energy  :   -57.8282275 Eh     change       -0.6387151E-05 Eh
 * total energy  :   -57.8282326 Eh     change       -0.5044673E-05 Eh
 * total energy  :   -57.8282370 Eh     change       -0.4465401E-05 Eh
   *** GEOMETRY OPTIMIZATION CONVERGED AFTER 25 ITERATIONS ***

 final structure:
================
47
 xtb: 6.7.1 (edcfbbe)
C            0.42873856586919       -0.38859577018726       -0.17992169313798
C            0.73566443171621        0.63216652957655        0.90881935893361
C            1.09658507609661        2.01373955347863        0.35835378719704
C            0.00370433745383        2.67769589122305       -0.48421337289683
C           -1.32884977986569        2.89003600584999        0.23461968828686
C           -1.24340603211313        3.84502347587945        1.43107932512417
N           -0.88913878610291        5.17856997593510        1.00452397995589
C           -1.75445194719729        6.10933794614042        0.51488422088485
C           -1.01970954962798        7.19568842667388        0.14832251216596
N            0.28429451645370        6.90728574309865        0.41364005750923
C            0.33934828556280        5.68224354155397        0.92674676877729
C            1.39819926662384        7.77054720273429        0.17544349428310
C            1.66313861803166        8.79407103710378        1.08712882927205
C            0.81043167478350        8.97942437490129        2.30475317611791
C            2.74045389386381        9.62508644960906        0.83005883243394
C            3.53879616018589        9.45858887164746       -0.29685101973770
C            3.24370962323367        8.42799100974885       -1.17917013336425
C            2.17660897728613        7.56876381391456       -0.96331897008796
C            1.87336294529806        6.45747156258980       -1.92172703327694
C            4.69686223606298       10.37007869293185       -0.53497040931487
H           -0.48134613823257       -0.13719614422242       -0.71880415920646
H            0.29490163118968       -1.37261959060091        0.26133409419664
H            1.24903295502223       -0.44438815477095       -0.89165814948859
H           -0.11321547320334        0.70670761335752        1.59146501935641
H            1.58607645590519        0.27596083235334        1.49339872996725
H            1.37313571433111        2.65925133510631        1.19672185106635
H            1.98292132352865        1.91191704717285       -0.27128792973237
H            0.37729774966687        3.63760583586037       -0.85423511988653
H           -0.18550570646017        2.05688526390538       -1.35945642233678
H           -2.05895504497988        3.27945769697361       -0.47815604392521
H           -1.70338166740673        1.93504861802088        0.59945822952774
H           -2.21129840345242        3.89357293582470        1.93392979977648
H           -0.49415994823557        3.49488786250053        2.14202554435067
H           -2.81119429911225        5.94407525763678        0.46652976511569
H           -1.32259524139661        8.12963643924894       -0.27887203618499
H            1.23881083548264        5.19066386725515        1.24184918569970
H            1.24494323883214        9.73161352476207        2.95597589397495
H           -0.19197623892930        9.30845020412148        2.03151792022211
H            0.71973268521062        8.05068200733991        2.86764925838034
H            2.96504300813863       10.42231872593648        1.52198270055179
H            3.85533238728679        8.28965849424907       -2.05744474221773
H            2.42360862931924        6.60028855348542       -2.84670291305336
H            2.17237328923518        5.49639133723674       -1.50181594744683
H            0.81098067575468        6.41285131801190       -2.15873692474474
H            4.39589998521333       11.40891172439258       -0.41827983524887
H            5.48126338539949       10.17129217669275        0.19456263343860
H            5.10977169826852       10.23116088375108       -1.52969180127899

          :  Hamiltonian                  GFN2-xTB          :
         :: total energy             -57.828237022205 Eh    ::
         :: gradient norm              0.000713826470 Eh/a0 ::
         :: HOMO-LUMO gap              3.183347719487 eV    ::
         :: SCC energy               -58.778660455107 Eh    ::
         :: -> dispersion             -0.044307568722 Eh    ::
         :: repulsion energy           0.950423432902 Eh    ::

    * Orbital Energies and Occupations

         #    Occupation            Energy/Eh            Energy/eV
      -------------------------------------------------------------
         1        2.0000           -0.8799871             -23.9457
       ...           ...                  ...                  ...
        42        2.0000           -0.5726578             -15.5828
        43        2.0000           -0.5625294             -15.3072
        44        2.0000           -0.5610059             -15.2657
        45        2.0000           -0.5568021             -15.1514
        46        2.0000           -0.5531323             -15.0515
        47        2.0000           -0.5492654             -14.9463
        48        2.0000           -0.5439813             -14.8025
        49        2.0000           -0.5365757             -14.6010
        50        2.0000           -0.5283002             -14.3758
        51        2.0000           -0.5209489             -14.1757
        52        2.0000           -0.5155438             -14.0287
        53        2.0000           -0.5116031             -13.9214
        54        2.0000           -0.5091713             -13.8553 (HOMO)
        55                         -0.3921854             -10.6719 (LUMO)
        56                         -0.3576291              -9.7316
        57                         -0.3444944              -9.3742
        58                         -0.3379516              -9.1961
        59                         -0.2170716              -5.9068
        60                         -0.1656626              -4.5079
        61                         -0.1128030              -3.0695
        62                         -0.0520347              -1.4159
        63                         -0.0467129              -1.2711
        64                         -0.0363082              -0.9880
        65                         -0.0262503              -0.7143
       ...                                ...                  ...
       107                          0.5288005              14.3894
      -------------------------------------------------------------
                  HL-Gap            0.1169859 Eh            3.1833 eV

     #   Z          covCN         q      C6AA      α(0)
     1   6 C        3.752    -0.109    22.640     6.786
     2   6 C        3.799    -0.057    21.598     6.617
     3   6 C        3.800    -0.061    21.680     6.629
     4   6 C        3.800    -0.065    21.744     6.639
     5   6 C        3.802    -0.070    21.833     6.652
     6   6 C        3.742    -0.025    21.097     6.553
     7   7 N        2.869     0.064    20.121     6.662
     8   6 C        3.075    -0.009    28.151     8.699
     9   6 C        3.071    -0.003    28.018     8.679
    10   7 N        2.877     0.068    20.055     6.651
    11   6 C        3.101     0.053    26.681     8.465
    12   6 C        2.929     0.007    27.859     8.656
    13   6 C        2.963     0.013    27.712     8.635
    14   6 C        3.757    -0.117    22.783     6.805
    15   6 C        2.933    -0.048    29.191     8.861
    16   6 C        2.962     0.034    27.248     8.562
    17   6 C        2.932    -0.048    29.184     8.860
    18   6 C        2.963     0.012    27.736     8.638
    19   6 C        3.757    -0.115    22.754     6.801
    20   6 C        3.759    -0.121    22.868     6.817
    21   1 H        0.925     0.036     2.505     2.475
    22   1 H        0.925     0.046     2.374     2.410
    23   1 H        0.925     0.042     2.419     2.432
    24   1 H        0.924     0.030     2.588     2.516
    25   1 H        0.924     0.041     2.431     2.438
    26   1 H        0.924     0.016     2.789     2.612
    27   1 H        0.924     0.044     2.390     2.418
    28   1 H        0.924     0.020     2.726     2.582
    29   1 H        0.925     0.062     2.171     2.304
    30   1 H        0.924     0.051     2.308     2.376
    31   1 H        0.925     0.078     2.003     2.213
    32   1 H        0.924     0.083     1.945     2.181
    33   1 H        0.924     0.085     1.926     2.170
    34   1 H        0.926     0.100     1.785     2.089
    35   1 H        0.926     0.100     1.780     2.087
    36   1 H        0.926     0.106     1.732     2.058
    37   1 H        0.925     0.069     2.102     2.267
    38   1 H        0.925     0.055     2.257     2.349
    39   1 H        0.925     0.043     2.404     2.424
    40   1 H        0.926     0.062     2.172     2.305
    41   1 H        0.926     0.061     2.184     2.311
    42   1 H        0.925     0.069     2.098     2.265
    43   1 H        0.924     0.051     2.307     2.375
    44   1 H        0.925     0.043     2.405     2.425
    45   1 H        0.925     0.067     2.117     2.275
    46   1 H        0.925     0.070     2.084     2.258
    47   1 H        0.925     0.060     2.194     2.316

Wiberg/Mayer (AO) data.
largest (>0.10) Wiberg bond orders for each atom

     #   Z sym  total        # sym  WBO       # sym  WBO       # sym  WBO
 ---------------------------------------------------------------------------
     1   6 C    3.995 --     2 C    1.021    23 H    0.987    22 H    0.986
                            21 H    0.986
     2   6 C    3.997 --     1 C    1.021     3 C    1.007    25 H    0.977
                            24 H    0.976
     3   6 C    3.996 --     2 C    1.007     4 C    1.007    27 H    0.976
                            26 H    0.974
     4   6 C    3.994 --     5 C    1.009     3 C    1.007    28 H    0.973
                            29 H    0.970
     5   6 C    3.984 --     4 C    1.009     6 C    0.982    30 H    0.975
                            31 H    0.963
     6   6 C    3.938 --     5 C    0.982     7 N    0.969    32 H    0.965
                            33 H    0.963
     7   7 N    3.713 --    11 C    1.358     8 C    1.227     6 C    0.969
     8   6 C    3.950 --     9 C    1.590     7 N    1.227    34 H    0.962
     9   6 C    3.952 --     8 C    1.590    10 N    1.226    35 H    0.963
    10   7 N    3.716 --    11 C    1.360     9 C    1.226    12 C    0.951
    11   6 C    3.948 --    10 N    1.360     7 N    1.358    36 H    0.955
    12   6 C    3.910 --    18 C    1.369    13 C    1.358    10 N    0.951
    13   6 C    3.986 --    15 C    1.427    12 C    1.358    14 C    1.028
    14   6 C    3.992 --    13 C    1.028    37 H    0.982    39 H    0.974
                            38 H    0.967
    15   6 C    3.988 --    13 C    1.427    16 C    1.397    40 H    0.964
                            18 C    0.101
    16   6 C    3.985 --    17 C    1.408    15 C    1.397    20 C    1.036
    17   6 C    3.987 --    18 C    1.414    16 C    1.408    41 H    0.963
    18   6 C    3.986 --    17 C    1.414    12 C    1.369    19 C    1.027
                            15 C    0.101
    19   6 C    3.993 --    18 C    1.027    42 H    0.981    44 H    0.976
                            43 H    0.966
    20   6 C    3.991 --    16 C    1.036    47 H    0.983    45 H    0.969
                            46 H    0.960
    21   1 H    0.999 --     1 C    0.986
    22   1 H    0.998 --     1 C    0.986
    23   1 H    0.998 --     1 C    0.987
    24   1 H    0.999 --     2 C    0.976
    25   1 H    0.998 --     2 C    0.977
    26   1 H    1.000 --     3 C    0.974
    27   1 H    0.998 --     3 C    0.976
    28   1 H    1.000 --     4 C    0.973
    29   1 H    0.996 --     4 C    0.970
    30   1 H    0.997 --     5 C    0.975
    31   1 H    0.993 --     5 C    0.963
    32   1 H    0.993 --     6 C    0.965
    33   1 H    0.992 --     6 C    0.963
    34   1 H    0.989 --     8 C    0.962
    35   1 H    0.990 --     9 C    0.963
    36   1 H    0.989 --    11 C    0.955
    37   1 H    0.995 --    14 C    0.982
    38   1 H    0.997 --    14 C    0.967
    39   1 H    0.998 --    14 C    0.974
    40   1 H    0.994 --    15 C    0.964
    41   1 H    0.994 --    17 C    0.963
    42   1 H    0.995 --    19 C    0.981
    43   1 H    0.997 --    19 C    0.966
    44   1 H    0.998 --    19 C    0.976
    45   1 H    0.995 --    20 C    0.969
    46   1 H    0.995 --    20 C    0.960
    47   1 H    0.996 --    20 C    0.983
 ---------------------------------------------------------------------------

molecular dipole:
                 x           y           z       tot (Debye)
 q only:        0.528      11.524       0.952
   full:        0.426      11.486       1.049      29.335

           -------------------------------------------------
          | TOTAL ENERGY              -57.828237022205 Eh   |
          | GRADIENT NORM               0.000713826470 Eh/α |
          | HOMO-LUMO GAP               3.183347719487 eV   |
           -------------------------------------------------

 * finished run on 2024/12/20 at 06:43:40.988
