   * xtb version 6.7.1 (edcfbbe) compiled by 'conda@3ef47c1a292c' on 2024-11-25

   ID    Z sym.   atoms
    1    6 C      1, 3, 4, 6-15
    2    7 N      2, 5
    3    1 H      16-34

          program call               : xtb C0401.xyz --opt --namespace C0401 --charge +1
          :  Hamiltonian                  GFN2-xTB          :
 * total energy  :   -42.9282546 Eh     change       -0.6247944E-09 Eh
 * total energy  :   -42.9338833 Eh     change       -0.5628681E-02 Eh
 * total energy  :   -42.9350182 Eh     change       -0.1134864E-02 Eh
 * total energy  :   -42.9353535 Eh     change       -0.3353444E-03 Eh
 * total energy  :   -42.9355404 Eh     change       -0.1868610E-03 Eh
 * total energy  :   -42.9356506 Eh     change       -0.1102055E-03 Eh
 * total energy  :   -42.9357946 Eh     change       -0.1439892E-03 Eh
 * total energy  :   -42.9359655 Eh     change       -0.1709659E-03 Eh
 * total energy  :   -42.9361108 Eh     change       -0.1452546E-03 Eh
 * total energy  :   -42.9362240 Eh     change       -0.1132322E-03 Eh
 * total energy  :   -42.9367789 Eh     change       -0.1290207E-04 Eh
 * total energy  :   -42.9367872 Eh     change       -0.8354485E-05 Eh
 * total energy  :   -42.9367943 Eh     change       -0.7099014E-05 Eh
 * total energy  :   -42.9368030 Eh     change       -0.8644113E-05 Eh
 * total energy  :   -42.9368141 Eh     change       -0.1114404E-04 Eh
 * total energy  :   -42.9368246 Eh     change       -0.1049900E-04 Eh
 * total energy  :   -42.9368323 Eh     change       -0.7619588E-05 Eh
 * total energy  :   -42.9368377 Eh     change       -0.5439148E-05 Eh
 * total energy  :   -42.9368419 Eh     change       -0.4227825E-05 Eh
   *** GEOMETRY OPTIMIZATION CONVERGED AFTER 41 ITERATIONS ***

 final structure:
================
34
 xtb: 6.7.1 (edcfbbe)
C            1.02557162100867        0.12438826756310        0.28873231747415
N           -0.02087102480273        0.14885830582657        1.33266265126848
C            0.35943653194423       -0.68099479223865        2.49570640942904
C            0.55966410227381        0.11953845919504        3.55031201271613
N            0.31323130549574        1.41662286827213        3.26413146764385
C           -0.23321309098591        1.50613494208531        1.92620052161421
C            0.24960794151318        2.51663793351447        4.19372750935615
C           -1.17605072972549        2.90550496755691        4.59989386534134
C           -1.94670014489555        1.75423350329597        5.25626431755986
C           -1.23680459714608        1.18210773060326        6.45563585179211
C           -0.92336832183197       -0.16983914539514        6.51396223464976
C           -0.26368674644472       -0.69781138836550        7.61112268500687
C            0.08929502017030        0.12259765074673        8.66809398081636
C           -0.23340499271390        1.46890742093262        8.62748863508350
C           -0.89249270821815        1.99371879341074        7.53050515138284
H            0.74169829028318        0.75568251550531       -0.55166068763861
H            1.16630497252403       -0.89549156868466       -0.06474168075406
H            1.96224081502267        0.47886212993713        0.71508615460595
H           -0.88644310839159       -0.20017356065850        0.91049751927497
H            0.51507217584512       -1.72866196118278        2.36572701418655
H            0.88399959011460       -0.17205490123605        4.53115385363092
H           -1.30570114299218        1.74371032190933        1.94971186404911
H            0.28635596411379        2.27121094120008        1.33805073367803
H            0.80784804101055        2.21805205098054        5.08217114951506
H            0.75004629551531        3.37974818683204        3.74274454721581
H           -1.09372305846078        3.73534106640969        5.30068872006084
H           -1.73049002151715        3.26962640220404        3.73240862631883
H           -2.92321000803061        2.13347106681777        5.56640636564108
H           -2.12273449630671        0.95727356472755        4.52879448298235
H           -1.21652265522837       -0.82340349198331        5.70229780522897
H           -0.03139259297730       -1.75194343159048        7.64132045001496
H            0.60258327828746       -0.28672161251625        9.52416363380333
H            0.02366550135849        2.11139975005959        9.45582971644483
H           -1.15354200581019        3.04168701425807        7.51798012060133

          :  Hamiltonian                  GFN2-xTB          :
         :: total energy             -42.936841921891 Eh    ::
         :: gradient norm              0.000364876868 Eh/a0 ::
         :: HOMO-LUMO gap              3.495315389991 eV    ::
         :: SCC energy               -43.634226494556 Eh    ::
         :: -> dispersion             -0.030961889270 Eh    ::
         :: repulsion energy           0.697384572665 Eh    ::

    * Orbital Energies and Occupations

         #    Occupation            Energy/Eh            Energy/eV
      -------------------------------------------------------------
         1        2.0000           -0.8790651             -23.9206
       ...           ...                  ...                  ...
        28        2.0000           -0.5933391             -16.1456
        29        2.0000           -0.5824615             -15.8496
        30        2.0000           -0.5810288             -15.8106
        31        2.0000           -0.5762169             -15.6797
        32        2.0000           -0.5636087             -15.3366
        33        2.0000           -0.5578723             -15.1805
        34        2.0000           -0.5544888             -15.0884
        35        2.0000           -0.5503470             -14.9757
        36        2.0000           -0.5117033             -13.9242
        37        2.0000           -0.5094019             -13.8615
        38        2.0000           -0.5065967             -13.7852
        39        2.0000           -0.4911438             -13.3647
        40        2.0000           -0.4853146             -13.2061 (HOMO)
        41                         -0.3568641              -9.7108 (LUMO)
        42                         -0.3103510              -8.4451
        43                         -0.3096150              -8.4251
        44                         -0.2387295              -6.4962
        45                         -0.1813810              -4.9356
        46                         -0.1726953              -4.6993
        47                         -0.1623320              -4.4173
        48                         -0.1352521              -3.6804
        49                         -0.1109700              -3.0196
        50                         -0.0635629              -1.7296
        51                         -0.0418820              -1.1397
       ...                                ...                  ...
        79                          0.5772378              15.7074
      -------------------------------------------------------------
                  HL-Gap            0.1284505 Eh            3.4953 eV

     #   Z          covCN         q      C6AA      α(0)
     1   6 C        3.694    -0.093    22.453     6.779
     2   7 N        3.608     0.055    20.269     6.687
     3   6 C        2.912    -0.082    30.062     8.991
     4   6 C        2.917     0.029    27.357     8.577
     5   7 N        2.786    -0.054    22.291     7.012
     6   6 C        3.771     0.032    20.074     6.385
     7   6 C        3.738    -0.019    20.991     6.537
     8   6 C        3.801    -0.070    21.843     6.654
     9   6 C        3.807    -0.067    21.773     6.642
    10   6 C        2.968     0.005    27.914     8.666
    11   6 C        2.925    -0.046    29.143     8.853
    12   6 C        2.919    -0.031    28.767     8.795
    13   6 C        2.920    -0.028    28.708     8.786
    14   6 C        2.919    -0.027    28.666     8.780
    15   6 C        2.925    -0.039    28.969     8.826
    16   1 H        0.925     0.098     1.802     2.100
    17   1 H        0.925     0.108     1.711     2.046
    18   1 H        0.925     0.109     1.705     2.042
    19   1 H        0.859     0.223     0.998     1.565
    20   1 H        0.927     0.086     1.914     2.164
    21   1 H        0.926     0.106     1.728     2.056
    22   1 H        0.923     0.091     1.874     2.141
    23   1 H        0.924     0.101     1.780     2.086
    24   1 H        0.924     0.082     1.955     2.187
    25   1 H        0.924     0.061     2.188     2.313
    26   1 H        0.925     0.067     2.116     2.275
    27   1 H        0.924     0.038     2.480     2.463
    28   1 H        0.924     0.059     2.215     2.327
    29   1 H        0.924     0.026     2.641     2.541
    30   1 H        0.925     0.018     2.762     2.599
    31   1 H        0.926     0.037     2.484     2.465
    32   1 H        0.926     0.045     2.388     2.417
    33   1 H        0.926     0.044     2.390     2.418
    34   1 H        0.926     0.036     2.504     2.474

Wiberg/Mayer (AO) data.
largest (>0.10) Wiberg bond orders for each atom

     #   Z sym  total        # sym  WBO       # sym  WBO       # sym  WBO
 ---------------------------------------------------------------------------
     1   6 C    3.919 --    18 H    0.976    16 H    0.975    17 H    0.974
                             2 N    0.954
     2   7 N    3.773 --     1 C    0.954     6 C    0.946    19 H    0.920
                             3 C    0.909
     3   6 C    3.816 --     4 C    1.704    20 H    0.965     2 N    0.909
                             5 N    0.173
     4   6 C    3.969 --     3 C    1.704     5 N    1.230    21 H    0.950
     5   7 N    3.461 --     4 C    1.230     6 C    1.004     7 C    0.980
                             3 C    0.173
     6   6 C    3.937 --     5 N    1.004    23 H    0.959    22 H    0.959
                             2 N    0.946
     7   6 C    3.954 --     8 C    0.993     5 N    0.980    25 H    0.966
                            24 H    0.964
     8   6 C    3.991 --     9 C    0.998     7 C    0.993    27 H    0.975
                            26 H    0.968
     9   6 C    3.995 --    10 C    1.008     8 C    0.998    29 H    0.976
                            28 H    0.962
    10   6 C    3.988 --    11 C    1.416    15 C    1.410     9 C    1.008
                            13 C    0.110
    11   6 C    3.991 --    12 C    1.439    10 C    1.416    30 H    0.967
                            14 C    0.110
    12   6 C    3.992 --    13 C    1.443    11 C    1.439    31 H    0.971
                            15 C    0.112
    13   6 C    3.992 --    12 C    1.443    14 C    1.435    32 H    0.970
                            10 C    0.110
    14   6 C    3.991 --    15 C    1.449    13 C    1.435    33 H    0.970
                            11 C    0.110
    15   6 C    3.992 --    14 C    1.449    10 C    1.410    34 H    0.968
                            12 C    0.112
    16   1 H    0.990 --     1 C    0.975
    17   1 H    0.988 --     1 C    0.974
    18   1 H    0.988 --     1 C    0.976
    19   1 H    0.950 --     2 N    0.920
    20   1 H    0.992 --     3 C    0.965
    21   1 H    0.989 --     4 C    0.950
    22   1 H    0.992 --     6 C    0.959
    23   1 H    0.990 --     6 C    0.959
    24   1 H    0.993 --     7 C    0.964
    25   1 H    0.996 --     7 C    0.966
    26   1 H    0.994 --     8 C    0.968
    27   1 H    0.998 --     8 C    0.975
    28   1 H    0.996 --     9 C    0.962
    29   1 H    0.999 --     9 C    0.976
    30   1 H    1.000 --    11 C    0.967
    31   1 H    0.998 --    12 C    0.971
    32   1 H    0.997 --    13 C    0.970
    33   1 H    0.998 --    14 C    0.970
    34   1 H    0.999 --    15 C    0.968
 ---------------------------------------------------------------------------

molecular dipole:
                 x           y           z       tot (Debye)
 q only:        0.248       1.511       3.992
   full:        0.011       1.455       3.810      10.367

           -------------------------------------------------
          | TOTAL ENERGY              -42.936841921891 Eh   |
          | GRADIENT NORM               0.000364876868 Eh/α |
          | HOMO-LUMO GAP               3.495315389991 eV   |
           -------------------------------------------------

 * finished run on 2024/12/20 at 06:43:34.959
