   * xtb version 6.7.1 (edcfbbe) compiled by 'conda@3ef47c1a292c' on 2024-11-25

   ID    Z sym.   atoms
    1    6 C      1-4, 6, 8, 9, 11-13
    2    7 N      5, 7, 10
    3    1 H      14-37

          program call               : xtb C0419.xyz --opt --namespace C0419 --charge +1
          :  Hamiltonian                  GFN2-xTB          :
 * total energy  :   -42.0505144 Eh     change       -0.6690470E-10 Eh
 * total energy  :   -42.0616622 Eh     change       -0.1114784E-01 Eh
 * total energy  :   -42.0636353 Eh     change       -0.1973084E-02 Eh
 * total energy  :   -42.0638249 Eh     change       -0.1896318E-03 Eh
 * total energy  :   -42.0640479 Eh     change       -0.2229386E-03 Eh
 * total energy  :   -42.0641051 Eh     change       -0.5717839E-04 Eh
 * total energy  :   -42.0641483 Eh     change       -0.4322261E-04 Eh
 * total energy  :   -42.0641880 Eh     change       -0.3973694E-04 Eh
 * total energy  :   -42.0642096 Eh     change       -0.2154149E-04 Eh
 * total energy  :   -42.0642334 Eh     change       -0.2381318E-04 Eh
 * total energy  :   -42.0642396 Eh     change       -0.6218488E-05 Eh
 * total energy  :   -42.0642436 Eh     change       -0.3991101E-05 Eh
   *** GEOMETRY OPTIMIZATION CONVERGED AFTER 12 ITERATIONS ***

 final structure:
================
37
 xtb: 6.7.1 (edcfbbe)
C            0.62569304317575        0.73787456982164        0.11571739651107
C            0.57211852160394        1.78004805492904       -0.99524137470698
C            1.09625967703091        1.26929805308498       -2.33863214268389
C            0.32149043611809        0.08244899310429       -2.91507518309671
N           -1.10262491313526        0.33468705834408       -3.12279959092872
C           -1.58927558501713        1.46925608997255       -3.64808478584028
N           -2.78522749733432        1.93931079166076       -3.25191843473381
C           -3.67153075272716        2.65567784393752       -4.14608873943485
C           -3.30673621475751        1.77114348099273       -1.91164931611305
N           -0.90534286904920        2.13741368936292       -4.59307706686844
C           -0.89505050744032        3.58402620325527       -4.67256469342724
C           -0.10034220597259        1.47003388419618       -5.59300109467560
C           -1.97854712174900       -0.75909062455973       -2.74752979411466
H           -0.06407869469739       -0.08369830649874       -0.06295096606620
H            0.36128370847057        1.19349902534379        1.06602347100474
H            1.62955038187826        0.33086086617951        0.20481912933752
H           -0.44970830503456        2.14950590664794       -1.11010783035502
H            1.18797119270638        2.63179005474597       -0.70246577624026
H            1.11192233097611        2.09864668485323       -3.04573007753173
H            2.12642689048211        0.93432468418981       -2.20726060445973
H            0.80203762324670       -0.24907138816444       -3.84047280692905
H            0.38154651414544       -0.74359497888792       -2.20621526070359
H           -4.67525763945667        2.24076894407325       -4.04067707258729
H           -3.71962047476365        3.71978166671398       -3.90809234607690
H           -3.35629163104660        2.52807183203162       -5.17749387301909
H           -4.16493810816314        1.09677069446381       -1.89419567893137
H           -2.53938403627437        1.39346832230986       -1.24336898847237
H           -3.63572253821926        2.74509200051290       -1.54404407790464
H            0.13924493489899        3.91914283108766       -4.76875550433745
H           -1.44932128442483        3.94928366416381       -5.53913608068886
H           -1.31053075594944        4.01685875918559       -3.76712036937878
H           -0.38891343908743        0.42526251064196       -5.67493480724676
H           -0.28370253532780        1.95027655230622       -6.55515100646200
H            0.96864160439034        1.54086120535651       -5.37823118141613
H           -1.59054722593518       -1.68085934278024       -3.18449656645969
H           -2.03097285180431       -0.89039489694145       -1.66539772875882
H           -2.97852967175673       -0.59561537963649       -3.13896917620355

          :  Hamiltonian                  GFN2-xTB          :
         :: total energy             -42.064243578006 Eh    ::
         :: gradient norm              0.000500800182 Eh/a0 ::
         :: HOMO-LUMO gap              3.887892462765 eV    ::
         :: SCC energy               -42.653663680496 Eh    ::
         :: -> dispersion             -0.031483014813 Eh    ::
         :: repulsion energy           0.589420102490 Eh    ::

    * Orbital Energies and Occupations

         #    Occupation            Energy/Eh            Energy/eV
      -------------------------------------------------------------
         1        2.0000           -0.8484986             -23.0888
       ...           ...                  ...                  ...
        27        2.0000           -0.6168229             -16.7846
        28        2.0000           -0.6139739             -16.7071
        29        2.0000           -0.6096619             -16.5897
        30        2.0000           -0.6075379             -16.5319
        31        2.0000           -0.6001430             -16.3307
        32        2.0000           -0.5970323             -16.2461
        33        2.0000           -0.5866031             -15.9623
        34        2.0000           -0.5795143             -15.7694
        35        2.0000           -0.5545421             -15.0899
        36        2.0000           -0.5489486             -14.9377
        37        2.0000           -0.5420630             -14.7503
        38        2.0000           -0.5277219             -14.3600
        39        2.0000           -0.5255735             -14.3016 (HOMO)
        40                         -0.3826961             -10.4137 (LUMO)
        41                         -0.1887200              -5.1353
        42                         -0.1430838              -3.8935
        43                         -0.1379096              -3.7527
        44                         -0.0630897              -1.7168
        45                         -0.0603057              -1.6410
        46                         -0.0422329              -1.1492
        47                         -0.0318514              -0.8667
        48                         -0.0189034              -0.5144
        49                         -0.0130128              -0.3541
        50                         -0.0102990              -0.2803
       ...                                ...                  ...
        76                          0.3274649               8.9108
      -------------------------------------------------------------
                  HL-Gap            0.1428774 Eh            3.8879 eV

     #   Z          covCN         q      C6AA      α(0)
     1   6 C        3.751    -0.111    22.682     6.792
     2   6 C        3.800    -0.057    21.593     6.616
     3   6 C        3.801    -0.072    21.872     6.659
     4   6 C        3.745    -0.022    21.035     6.542
     5   7 N        2.739    -0.060    22.405     7.030
     6   6 C        2.779     0.182    24.086     8.038
     7   7 N        2.741    -0.057    22.350     7.021
     8   6 C        3.701    -0.069    21.996     6.707
     9   6 C        3.699    -0.068    21.971     6.704
    10   7 N        2.740    -0.057    22.344     7.021
    11   6 C        3.699    -0.067    21.960     6.702
    12   6 C        3.699    -0.066    21.939     6.699
    13   6 C        3.699    -0.067    21.945     6.700
    14   1 H        0.925     0.031     2.574     2.509
    15   1 H        0.925     0.050     2.322     2.383
    16   1 H        0.925     0.049     2.326     2.385
    17   1 H        0.924     0.022     2.705     2.572
    18   1 H        0.924     0.050     2.322     2.383
    19   1 H        0.925     0.040     2.453     2.449
    20   1 H        0.924     0.064     2.156     2.296
    21   1 H        0.924     0.060     2.198     2.319
    22   1 H        0.925     0.083     1.949     2.183
    23   1 H        0.924     0.082     1.956     2.187
    24   1 H        0.924     0.074     2.038     2.232
    25   1 H        0.925     0.074     2.039     2.233
    26   1 H        0.924     0.073     2.051     2.240
    27   1 H        0.925     0.078     1.999     2.211
    28   1 H        0.924     0.080     1.978     2.199
    29   1 H        0.924     0.081     1.973     2.197
    30   1 H        0.924     0.073     2.050     2.239
    31   1 H        0.925     0.074     2.046     2.237
    32   1 H        0.925     0.071     2.073     2.252
    33   1 H        0.924     0.083     1.947     2.182
    34   1 H        0.924     0.073     2.050     2.239
    35   1 H        0.924     0.079     1.992     2.207
    36   1 H        0.924     0.074     2.046     2.237
    37   1 H        0.925     0.073     2.054     2.241

Wiberg/Mayer (AO) data.
largest (>0.10) Wiberg bond orders for each atom

     #   Z sym  total        # sym  WBO       # sym  WBO       # sym  WBO
 ---------------------------------------------------------------------------
     1   6 C    3.994 --     2 C    1.021    16 H    0.986    15 H    0.985
                            14 H    0.985
     2   6 C    3.996 --     1 C    1.021     3 C    1.007    18 H    0.976
                            17 H    0.973
     3   6 C    3.991 --     2 C    1.007     4 C    1.002    19 H    0.974
                            20 H    0.969
     4   6 C    3.953 --     3 C    1.002     5 N    0.965    22 H    0.964
                            21 H    0.959
     5   7 N    3.516 --     6 C    1.280    13 C    0.989     4 C    0.965
     6   6 C    3.975 --     5 N    1.280     7 N    1.269    10 N    1.263
     7   7 N    3.516 --     6 C    1.269     9 C    0.990     8 C    0.990
     8   6 C    3.955 --     7 N    0.990    25 H    0.979    24 H    0.971
                            23 H    0.971
     9   6 C    3.954 --     7 N    0.990    27 H    0.974    26 H    0.971
                            28 H    0.970
    10   7 N    3.506 --     6 C    1.263    12 C    0.992    11 C    0.989
    11   6 C    3.955 --    10 N    0.989    31 H    0.979    30 H    0.972
                            29 H    0.970
    12   6 C    3.956 --    10 N    0.992    32 H    0.979    33 H    0.970
                            34 H    0.968
    13   6 C    3.956 --     5 N    0.989    37 H    0.978    36 H    0.971
                            35 H    0.971
    14   1 H    0.999 --     1 C    0.985
    15   1 H    0.997 --     1 C    0.985
    16   1 H    0.997 --     1 C    0.986
    17   1 H    1.000 --     2 C    0.973
    18   1 H    0.998 --     2 C    0.976
    19   1 H    0.998 --     3 C    0.974
    20   1 H    0.996 --     3 C    0.969
    21   1 H    0.996 --     4 C    0.959
    22   1 H    0.993 --     4 C    0.964
    23   1 H    0.993 --     8 C    0.971
    24   1 H    0.993 --     8 C    0.971
    25   1 H    0.994 --     8 C    0.979
    26   1 H    0.994 --     9 C    0.971
    27   1 H    0.994 --     9 C    0.974
    28   1 H    0.993 --     9 C    0.970
    29   1 H    0.993 --    11 C    0.970
    30   1 H    0.994 --    11 C    0.972
    31   1 H    0.995 --    11 C    0.979
    32   1 H    0.995 --    12 C    0.979
    33   1 H    0.993 --    12 C    0.970
    34   1 H    0.994 --    12 C    0.968
    35   1 H    0.993 --    13 C    0.971
    36   1 H    0.994 --    13 C    0.971
    37   1 H    0.994 --    13 C    0.978
 ---------------------------------------------------------------------------

molecular dipole:
                 x           y           z       tot (Debye)
 q only:       -2.805       2.809      -6.653
   full:       -2.832       2.788      -6.702      19.805

           -------------------------------------------------
          | TOTAL ENERGY              -42.064243578006 Eh   |
          | GRADIENT NORM               0.000500800182 Eh/α |
          | HOMO-LUMO GAP               3.887892462765 eV   |
           -------------------------------------------------

 * finished run on 2024/12/20 at 06:44:05.648
