   * xtb version 6.7.1 (edcfbbe) compiled by 'conda@3ef47c1a292c' on 2024-11-25

   ID    Z sym.   atoms
    1    6 C      1-6, 8-17, 19-24
    2    7 N      7
    3    8 O      18
    4    1 H      25-58

          program call               : xtb C0413.xyz --opt --namespace C0413 --charge +1
          :  Hamiltonian                  GFN2-xTB          :
 * total energy  :   -70.9273676 Eh     change       -0.2063743E-08 Eh
 * total energy  :   -70.9593331 Eh     change       -0.3196552E-01 Eh
 * total energy  :   -70.9699502 Eh     change       -0.1061710E-01 Eh
 * total energy  :   -70.9736209 Eh     change       -0.3670653E-02 Eh
 * total energy  :   -70.9750989 Eh     change       -0.1478027E-02 Eh
 * total energy  :   -70.9763411 Eh     change       -0.1242202E-02 Eh
 * total energy  :   -70.9774119 Eh     change       -0.1070787E-02 Eh
 * total energy  :   -70.9786071 Eh     change       -0.1195163E-02 Eh
 * total energy  :   -70.9799136 Eh     change       -0.1306500E-02 Eh
 * total energy  :   -70.9806649 Eh     change       -0.7513432E-03 Eh
 * total energy  :   -70.9864882 Eh     change       -0.3848311E-04 Eh
 * total energy  :   -70.9865241 Eh     change       -0.3590783E-04 Eh
 * total energy  :   -70.9865384 Eh     change       -0.1423120E-04 Eh
 * total energy  :   -70.9865654 Eh     change       -0.2705874E-04 Eh
 * total energy  :   -70.9865927 Eh     change       -0.2727351E-04 Eh
 * total energy  :   -70.9866053 Eh     change       -0.1263329E-04 Eh
 * total energy  :   -70.9866186 Eh     change       -0.1330878E-04 Eh
 * total energy  :   -70.9866245 Eh     change       -0.5888125E-05 Eh
 * total energy  :   -70.9866294 Eh     change       -0.4901824E-05 Eh
   *** GEOMETRY OPTIMIZATION CONVERGED AFTER 32 ITERATIONS ***

 final structure:
================
58
 xtb: 6.7.1 (edcfbbe)
C            1.27183427912397       -0.18484435674235       -0.02719137175361
C            0.49088589796439       -1.45245089092087        0.13253327574439
C           -0.56557818633653       -1.58402202285421        0.93237611896722
C            0.95453619024349       -2.55375303682473       -0.62826735522032
C            1.37459098571474       -3.48082798891355       -1.27126123587132
C            1.85872205625177       -4.61540095725422       -2.02728766628635
N            2.05798572372554       -5.82555437341344       -1.15907901352773
C            3.07354936484122       -5.48329991758862       -0.12475684584881
C            2.68147484685122       -4.88732405108117        1.06305275014687
C            3.60663157163610       -4.49353020452013        2.01411270271732
C            4.97255228700728       -4.72715253570993        1.75619490815609
C            5.38700369739486       -5.33696192316449        0.55845676713784
C            4.41964781133495       -5.68686195095762       -0.37259310649327
C            6.86556688222251       -5.63719062999136        0.29351050129165
C            7.32993361336235       -6.72028824856950        1.28543372217696
C            7.10434819850539       -6.19948106443446       -1.11438157762702
C            7.72200765388164       -4.35259237281225        0.42906804529901
O            5.85642295080405       -4.34237869295520        2.69291922045361
C            3.15694612407813       -3.81225418555505        3.30061991938949
C            3.77810367197823       -2.40969465827085        3.36678416484169
C            1.63534943843061       -3.64647099906882        3.38143525781486
C            3.59813497862370       -4.65101595470617        4.50800940150109
C            0.76852155931876       -6.20382298663859       -0.54661990304985
C            2.49458779837899       -6.95141494981802       -2.00715568606732
H            0.87620393254711        0.58806452020788        0.62494038225769
H            1.21712108775313        0.16047477537398       -1.05881233886576
H            2.32159493711625       -0.35193725732936        0.21134307162554
H           -1.11054199815339       -2.50897200587006        1.01852405210870
H           -0.91908712643053       -0.75886908928548        1.52469799490605
H            1.14301199302815       -4.86995332516083       -2.81601157439395
H            2.82077351404767       -4.36514588347818       -2.48415671664081
H            1.64526887588904       -4.70485189881242        1.26510942825672
H            4.74602109374522       -6.12484048627211       -1.29576832541689
H            6.80175498566632       -7.65147691626932        1.09094177893526
H            8.39429209690567       -6.90214673535619        1.15793607242460
H            7.15211749098268       -6.45616509520002        2.32480914498812
H            6.80492353752115       -5.48856988951868       -1.88166881499136
H            8.16706330991144       -6.39367928459336       -1.23652839556485
H            6.58793341878910       -7.14484316350725       -1.26536043918088
H            7.10961239856457       -3.45381310247631        0.38042099995497
H            8.31118920417308       -4.33626560430249        1.34545865788429
H            8.43601822818721       -4.29673361794180       -0.38877173900732
H            6.76144850920069       -4.47369076905022        2.38440690115856
H            3.49493649251578       -1.83181204183970        2.48905324839116
H            3.41795442343703       -1.89177300575134        4.25124049938329
H            4.85969564412698       -2.45995598184285        3.42079859051090
H            1.12623716878012       -4.60799814559530        3.37350723025296
H            1.38895158217933       -3.15583204288454        4.31945123829179
H            1.25659478574380       -3.02178072031799        2.57475218731578
H            3.16531946979841       -5.64769716571793        4.45365515477424
H            4.67728742662770       -4.74040951136848        4.55295351903191
H            3.25790399068292       -4.17787453039839        5.42485599735557
H            0.10395446484215       -6.60829224783954       -1.30853962782741
H            0.93314081812037       -6.95676855062328        0.22162622752786
H            0.28649355722631       -5.33227364786801       -0.11008587143701
H            3.33081931968240       -6.66649263130152       -2.64066403154679
H            2.78750524633840       -7.79088446512005       -1.37888537188696
H            1.67686672513564       -7.26271152992931       -2.65559212446863

          :  Hamiltonian                  GFN2-xTB          :
         :: total energy             -70.986629436740 Eh    ::
         :: gradient norm              0.000559665731 Eh/a0 ::
         :: HOMO-LUMO gap              3.871367682178 eV    ::
         :: SCC energy               -72.152366488431 Eh    ::
         :: -> dispersion             -0.060249633796 Eh    ::
         :: repulsion energy           1.165737051691 Eh    ::

    * Orbital Energies and Occupations

         #    Occupation            Energy/Eh            Energy/eV
      -------------------------------------------------------------
         1        2.0000           -0.8421840             -22.9170
       ...           ...                  ...                  ...
        54        2.0000           -0.5440067             -14.8032
        55        2.0000           -0.5419374             -14.7469
        56        2.0000           -0.5405853             -14.7101
        57        2.0000           -0.5339838             -14.5304
        58        2.0000           -0.5311914             -14.4545
        59        2.0000           -0.5299682             -14.4212
        60        2.0000           -0.5294500             -14.4071
        61        2.0000           -0.5236903             -14.2503
        62        2.0000           -0.5148740             -14.0104
        63        2.0000           -0.5098612             -13.8740
        64        2.0000           -0.5069518             -13.7949
        65        2.0000           -0.4943688             -13.4525
        66        2.0000           -0.4902531             -13.3405 (HOMO)
        67                         -0.3479829              -9.4691 (LUMO)
        68                         -0.3410999              -9.2818
        69                         -0.3387451              -9.2177
        70                         -0.2890530              -7.8655
        71                         -0.2312990              -6.2940
        72                         -0.2175501              -5.9198
        73                         -0.1937306              -5.2717
        74                         -0.1324486              -3.6041
        75                         -0.1254447              -3.4135
        76                         -0.1051837              -2.8622
        77                         -0.0663684              -1.8060
       ...                                ...                  ...
       130                          1.2865260              35.0082
      -------------------------------------------------------------
                  HL-Gap            0.1422701 Eh            3.8714 eV

     #   Z          covCN         q      C6AA      α(0)
     1   6 C        3.762    -0.110    22.658     6.785
     2   6 C        2.938     0.046    26.959     8.515
     3   6 C        2.857    -0.086    30.142     8.999
     4   6 C        1.988    -0.015    31.451     9.057
     5   6 C        1.964    -0.063    32.776     9.245
     6   6 C        3.767    -0.008    20.751     6.492
     7   7 N        3.625     0.124    19.113     6.493
     8   6 C        2.921     0.009    27.828     8.651
     9   6 C        2.926    -0.061    29.523     8.911
    10   6 C        2.969    -0.002    28.073     8.691
    11   6 C        2.851     0.146    24.821     8.165
    12   6 C        2.965    -0.027    28.672     8.783
    13   6 C        2.926    -0.064    29.587     8.920
    14   6 C        3.898     0.025    20.094     6.372
    15   6 C        3.761    -0.117    22.780     6.804
    16   6 C        3.762    -0.114    22.730     6.796
    17   6 C        3.756    -0.122    22.891     6.822
    18   8 O        1.660    -0.373    20.328     6.087
    19   6 C        3.902     0.034    19.955     6.350
    20   6 C        3.762    -0.114    22.732     6.796
    21   6 C        3.762    -0.116    22.770     6.802
    22   6 C        3.762    -0.116    22.762     6.801
    23   6 C        3.720    -0.084    22.221     6.733
    24   6 C        3.721    -0.084    22.218     6.732
    25   1 H        0.925     0.062     2.175     2.306
    26   1 H        0.925     0.060     2.197     2.318
    27   1 H        0.925     0.054     2.275     2.359
    28   1 H        0.926     0.044     2.400     2.422
    29   1 H        0.926     0.062     2.181     2.309
    30   1 H        0.924     0.089     1.892     2.151
    31   1 H        0.924     0.091     1.871     2.139
    32   1 H        0.926     0.064     2.149     2.293
    33   1 H        0.926     0.057     2.232     2.336
    34   1 H        0.925     0.044     2.401     2.423
    35   1 H        0.925     0.054     2.274     2.358
    36   1 H        0.925     0.043     2.415     2.430
    37   1 H        0.925     0.038     2.473     2.459
    38   1 H        0.925     0.054     2.265     2.353
    39   1 H        0.925     0.038     2.474     2.459
    40   1 H        0.925     0.043     2.408     2.427
    41   1 H        0.925     0.042     2.418     2.432
    42   1 H        0.925     0.060     2.201     2.320
    43   1 H        0.805     0.328     0.643     1.259
    44   1 H        0.925     0.030     2.586     2.515
    45   1 H        0.925     0.050     2.314     2.379
    46   1 H        0.925     0.060     2.195     2.317
    47   1 H        0.925     0.034     2.524     2.485
    48   1 H        0.925     0.054     2.274     2.358
    49   1 H        0.925     0.034     2.533     2.489
    50   1 H        0.925     0.035     2.520     2.483
    51   1 H        0.925     0.061     2.185     2.312
    52   1 H        0.925     0.050     2.314     2.379
    53   1 H        0.925     0.087     1.911     2.162
    54   1 H        0.925     0.094     1.842     2.122
    55   1 H        0.925     0.101     1.780     2.086
    56   1 H        0.925     0.092     1.859     2.132
    57   1 H        0.925     0.095     1.827     2.114
    58   1 H        0.925     0.087     1.904     2.158

Wiberg/Mayer (AO) data.
largest (>0.10) Wiberg bond orders for each atom

     #   Z sym  total        # sym  WBO       # sym  WBO       # sym  WBO
 ---------------------------------------------------------------------------
     1   6 C    3.993 --     2 C    1.008    25 H    0.981    27 H    0.970
                            26 H    0.968
     2   6 C    3.987 --     3 C    1.835     4 C    1.109     1 C    1.008
     3   6 C    3.985 --     2 C    1.835    28 H    0.976    29 H    0.973
                             5 C    0.124
     4   6 C    3.974 --     5 C    2.727     2 C    1.109
     5   6 C    3.972 --     4 C    2.727     6 C    1.053     3 C    0.124
     6   6 C    3.941 --     5 C    1.053    31 H    0.952    30 H    0.949
                             7 N    0.906
     7   7 N    3.798 --    24 C    0.964    23 C    0.960     6 C    0.906
                             8 C    0.897
     8   6 C    3.901 --    13 C    1.406     9 C    1.393     7 N    0.897
     9   6 C    3.986 --    10 C    1.433     8 C    1.393    32 H    0.952
    10   6 C    3.982 --     9 C    1.433    11 C    1.317    19 C    0.986
    11   6 C    3.944 --    12 C    1.335    10 C    1.317    18 O    1.120
    12   6 C    3.982 --    13 C    1.421    11 C    1.335    14 C    0.983
    13   6 C    3.986 --    12 C    1.421     8 C    1.406    33 H    0.952
    14   6 C    3.989 --    16 C    1.001    15 C    0.985    12 C    0.983
                            17 C    0.982
    15   6 C    3.992 --    14 C    0.985    34 H    0.985    35 H    0.982
                            36 H    0.979
    16   6 C    3.994 --    14 C    1.001    37 H    0.984    39 H    0.982
                            38 H    0.981
    17   6 C    3.992 --    40 H    0.986    14 C    0.982    42 H    0.979
                            41 H    0.975
    18   8 O    2.174 --    11 C    1.120    43 H    0.842
    19   6 C    3.988 --    21 C    0.999    10 C    0.986    22 C    0.984
                            20 C    0.983
    20   6 C    3.992 --    44 H    0.987    19 C    0.983    45 H    0.982
                            46 H    0.980
    21   6 C    3.995 --    19 C    0.999    47 H    0.983    48 H    0.982
                            49 H    0.981
    22   6 C    3.992 --    50 H    0.987    19 C    0.984    52 H    0.982
                            51 H    0.980
    23   6 C    3.932 --    54 H    0.977    53 H    0.975    55 H    0.967
                             7 N    0.960
    24   6 C    3.936 --    57 H    0.976    58 H    0.974    56 H    0.972
                             7 N    0.964
    25   1 H    0.996 --     1 C    0.981
    26   1 H    0.996 --     1 C    0.968
    27   1 H    0.997 --     1 C    0.970
    28   1 H    0.998 --     3 C    0.976
    29   1 H    0.995 --     3 C    0.973
    30   1 H    0.991 --     6 C    0.949
    31   1 H    0.991 --     6 C    0.952
    32   1 H    0.995 --     9 C    0.952
    33   1 H    0.996 --    13 C    0.952
    34   1 H    0.998 --    15 C    0.985
    35   1 H    0.996 --    15 C    0.982
    36   1 H    0.998 --    15 C    0.979
    37   1 H    0.999 --    16 C    0.984
    38   1 H    0.997 --    16 C    0.981
    39   1 H    0.999 --    16 C    0.982
    40   1 H    0.998 --    17 C    0.986
    41   1 H    0.998 --    17 C    0.975
    42   1 H    0.996 --    17 C    0.979
    43   1 H    0.893 --    18 O    0.842
    44   1 H    0.999 --    20 C    0.987
    45   1 H    0.996 --    20 C    0.982
    46   1 H    0.996 --    20 C    0.980
    47   1 H    0.999 --    21 C    0.983
    48   1 H    0.997 --    21 C    0.982
    49   1 H    0.999 --    21 C    0.981
    50   1 H    0.999 --    22 C    0.987
    51   1 H    0.996 --    22 C    0.980
    52   1 H    0.996 --    22 C    0.982
    53   1 H    0.992 --    23 C    0.975
    54   1 H    0.991 --    23 C    0.977
    55   1 H    0.990 --    23 C    0.967
    56   1 H    0.991 --    24 C    0.972
    57   1 H    0.990 --    24 C    0.976
    58   1 H    0.992 --    24 C    0.974
 ---------------------------------------------------------------------------

molecular dipole:
                 x           y           z       tot (Debye)
 q only:        5.299      -9.848      -0.992
   full:        5.402     -10.042      -1.337      29.182

           -------------------------------------------------
          | TOTAL ENERGY              -70.986629436740 Eh   |
          | GRADIENT NORM               0.000559665731 Eh/α |
          | HOMO-LUMO GAP               3.871367682178 eV   |
           -------------------------------------------------

 * finished run on 2024/12/20 at 06:43:58.165
