   * xtb version 6.7.1 (edcfbbe) compiled by 'conda@3ef47c1a292c' on 2024-11-25

   ID    Z sym.   atoms
    1    7 N      1-3, 6, 8, 9
    2    6 C      4, 5, 7, 10, 11
    3    1 H      12-20

          program call               : xtb C0418.xyz --opt --namespace C0418 --charge +1
          :  Hamiltonian                  GFN2-xTB          :
 * total energy  :   -32.3575197 Eh     change       -0.4158807E-10 Eh
 * total energy  :   -32.3657239 Eh     change       -0.8204246E-02 Eh
 * total energy  :   -32.3609956 Eh     change        0.4728264E-02 Eh
 * total energy  :   -32.3687577 Eh     change       -0.7762071E-02 Eh
 * total energy  :   -32.3697761 Eh     change       -0.1018416E-02 Eh
 * total energy  :   -32.3703084 Eh     change       -0.5323229E-03 Eh
 * total energy  :   -32.3708523 Eh     change       -0.5438197E-03 Eh
 * total energy  :   -32.3711003 Eh     change       -0.2480406E-03 Eh
 * total energy  :   -32.3712057 Eh     change       -0.1054279E-03 Eh
 * total energy  :   -32.3712653 Eh     change       -0.5960553E-04 Eh
 * total energy  :   -32.3746442 Eh     change       -0.2473294E-04 Eh
 * total energy  :   -32.3746793 Eh     change       -0.3503338E-04 Eh
 * total energy  :   -32.3746918 Eh     change       -0.1257292E-04 Eh
 * total energy  :   -32.3747012 Eh     change       -0.9385569E-05 Eh
 * total energy  :   -32.3747066 Eh     change       -0.5386193E-05 Eh
 * total energy  :   -32.3747146 Eh     change       -0.7968285E-05 Eh
 * total energy  :   -32.3747219 Eh     change       -0.7286609E-05 Eh
 * total energy  :   -32.3747309 Eh     change       -0.8990101E-05 Eh
 * total energy  :   -32.3747329 Eh     change       -0.2000190E-05 Eh
   *** GEOMETRY OPTIMIZATION CONVERGED AFTER 65 ITERATIONS ***

 final structure:
================
20
 xtb: 6.7.1 (edcfbbe)
N            4.22553875088715       -1.29127864635977       -2.13917784840924
N            4.00973714219261       -0.44481117695508       -1.44330153852682
N            3.64298809286859        0.53820367420959       -0.87155014429748
C            3.98457529457612        0.93905882130815        0.45987988625420
C            3.57413083103140        2.41037684568748        0.62231526924635
N            2.17024446072845        2.56462623498549        0.32778182175161
C            1.61031001717810        2.61921133467729       -0.91113812892475
N            0.31782363809920        2.66993044538842       -0.82397925530817
N            0.02849617487355        2.64244167295913        0.47178866873948
C            1.14181439475322        2.57436756668498        1.18544031909921
C           -1.33194418086893        2.69597858940510        0.91971469682387
H            3.45527853009210        0.31860084986605        1.19662832565512
H            5.06138596183375        0.85609843765146        0.64808709343907
H            3.77269102632247        2.74449988343753        1.64103054062263
H            4.13945952537955        3.02466295977246       -0.08156771456779
H            2.15905572896841        2.61594455274698       -1.83087634871045
H            1.21090726338098        2.54267951588630        2.25541602594142
H           -1.90564390065565        1.91626231755432        0.41777304752839
H           -1.37918092778189        2.55960461644639        1.99726568528332
H           -1.76898782385641        3.65859150464679        0.64931959835972

          :  Hamiltonian                  GFN2-xTB          :
         :: total energy             -32.374732851320 Eh    ::
         :: gradient norm              0.000960959400 Eh/a0 ::
         :: HOMO-LUMO gap              2.372443644969 eV    ::
         :: SCC energy               -32.820000304796 Eh    ::
         :: -> dispersion             -0.014488279857 Eh    ::
         :: repulsion energy           0.445267453476 Eh    ::

    * Orbital Energies and Occupations

         #    Occupation            Energy/Eh            Energy/eV
      -------------------------------------------------------------
         1        2.0000           -0.9360705             -25.4718
       ...           ...                  ...                  ...
        17        2.0000           -0.7059240             -19.2092
        18        2.0000           -0.6972787             -18.9739
        19        2.0000           -0.6904437             -18.7879
        20        2.0000           -0.6670552             -18.1515
        21        2.0000           -0.6615363             -18.0013
        22        2.0000           -0.6559608             -17.8496
        23        2.0000           -0.6393574             -17.3978
        24        2.0000           -0.6374678             -17.3464
        25        2.0000           -0.6212852             -16.9060
        26        2.0000           -0.6031225             -16.4118
        27        2.0000           -0.5863978             -15.9567
        28        2.0000           -0.5537561             -15.0685
        29        2.0000           -0.5256955             -14.3049 (HOMO)
        30                         -0.4385098             -11.9325 (LUMO)
        31                         -0.4116821             -11.2024
        32                         -0.3745319             -10.1915
        33                         -0.3370778              -9.1724
        34                         -0.2119914              -5.7686
        35                         -0.1586392              -4.3168
        36                         -0.1128373              -3.0705
        37                         -0.1003661              -2.7311
        38                         -0.0666664              -1.8141
        39                         -0.0616486              -1.6775
        40                         -0.0251620              -0.6847
       ...                                ...                  ...
        53                          0.9762355              26.5647
      -------------------------------------------------------------
                  HL-Gap            0.0871857 Eh            2.3724 eV

     #   Z          covCN         q      C6AA      α(0)
     1   7 N        0.992    -0.172    24.283     7.084
     2   7 N        1.974     0.313    16.837     6.085
     3   7 N        1.907    -0.226    26.783     7.673
     4   6 C        3.745     0.018    20.342     6.434
     5   6 C        3.745    -0.027    21.130     6.557
     6   7 N        2.857     0.060    20.190     6.674
     7   6 C        3.143     0.091    25.749     8.303
     8   7 N        2.046    -0.138    24.679     7.369
     9   7 N        3.056     0.167    18.435     6.377
    10   6 C        3.064     0.047    26.892     8.504
    11   6 C        3.692    -0.099    22.579     6.799
    12   1 H        0.923     0.060     2.203     2.321
    13   1 H        0.924     0.078     1.996     2.209
    14   1 H        0.924     0.095     1.827     2.114
    15   1 H        0.924     0.109     1.706     2.042
    16   1 H        0.926     0.134     1.508     1.920
    17   1 H        0.926     0.125     1.575     1.962
    18   1 H        0.924     0.130     1.531     1.935
    19   1 H        0.925     0.108     1.718     2.050
    20   1 H        0.924     0.128     1.552     1.948

Wiberg/Mayer (AO) data.
largest (>0.10) Wiberg bond orders for each atom

     #   Z sym  total        # sym  WBO       # sym  WBO       # sym  WBO
 ---------------------------------------------------------------------------
     1   7 N    2.963 --     2 N    2.254     3 N    0.623
     2   7 N    3.834 --     1 N    2.254     3 N    1.548
     3   7 N    3.192 --     2 N    1.548     4 C    0.988     1 N    0.623
     4   6 C    3.975 --     3 N    0.988     5 C    0.979    12 H    0.959
                            13 H    0.955
     5   6 C    3.938 --     4 C    0.979     6 N    0.973    14 H    0.965
                            15 H    0.959
     6   7 N    3.716 --    10 C    1.330     7 C    1.241     5 C    0.973
     7   6 C    3.945 --     8 N    1.592     6 N    1.241    16 H    0.950
     8   7 N    3.026 --     7 C    1.592     9 N    1.210
     9   7 N    3.758 --    10 C    1.408     8 N    1.210    11 C    0.988
    10   6 C    3.948 --     9 N    1.408     6 N    1.330    17 H    0.951
    11   6 C    3.919 --     9 N    0.988    19 H    0.973    18 H    0.954
                            20 H    0.951
    12   1 H    0.996 --     4 C    0.959
    13   1 H    0.993 --     4 C    0.955
    14   1 H    0.990 --     5 C    0.965
    15   1 H    0.988 --     5 C    0.959
    16   1 H    0.982 --     7 C    0.950
    17   1 H    0.984 --    10 C    0.951
    18   1 H    0.982 --    11 C    0.954
    19   1 H    0.988 --    11 C    0.973
    20   1 H    0.983 --    11 C    0.951
 ---------------------------------------------------------------------------

molecular dipole:
                 x           y           z       tot (Debye)
 q only:        2.517       4.852       1.620
   full:        2.905       4.969       2.212      15.673

           -------------------------------------------------
          | TOTAL ENERGY              -32.374732851320 Eh   |
          | GRADIENT NORM               0.000960959400 Eh/α |
          | HOMO-LUMO GAP               2.372443644969 eV   |
           -------------------------------------------------

 * finished run on 2024/12/20 at 06:44:04.820
