   * xtb version 6.7.1 (edcfbbe) compiled by 'conda@3ef47c1a292c' on 2024-11-25

   ID    Z sym.   atoms
    1    8 O      1, 7
    2    6 C      2, 4-6, 9-11, 13, 15-21, 23, 24, 26-35
    3    7 N      3, 8, 12, 14, 22, 25
    4    1 H      36-58

          program call               : xtb C0412.xyz --opt --namespace C0412 --charge +1
          :  Hamiltonian                  GFN2-xTB          :
 * total energy  :   -94.9170465 Eh     change       -0.2370058E-08 Eh
 * total energy  :   -94.9326154 Eh     change       -0.1556890E-01 Eh
 * total energy  :   -94.9389320 Eh     change       -0.6316580E-02 Eh
 * total energy  :   -94.9408173 Eh     change       -0.1885327E-02 Eh
 * total energy  :   -94.9418373 Eh     change       -0.1020000E-02 Eh
 * total energy  :   -94.9422301 Eh     change       -0.3927515E-03 Eh
 * total energy  :   -94.9425463 Eh     change       -0.3161714E-03 Eh
 * total energy  :   -94.9428791 Eh     change       -0.3328586E-03 Eh
 * total energy  :   -94.9432373 Eh     change       -0.3581520E-03 Eh
 * total energy  :   -94.9436129 Eh     change       -0.3756024E-03 Eh
 * total energy  :   -94.9512598 Eh     change       -0.1096850E-04 Eh
 * total energy  :   -94.9512892 Eh     change       -0.2945902E-04 Eh
 * total energy  :   -94.9512982 Eh     change       -0.8969184E-05 Eh
 * total energy  :   -94.9513326 Eh     change       -0.3436487E-04 Eh
 * total energy  :   -94.9513442 Eh     change       -0.1157694E-04 Eh
 * total energy  :   -94.9513568 Eh     change       -0.1260691E-04 Eh
 * total energy  :   -94.9513647 Eh     change       -0.7898229E-05 Eh
 * total energy  :   -94.9513717 Eh     change       -0.7016588E-05 Eh
 * total energy  :   -94.9513761 Eh     change       -0.4453459E-05 Eh
   *** GEOMETRY OPTIMIZATION CONVERGED AFTER 78 ITERATIONS ***

 final structure:
================
58
 xtb: 6.7.1 (edcfbbe)
O            1.82424299773645        0.77436182734234        0.19447263529794
C            2.99328609061951        0.51316302134982        0.40869192114620
N            3.56416770416110       -0.63113546638772        0.00054856834596
C            4.83858990640518       -0.84826381459121        0.18971566692134
C            5.74326571386532        0.11324544119652        0.76937600967219
C            5.15399113880007        1.37478848268650        1.27440220591610
O            5.78971067653691        2.26347663849854        1.79231819760856
N            3.79135238001475        1.46945666897585        1.09136279662019
C            3.11756759852597        2.62001371784470        1.67719104276226
C            3.53297860421878        3.97453957962436        1.08049148523776
C            3.91519248723951        3.92486266899950       -0.40181955101469
N            3.02786764190407        3.10931830219514       -1.20263226181035
C            1.69837570038716        3.12680403879388       -1.18337898378260
N            1.18614130965779        2.22674927588657       -2.01012861753904
C            2.23325785510649        1.54780859662094       -2.58935293576773
C            3.41566886751454        2.11434093301334       -2.07542143481893
C            4.66519660955248        1.63645834275948       -2.45373953994987
C            4.68923302922463        0.59342403565667       -3.35548481321329
C            3.51422205720042        0.03583856901106       -3.86950040223129
C            2.26932999457366        0.49516260954072       -3.49484313303471
C           -0.20269972364382        1.88997213369640       -2.14642788158792
N            7.01432235201832       -0.09108500942901        0.91088334300175
C            7.53356402259102       -1.26165182678049        0.49368467749776
C            6.71071909171987       -2.28647809853317       -0.05389782238957
N            5.36385975625994       -2.04998259647199       -0.16569921022448
C            4.47033335031376       -3.07979299359838       -0.59617364136489
C            4.30403849158101       -4.20761247377354        0.19569495771200
C            3.42777137856780       -5.19835730744210       -0.21063610724655
C            2.72352734372482       -5.06079606212638       -1.39539063356817
C            2.89174804890352       -3.92894035378910       -2.17586077442249
C            3.76504753421254       -2.93162064605113       -1.77942143569071
C            7.30220472649866       -3.48206292803122       -0.47599983063747
C            8.65972239899339       -3.65814137282474       -0.34049376621787
C            9.46999057741285       -2.66078364994427        0.21508770590939
C            8.91783829209538       -1.47529544021324        0.62342109488195
H            2.04974201369464        2.43837573377961        1.53877228502438
H            3.33858851687789        2.63441380075711        2.74749789826595
H            2.71795159405209        4.67948429465900        1.24659328063197
H            4.41095940680365        4.34272885289734        1.61110820295657
H            3.93330204007975        4.94207700065665       -0.80577563091769
H            4.91744952410028        3.50578977776122       -0.49943397477090
H            1.11060148017455        3.79215083912445       -0.57953909974723
H            5.57955132702879        2.05615435452247       -2.06518726473204
H            5.64031942768695        0.19577459177518       -3.67445653056873
H            3.58750901280545       -0.77373946521728       -4.57911597470549
H            1.36666233332888        0.05154818122255       -3.88036669826377
H           -0.44366954378818        1.72339047243797       -3.19552132720743
H           -0.40422356403518        0.97968271699753       -1.57792449891978
H           -0.81868705432278        2.69696684460457       -1.75629913325552
H            4.84996666033986       -4.30170685113116        1.12281940536125
H            3.29392263863378       -6.07557609823597        0.40278678727922
H            2.04034461446777       -5.83503318885772       -1.70780037229922
H            2.34133531338006       -3.82152958465001       -3.09769086760379
H            3.90027850014227       -2.04186901159789       -2.37325843550144
H            6.69123165590527       -4.25589994443833       -0.91387176491613
H            9.10751094768025       -4.58244866361034       -0.67124504859967
H           10.53025819247334       -2.83034607154143        0.31436870602595
H            9.50761895791796       -0.67999342570894        1.04915052433308

          :  Hamiltonian                  GFN2-xTB          :
         :: total energy             -94.951376136242 Eh    ::
         :: gradient norm              0.000432419494 Eh/a0 ::
         :: HOMO-LUMO gap              1.405102516050 eV    ::
         :: SCC energy               -96.439540957753 Eh    ::
         :: -> dispersion             -0.082463875978 Eh    ::
         :: repulsion energy           1.488164821510 Eh    ::

    * Orbital Energies and Occupations

         #    Occupation            Energy/Eh            Energy/eV
      -------------------------------------------------------------
         1        2.0000           -0.8603178             -23.4104
       ...           ...                  ...                  ...
        74        2.0000           -0.5417395             -14.7415
        75        2.0000           -0.5336913             -14.5225
        76        2.0000           -0.5314521             -14.4615
        77        2.0000           -0.5260982             -14.3159
        78        2.0000           -0.5190413             -14.1238
        79        2.0000           -0.5175287             -14.0827
        80        2.0000           -0.5165805             -14.0569
        81        2.0000           -0.5131452             -13.9634
        82        2.0000           -0.5097235             -13.8703
        83        2.0000           -0.5090207             -13.8512
        84        2.0000           -0.4995111             -13.5924
        85        2.0000           -0.4914878             -13.3741
        86        2.0000           -0.4711836             -12.8216 (HOMO)
        87                         -0.4195470             -11.4165 (LUMO)
        88                         -0.3971140             -10.8060
        89                         -0.3608932              -9.8204
        90                         -0.3512820              -9.5589
        91                         -0.3408056              -9.2738
        92                         -0.3348099              -9.1106
        93                         -0.3286320              -8.9425
        94                         -0.3268423              -8.8938
        95                         -0.3131571              -8.5214
        96                         -0.2955774              -8.0431
        97                         -0.2278473              -6.2000
       ...                                ...                  ...
       163                          0.6075382              16.5320
      -------------------------------------------------------------
                  HL-Gap            0.0516366 Eh            1.4051 eV

     #   Z          covCN         q      C6AA      α(0)
     1   8 O        0.860    -0.465    23.012     6.432
     2   6 C        2.739     0.340    21.220     7.542
     3   7 N        1.842    -0.336    29.580     8.060
     4   6 C        2.903     0.151    24.733     8.154
     5   6 C        2.958     0.042    27.047     8.530
     6   6 C        2.772     0.270    22.444     7.759
     7   8 O        0.858    -0.380    21.279     6.185
     8   7 N        2.740    -0.148    24.188     7.305
     9   6 C        3.750     0.005    20.547     6.465
    10   6 C        3.800    -0.077    21.972     6.674
    11   6 C        3.740    -0.014    20.908     6.524
    12   7 N        2.827     0.032    20.687     6.755
    13   6 C        3.085     0.080    26.126     8.379
    14   7 N        2.827     0.064    20.132     6.664
    15   6 C        3.131     0.049    26.710     8.461
    16   6 C        3.125     0.042    26.873     8.489
    17   6 C        2.909    -0.037    28.915     8.817
    18   6 C        2.925    -0.023    28.573     8.766
    19   6 C        2.926    -0.021    28.520     8.758
    20   6 C        2.909    -0.028    28.689     8.783
    21   6 C        3.693    -0.078    22.189     6.740
    22   7 N        1.846    -0.174    25.564     7.493
    23   6 C        2.974     0.081    26.200     8.396
    24   6 C        2.933     0.059    26.684     8.472
    25   7 N        2.764     0.002    21.225     6.843
    26   6 C        2.934     0.063    26.596     8.458
    27   6 C        2.921    -0.031    28.781     8.798
    28   6 C        2.921    -0.021    28.522     8.758
    29   6 C        2.920    -0.021    28.524     8.758
    30   6 C        2.922    -0.021    28.532     8.759
    31   6 C        2.920    -0.028    28.691     8.784
    32   6 C        2.914    -0.044    29.086     8.844
    33   6 C        2.919    -0.011    28.287     8.722
    34   6 C        2.915    -0.022    28.545     8.761
    35   6 C        2.921    -0.024    28.610     8.771
    36   1 H        0.924     0.076     2.023     2.224
    37   1 H        0.924     0.077     2.012     2.218
    38   1 H        0.924     0.060     2.205     2.322
    39   1 H        0.925     0.098     1.802     2.099
    40   1 H        0.924     0.081     1.973     2.197
    41   1 H        0.924     0.087     1.909     2.160
    42   1 H        0.926     0.110     1.693     2.035
    43   1 H        0.926     0.059     2.211     2.325
    44   1 H        0.926     0.066     2.128     2.281
    45   1 H        0.926     0.072     2.060     2.244
    46   1 H        0.926     0.074     2.042     2.234
    47   1 H        0.925     0.095     1.829     2.115
    48   1 H        0.924     0.117     1.637     2.001
    49   1 H        0.925     0.092     1.861     2.133
    50   1 H        0.926     0.050     2.315     2.379
    51   1 H        0.926     0.061     2.184     2.311
    52   1 H        0.926     0.060     2.193     2.316
    53   1 H        0.926     0.053     2.277     2.360
    54   1 H        0.926     0.045     2.384     2.414
    55   1 H        0.926     0.059     2.212     2.326
    56   1 H        0.926     0.070     2.084     2.257
    57   1 H        0.926     0.071     2.069     2.250
    58   1 H        0.926     0.087     1.905     2.159

Wiberg/Mayer (AO) data.
largest (>0.10) Wiberg bond orders for each atom

     #   Z sym  total        # sym  WBO       # sym  WBO       # sym  WBO
 ---------------------------------------------------------------------------
     1   8 O    1.950 --     2 C    1.619     8 N    0.108
     2   6 C    3.947 --     1 O    1.619     3 N    1.211     8 N    1.025
     3   7 N    3.022 --     4 C    1.436     2 C    1.211
     4   6 C    3.965 --     3 N    1.436    25 N    1.208     5 C    1.109
     5   6 C    3.979 --    22 N    1.573     4 C    1.109     6 C    1.001
     6   6 C    3.954 --     7 O    1.709     8 N    1.150     5 C    1.001
     7   8 O    2.048 --     6 C    1.709     8 N    0.166
     8   7 N    3.529 --     6 C    1.150     2 C    1.025     9 C    0.976
                             7 O    0.166     1 O    0.108
     9   6 C    3.958 --    10 C    0.995     8 N    0.976    36 H    0.964
                            37 H    0.963
    10   6 C    3.983 --    11 C    0.996     9 C    0.995    38 H    0.975
                            39 H    0.965
    11   6 C    3.944 --    10 C    0.996    12 N    0.968    41 H    0.964
                            40 H    0.957
    12   7 N    3.679 --    13 C    1.362    16 C    1.131    11 C    0.968
    13   6 C    3.954 --    14 N    1.378    12 N    1.362    42 H    0.952
    14   7 N    3.700 --    13 C    1.378    15 C    1.135    21 C    0.990
    15   6 C    3.956 --    20 C    1.338    16 C    1.272    14 N    1.135
    16   6 C    3.956 --    17 C    1.338    15 C    1.272    12 N    1.131
    17   6 C    3.988 --    18 C    1.496    16 C    1.338    43 H    0.963
                            20 C    0.119
    18   6 C    3.988 --    17 C    1.496    19 C    1.376    44 H    0.968
    19   6 C    3.988 --    20 C    1.494    18 C    1.376    45 H    0.966
    20   6 C    3.985 --    19 C    1.494    15 C    1.338    46 H    0.963
                            17 C    0.119
    21   6 C    3.935 --    14 N    0.990    49 H    0.976    47 H    0.970
                            48 H    0.955
    22   7 N    3.080 --     5 C    1.573    23 C    1.268
    23   6 C    3.969 --    35 C    1.281    22 N    1.268    24 C    1.219
    24   6 C    3.958 --    32 C    1.328    23 C    1.219    25 N    1.167
    25   7 N    3.665 --     4 C    1.208    24 C    1.167    26 C    0.967
    26   6 C    3.947 --    31 C    1.402    27 C    1.397    25 N    0.967
                            29 C    0.106
    27   6 C    3.987 --    28 C    1.442    26 C    1.397    50 H    0.968
                            30 C    0.111
    28   6 C    3.988 --    27 C    1.442    29 C    1.438    51 H    0.968
                            31 C    0.111
    29   6 C    3.986 --    30 C    1.439    28 C    1.438    52 H    0.969
                            26 C    0.106
    30   6 C    3.989 --    31 C    1.441    29 C    1.439    53 H    0.969
                            27 C    0.111
    31   6 C    3.989 --    30 C    1.441    26 C    1.402    54 H    0.963
                            28 C    0.111
    32   6 C    3.982 --    33 C    1.504    24 C    1.328    55 H    0.962
                            35 C    0.109
    33   6 C    3.972 --    32 C    1.504    34 C    1.345    56 H    0.967
    34   6 C    3.968 --    35 C    1.532    33 C    1.345    57 H    0.967
    35   6 C    3.977 --    34 C    1.532    23 C    1.281    58 H    0.962
                            32 C    0.109
    36   1 H    0.994 --     9 C    0.964
    37   1 H    0.994 --     9 C    0.963
    38   1 H    0.996 --    10 C    0.975
    39   1 H    0.990 --    10 C    0.965
    40   1 H    0.993 --    11 C    0.957
    41   1 H    0.992 --    11 C    0.964
    42   1 H    0.987 --    13 C    0.952
    43   1 H    0.996 --    17 C    0.963
    44   1 H    0.995 --    18 C    0.968
    45   1 H    0.994 --    19 C    0.966
    46   1 H    0.994 --    20 C    0.963
    47   1 H    0.990 --    21 C    0.970
    48   1 H    0.985 --    21 C    0.955
    49   1 H    0.991 --    21 C    0.976
    50   1 H    0.997 --    27 C    0.968
    51   1 H    0.995 --    28 C    0.968
    52   1 H    0.996 --    29 C    0.969
    53   1 H    0.996 --    30 C    0.969
    54   1 H    0.998 --    31 C    0.963
    55   1 H    0.997 --    32 C    0.962
    56   1 H    0.995 --    33 C    0.967
    57   1 H    0.994 --    34 C    0.967
    58   1 H    0.992 --    35 C    0.962
 ---------------------------------------------------------------------------

molecular dipole:
                 x           y           z       tot (Debye)
 q only:        6.614       0.747      -3.740
   full:        6.585       0.715      -3.552      19.103

           -------------------------------------------------
          | TOTAL ENERGY              -94.951376136242 Eh   |
          | GRADIENT NORM               0.000432419494 Eh/α |
          | HOMO-LUMO GAP               1.405102516050 eV   |
           -------------------------------------------------

 * finished run on 2024/12/20 at 06:43:55.650
