   * xtb version 6.7.1 (edcfbbe) compiled by 'conda@3ef47c1a292c' on 2024-11-25

   ID    Z sym.   atoms
    1    6 C      1-3, 5, 7-15
    2    7 N      4, 6, 16
    3    1 H      17-30

          program call               : xtb C0417.xyz --opt --namespace C0417 --charge +1
          :  Hamiltonian                  GFN2-xTB          :
 * total energy  :   -43.3065102 Eh     change       -0.9368577E-09 Eh
 * total energy  :   -43.3125189 Eh     change       -0.6008605E-02 Eh
 * total energy  :   -43.3134591 Eh     change       -0.9402964E-03 Eh
 * total energy  :   -43.3136036 Eh     change       -0.1444034E-03 Eh
 * total energy  :   -43.3138267 Eh     change       -0.2231252E-03 Eh
 * total energy  :   -43.3139380 Eh     change       -0.1113250E-03 Eh
 * total energy  :   -43.3140635 Eh     change       -0.1255214E-03 Eh
 * total energy  :   -43.3142495 Eh     change       -0.1859571E-03 Eh
 * total energy  :   -43.3143783 Eh     change       -0.1288153E-03 Eh
 * total energy  :   -43.3145333 Eh     change       -0.1549910E-03 Eh
 * total energy  :   -43.3148198 Eh     change       -0.8357233E-04 Eh
 * total energy  :   -43.3148848 Eh     change       -0.6503226E-04 Eh
 * total energy  :   -43.3149409 Eh     change       -0.5608284E-04 Eh
 * total energy  :   -43.3149819 Eh     change       -0.4101985E-04 Eh
 * total energy  :   -43.3149823 Eh     change       -0.4483725E-06 Eh
 * total energy  :   -43.3150002 Eh     change       -0.1783934E-04 Eh
 * total energy  :   -43.3150010 Eh     change       -0.7659333E-06 Eh
 * total energy  :   -43.3150053 Eh     change       -0.4384704E-05 Eh
 * total energy  :   -43.3150069 Eh     change       -0.1538756E-05 Eh
   *** GEOMETRY OPTIMIZATION CONVERGED AFTER 22 ITERATIONS ***

 final structure:
================
30
 xtb: 6.7.1 (edcfbbe)
C            0.65225231888987        0.55133211674058       -0.38836812533841
C            0.39254331926755       -0.53092851149084        0.31782387085891
C           -0.94831803823395       -0.80974108451921        0.94536755547175
N           -1.46497523854222       -2.08959136684704        0.50617372285573
C           -2.30954830644165       -2.28629282498152       -0.49436533596300
N           -2.54869015644673       -3.58418450183118       -0.68035346606046
C           -1.82100207968655       -4.28382390940716        0.26252261252254
C           -1.11663587540334       -3.32388749454891        1.01539865852279
C           -0.27089612821285       -3.69935599914719        2.05286360097070
C           -0.15855931527361       -5.04990821541706        2.30951482987955
C           -0.85981364499354       -6.00225946423189        1.56356827716340
C           -1.70078428770070       -5.64201834379629        0.53091251443432
C           -3.52637366658175       -4.13215091049512       -1.59124330500829
C           -4.89997285886642       -4.24356740512290       -0.90027716483220
C           -5.22594998981658       -2.97121748381530       -0.30206177181971
N           -5.36835326666161       -1.94127150264547        0.17023834238153
H           -0.08859190323523        1.31441679970949       -0.56072990371235
H            1.62719205153768        0.73048519269511       -0.80544266860464
H            1.14891991408016       -1.28358082107899        0.49070210840627
H           -0.85404412028450       -0.84191084749814        2.03482709693872
H           -1.66524900036019       -0.03216357845811        0.67607445560807
H           -2.75037035466344       -1.49927032713744       -1.07736784547498
H            0.27496410334224       -2.97215466755258        2.63106165125555
H            0.48723352124880       -5.38380611450826        3.10570227953661
H           -0.73858823130543       -7.04630878937284        1.80418946392404
H           -2.23471568228342       -6.38579780993506       -0.03774401776075
H           -3.59893439796655       -3.47169764873966       -2.45866665282836
H           -3.19137213728974       -5.11674890310171       -1.92253504146169
H           -5.66385667274235       -4.51375259457030       -1.63180907902601
H           -4.88287987537429       -5.00433298889423       -0.11515666283943

          :  Hamiltonian                  GFN2-xTB          :
         :: total energy             -43.315006876928 Eh    ::
         :: gradient norm              0.000561621953 Eh/a0 ::
         :: HOMO-LUMO gap              3.321855906527 eV    ::
         :: SCC energy               -44.088656320815 Eh    ::
         :: -> dispersion             -0.028898787095 Eh    ::
         :: repulsion energy           0.773649443887 Eh    ::

    * Orbital Energies and Occupations

         #    Occupation            Energy/Eh            Energy/eV
      -------------------------------------------------------------
         1        2.0000           -0.8867861             -24.1307
       ...           ...                  ...                  ...
        28        2.0000           -0.6288373             -17.1115
        29        2.0000           -0.6256502             -17.0248
        30        2.0000           -0.6156671             -16.7532
        31        2.0000           -0.6020327             -16.3821
        32        2.0000           -0.5938249             -16.1588
        33        2.0000           -0.5925110             -16.1230
        34        2.0000           -0.5865391             -15.9605
        35        2.0000           -0.5797172             -15.7749
        36        2.0000           -0.5663309             -15.4106
        37        2.0000           -0.5603943             -15.2491
        38        2.0000           -0.5539706             -15.0743
        39        2.0000           -0.5500606             -14.9679
        40        2.0000           -0.5437320             -14.7957 (HOMO)
        41                         -0.4216561             -11.4738 (LUMO)
        42                         -0.3714757             -10.1084
        43                         -0.3637422              -9.8979
        44                         -0.3413266              -9.2880
        45                         -0.3395638              -9.2400
        46                         -0.3330216              -9.0620
        47                         -0.2453524              -6.6764
        48                         -0.1834067              -4.9908
        49                         -0.1351001              -3.6763
        50                         -0.0783579              -2.1322
        51                         -0.0516677              -1.4059
       ...                                ...                  ...
        78                          1.0129682              27.5643
      -------------------------------------------------------------
                  HL-Gap            0.1220760 Eh            3.3219 eV

     #   Z          covCN         q      C6AA      α(0)
     1   6 C        2.837    -0.079    29.963     8.970
     2   6 C        2.886    -0.041    29.007     8.830
     3   6 C        3.746    -0.022    21.031     6.542
     4   7 N        2.829     0.043    20.490     6.723
     5   6 C        3.070     0.069    26.377     8.421
     6   7 N        2.829     0.023    20.838     6.780
     7   6 C        3.114     0.040    26.944     8.503
     8   6 C        3.122     0.042    26.891     8.493
     9   6 C        2.908    -0.030    28.737     8.790
    10   6 C        2.925    -0.017    28.431     8.744
    11   6 C        2.926    -0.016    28.422     8.743
    12   6 C        2.908    -0.034    28.834     8.805
    13   6 C        3.750    -0.009    20.806     6.505
    14   6 C        3.804    -0.065    21.743     6.638
    15   6 C        1.901     0.113    28.314     8.594
    16   7 N        0.911    -0.210    25.568     7.313
    17   1 H        0.926     0.067     2.117     2.275
    18   1 H        0.926     0.079     1.990     2.206
    19   1 H        0.926     0.057     2.231     2.336
    20   1 H        0.924     0.095     1.834     2.118
    21   1 H        0.924     0.090     1.883     2.146
    22   1 H        0.926     0.111     1.686     2.030
    23   1 H        0.926     0.076     2.019     2.222
    24   1 H        0.926     0.083     1.944     2.181
    25   1 H        0.926     0.083     1.953     2.186
    26   1 H        0.926     0.069     2.101     2.266
    27   1 H        0.924     0.086     1.913     2.163
    28   1 H        0.924     0.094     1.844     2.124
    29   1 H        0.924     0.108     1.716     2.049
    30   1 H        0.924     0.093     1.846     2.125

Wiberg/Mayer (AO) data.
largest (>0.10) Wiberg bond orders for each atom

     #   Z sym  total        # sym  WBO       # sym  WBO       # sym  WBO
 ---------------------------------------------------------------------------
     1   6 C    3.984 --     2 C    1.989    17 H    0.971    18 H    0.970
     2   6 C    3.981 --     1 C    1.989     3 C    0.994    19 H    0.963
     3   6 C    3.936 --     2 C    0.994    21 H    0.963     4 N    0.960
                            20 H    0.949
     4   7 N    3.693 --     5 C    1.390     8 C    1.126     3 C    0.960
                             6 N    0.101
     5   6 C    3.954 --     4 N    1.390     6 N    1.351    22 H    0.952
     6   7 N    3.668 --     5 C    1.351     7 C    1.122    13 C    0.979
                             4 N    0.101
     7   6 C    3.951 --    12 C    1.341     8 C    1.273     6 N    1.122
     8   6 C    3.953 --     9 C    1.338     7 C    1.273     4 N    1.126
     9   6 C    3.985 --    10 C    1.496     8 C    1.338    23 H    0.962
                            12 C    0.119
    10   6 C    3.985 --     9 C    1.496    11 C    1.377    24 H    0.965
    11   6 C    3.985 --    12 C    1.494    10 C    1.377    25 H    0.966
    12   6 C    3.986 --    11 C    1.494     7 C    1.341    26 H    0.963
                             9 C    0.119
    13   6 C    3.950 --     6 N    0.979    27 H    0.967    14 C    0.964
                            28 H    0.962
    14   6 C    3.988 --    15 C    1.051    13 C    0.964    30 H    0.943
                            29 H    0.938
    15   6 C    3.949 --    16 N    2.861    14 C    1.051
    16   7 N    3.017 --    15 C    2.861
    17   1 H    0.995 --     1 C    0.971
    18   1 H    0.993 --     1 C    0.970
    19   1 H    0.997 --     2 C    0.963
    20   1 H    0.990 --     3 C    0.949
    21   1 H    0.991 --     3 C    0.963
    22   1 H    0.987 --     5 C    0.952
    23   1 H    0.994 --     9 C    0.962
    24   1 H    0.993 --    10 C    0.965
    25   1 H    0.993 --    11 C    0.966
    26   1 H    0.995 --    12 C    0.963
    27   1 H    0.992 --    13 C    0.967
    28   1 H    0.991 --    13 C    0.962
    29   1 H    0.987 --    14 C    0.938
    30   1 H    0.991 --    14 C    0.943
 ---------------------------------------------------------------------------

molecular dipole:
                 x           y           z       tot (Debye)
 q only:       -3.135      -6.397      -0.059
   full:       -3.240      -6.715      -0.348      18.972

           -------------------------------------------------
          | TOTAL ENERGY              -43.315006876928 Eh   |
          | GRADIENT NORM               0.000561621953 Eh/α |
          | HOMO-LUMO GAP               3.321855906527 eV   |
           -------------------------------------------------

 * finished run on 2024/12/20 at 06:44:04.116
