   * xtb version 6.7.1 (edcfbbe) compiled by 'conda@3ef47c1a292c' on 2024-11-25

   ID    Z sym.   atoms
    1    6 C      1, 2, 4, 6
    2    8 O      3, 5
    3    7 N      7
    4    1 H      8-17

          program call               : xtb C0415.xyz --opt --namespace C0415 --charge +1
          :  Hamiltonian                  GFN2-xTB          :
 * total energy  :   -24.2718234 Eh     change       -0.2272245E-09 Eh
 * total energy  :   -24.2761796 Eh     change       -0.4356224E-02 Eh
 * total energy  :   -24.2768339 Eh     change       -0.6542774E-03 Eh
 * total energy  :   -24.2769776 Eh     change       -0.1436780E-03 Eh
 * total energy  :   -24.2770166 Eh     change       -0.3902321E-04 Eh
 * total energy  :   -24.2770350 Eh     change       -0.1839091E-04 Eh
 * total energy  :   -24.2770474 Eh     change       -0.1245544E-04 Eh
 * total energy  :   -24.2770817 Eh     change       -0.3425715E-04 Eh
 * total energy  :   -24.2771009 Eh     change       -0.1924452E-04 Eh
 * total energy  :   -24.2771183 Eh     change       -0.1732840E-04 Eh
 * total energy  :   -24.2771292 Eh     change       -0.1093144E-04 Eh
 * total energy  :   -24.2771353 Eh     change       -0.6119093E-05 Eh
 * total energy  :   -24.2771450 Eh     change       -0.9678002E-05 Eh
 * total energy  :   -24.2771487 Eh     change       -0.3761191E-05 Eh
   *** GEOMETRY OPTIMIZATION CONVERGED AFTER 14 ITERATIONS ***

 final structure:
================
17
 xtb: 6.7.1 (edcfbbe)
C            0.96090104201780       -0.10566549903856        0.04967152777495
C            0.52795713585041        0.72645331812499       -1.14222091169664
O            1.19708580882425        0.29235665115136       -2.35639179573475
C            2.41683968243088        0.76703238707432       -2.57997895217013
O            3.03657755420213        1.52531597325968       -1.90837211861293
C            2.95064849626039        0.21361111596915       -3.92557134476431
N            2.15554426270967       -0.95745734110194       -4.37444939348758
H            0.76126130631806       -1.16129506016441       -0.11891019190444
H            0.40296342260154        0.21619921737315        0.92322962814868
H            2.02043214419470        0.03455388715802        0.24907910018139
H           -0.53347547300708        0.60071509028545       -1.35902903100036
H            0.75845676311298        1.78213479556364       -0.98288530512197
H            2.87468667988972        1.02278227528246       -4.65583860398702
H            4.00523120967371       -0.03954204260484       -3.80883470551615
H            1.16998487377175       -0.77281772996295       -4.11388211727497
H            2.23535215055770       -1.11584136786177       -5.38688206943880
H            2.45123294059142       -1.81008567050771       -3.88044371539499

          :  Hamiltonian                  GFN2-xTB          :
         :: total energy             -24.277148747798 Eh    ::
         :: gradient norm              0.000902067555 Eh/a0 ::
         :: HOMO-LUMO gap              4.869422343707 eV    ::
         :: SCC energy               -24.541491467580 Eh    ::
         :: -> dispersion             -0.008394095182 Eh    ::
         :: repulsion energy           0.264342719783 Eh    ::

    * Orbital Energies and Occupations

         #    Occupation            Energy/Eh            Energy/eV
      -------------------------------------------------------------
         1        2.0000           -0.9222346             -25.0953
       ...           ...                  ...                  ...
         9        2.0000           -0.7669649             -20.8702
        10        2.0000           -0.7589496             -20.6521
        11        2.0000           -0.7270703             -19.7846
        12        2.0000           -0.7201313             -19.5958
        13        2.0000           -0.6957997             -18.9337
        14        2.0000           -0.6837011             -18.6045
        15        2.0000           -0.6694527             -18.2167
        16        2.0000           -0.6521387             -17.7456
        17        2.0000           -0.6360857             -17.3088
        18        2.0000           -0.5977818             -16.2665
        19        2.0000           -0.5936899             -16.1551
        20        2.0000           -0.5858096             -15.9407
        21        2.0000           -0.5749416             -15.6450 (HOMO)
        22                         -0.3959936             -10.7755 (LUMO)
        23                         -0.2746114              -7.4726
        24                         -0.1919553              -5.2234
        25                         -0.1602078              -4.3595
        26                         -0.1142814              -3.1098
        27                         -0.0921476              -2.5075
        28                         -0.0612811              -1.6675
        29                         -0.0149676              -0.4073
        30                         -0.0146625              -0.3990
        31                          0.0181183               0.4930
        32                          0.0282949               0.7699
       ...                                ...                  ...
        38                          0.5356827              14.5767
      -------------------------------------------------------------
                  HL-Gap            0.1789480 Eh            4.8694 eV

     #   Z          covCN         q      C6AA      α(0)
     1   6 C        3.751    -0.126    22.975     6.836
     2   6 C        3.692     0.066    19.642     6.341
     3   8 O        1.701    -0.276    18.579     5.819
     4   6 C        2.707     0.356    20.958     7.493
     5   8 O        0.856    -0.327    20.279     6.038
     6   6 C        3.728    -0.072    21.972     6.692
     7   7 N        3.483    -0.125    23.710     7.232
     8   1 H        0.925     0.060     2.194     2.317
     9   1 H        0.925     0.081     1.969     2.194
    10   1 H        0.925     0.071     2.080     2.255
    11   1 H        0.924     0.080     1.975     2.198
    12   1 H        0.924     0.082     1.958     2.188
    13   1 H        0.924     0.138     1.479     1.902
    14   1 H        0.924     0.138     1.472     1.897
    15   1 H        0.858     0.296     0.727     1.335
    16   1 H        0.859     0.279     0.781     1.384
    17   1 H        0.859     0.279     0.780     1.384

Wiberg/Mayer (AO) data.
largest (>0.10) Wiberg bond orders for each atom

     #   Z sym  total        # sym  WBO       # sym  WBO       # sym  WBO
 ---------------------------------------------------------------------------
     1   6 C    3.984 --     2 C    1.018     8 H    0.984    10 H    0.982
                             9 H    0.975
     2   6 C    3.888 --     1 C    1.018    11 H    0.969    12 H    0.969
                             3 O    0.890
     3   8 O    2.318 --     4 C    1.157     2 C    0.890     5 O    0.193
     4   6 C    3.945 --     5 O    1.814     3 O    1.157     6 C    0.926
     5   8 O    2.128 --     4 C    1.814     3 O    0.193
     6   6 C    3.896 --    14 H    0.955     7 N    0.954    13 H    0.948
                             4 C    0.926
     7   7 N    3.676 --     6 C    0.954    17 H    0.909    16 H    0.908
                            15 H    0.882
     8   1 H    0.996 --     1 C    0.984
     9   1 H    0.993 --     1 C    0.975
    10   1 H    0.995 --     1 C    0.982
    11   1 H    0.994 --     2 C    0.969
    12   1 H    0.993 --     2 C    0.969
    13   1 H    0.981 --     6 C    0.948
    14   1 H    0.981 --     6 C    0.955
    15   1 H    0.913 --     7 N    0.882
    16   1 H    0.922 --     7 N    0.908
    17   1 H    0.922 --     7 N    0.909
 ---------------------------------------------------------------------------

molecular dipole:
                 x           y           z       tot (Debye)
 q only:        3.424      -1.710      -7.500
   full:        3.300      -1.904      -7.727      21.897

           -------------------------------------------------
          | TOTAL ENERGY              -24.277148747798 Eh   |
          | GRADIENT NORM               0.000902067555 Eh/α |
          | HOMO-LUMO GAP               4.869422343707 eV   |
           -------------------------------------------------

 * finished run on 2024/12/20 at 06:44:00.776
