   * xtb version 6.7.1 (edcfbbe) compiled by 'conda@3ef47c1a292c' on 2024-11-25

   ID    Z sym.   atoms
    1    6 C      1, 2, 4-10, 12-15
    2    7 N      3
    3    8 O      11
    4    1 H      16-45

          program call               : xtb C0411.xyz --opt --namespace C0411 --charge +1
          :  Hamiltonian                  GFN2-xTB          :
 * total energy  :   -49.7203751 Eh     change       -0.2306138E-09 Eh
 * total energy  :   -49.7295697 Eh     change       -0.9194618E-02 Eh
 * total energy  :   -49.7321274 Eh     change       -0.2557766E-02 Eh
 * total energy  :   -49.7323787 Eh     change       -0.2512807E-03 Eh
 * total energy  :   -49.7325529 Eh     change       -0.1741405E-03 Eh
 * total energy  :   -49.7326117 Eh     change       -0.5885463E-04 Eh
 * total energy  :   -49.7326822 Eh     change       -0.7048073E-04 Eh
 * total energy  :   -49.7327297 Eh     change       -0.4745418E-04 Eh
 * total energy  :   -49.7327767 Eh     change       -0.4706786E-04 Eh
 * total energy  :   -49.7328096 Eh     change       -0.3288463E-04 Eh
 * total energy  :   -49.7331952 Eh     change       -0.2009503E-04 Eh
 * total energy  :   -49.7332116 Eh     change       -0.1634209E-04 Eh
 * total energy  :   -49.7332228 Eh     change       -0.1118783E-04 Eh
 * total energy  :   -49.7332328 Eh     change       -0.1005239E-04 Eh
 * total energy  :   -49.7332395 Eh     change       -0.6642351E-05 Eh
 * total energy  :   -49.7332493 Eh     change       -0.9856284E-05 Eh
 * total energy  :   -49.7332584 Eh     change       -0.9112939E-05 Eh
 * total energy  :   -49.7332636 Eh     change       -0.5212692E-05 Eh
 * total energy  :   -49.7332674 Eh     change       -0.3751080E-05 Eh
   *** GEOMETRY OPTIMIZATION CONVERGED AFTER 36 ITERATIONS ***

 final structure:
================
45
 xtb: 6.7.1 (edcfbbe)
C            1.29000938659272       -0.27489420378777        0.07580565798198
C            0.94975500574313        1.20672002665374        0.02207058164515
N            1.24741631112950        1.89783396105899       -1.27218367517315
C            0.70460177934216        1.18148164972812       -2.47388941359718
C           -0.82734478223526        1.01528087141371       -2.81874264790552
C           -1.36532776224914        2.19293882945015       -3.67302142596370
C           -1.20084792060983        2.21663753088130       -5.21556551064204
C           -2.19875440737233        1.26990268063926       -5.89418122630113
C           -1.55679460077409        3.64495182776174       -5.65675582981269
C            0.22503607667492        1.93265227663546       -5.70321629785528
O           -0.88253442491874       -0.22821622902401       -3.47806227259754
C           -1.74922005282472        0.82926156270616       -1.60774277118569
C            0.71817645177042        3.29421901662991       -1.23161923789307
C            1.27768270176527        4.19763683197512       -0.14192186924360
C            2.71541222704926        1.94181101515891       -1.45539003805754
H            0.68748296963594       -0.86885189281706       -0.60508996120653
H            1.07663333779676       -0.62358627754097        1.08347229247465
H            2.34158528198027       -0.46684756163733       -0.11652122246487
H           -0.10757254827416        1.34187696279134        0.24118113912539
H            1.52544536384083        1.71881632860869        0.79400855131333
H            1.16100595539532        1.66107766570497       -3.34066877234650
H            1.08821378961607        0.16100134165089       -2.42265037716583
H           -2.44046629464050        2.24851126828026       -3.49504494371155
H           -0.93725026018620        3.11671603146321       -3.28513912068308
H           -3.21603106345113        1.57328268705464       -5.65797631060876
H           -2.07832717749153        1.32023706114101       -6.97358232944613
H           -2.08775594636772        0.23204236344074       -5.59355049841894
H           -0.84085201911811        4.36832477404668       -5.27098936453956
H           -1.55331960835782        3.71390581389406       -6.74084081402306
H           -2.54691384034111        3.92283351175733       -5.30502597147960
H            0.92966628076143        2.65048023834793       -5.28418710132867
H            0.57206762794659        0.92446190811805       -5.48287374167516
H            0.25641777444369        2.04969711493929       -6.78398945454143
H           -0.62809322623365       -0.13210592973770       -4.40185581776215
H           -1.40417680281418        0.01313449338723       -0.98146294133946
H           -1.87822081008252        1.73738532501810       -1.02689848702272
H           -2.72386387656493        0.53588151247377       -1.99011983666030
H            0.93649625932775        3.74547049030426       -2.20205737762168
H           -0.36358144465292        3.23176933496763       -1.11430953052471
H            2.35001415223676        4.34293831700723       -0.22996660850302
H            0.80997207218837        5.17290689544481       -0.25436120560174
H            1.04265023235387        3.84216345882909        0.85661720653338
H            3.20001799740078        2.30573046340666       -0.55286932512721
H            3.09859738507863        0.94846920778958       -1.67555609712271
H            2.97239244948668        2.60105944397231       -2.28246600192599

          :  Hamiltonian                  GFN2-xTB          :
         :: total energy             -49.733267401051 Eh    ::
         :: gradient norm              0.000395912089 Eh/a0 ::
         :: HOMO-LUMO gap              7.811200729734 eV    ::
         :: SCC energy               -50.401772012930 Eh    ::
         :: -> dispersion             -0.038538443014 Eh    ::
         :: repulsion energy           0.668504611879 Eh    ::

    * Orbital Energies and Occupations

         #    Occupation            Energy/Eh            Energy/eV
      -------------------------------------------------------------
         1        2.0000           -0.8529785             -23.2107
       ...           ...                  ...                  ...
        34        2.0000           -0.5975827             -16.2611
        35        2.0000           -0.5919111             -16.1067
        36        2.0000           -0.5868208             -15.9682
        37        2.0000           -0.5773937             -15.7117
        38        2.0000           -0.5759344             -15.6720
        39        2.0000           -0.5729557             -15.5909
        40        2.0000           -0.5637646             -15.3408
        41        2.0000           -0.5517202             -15.0131
        42        2.0000           -0.5488593             -14.9352
        43        2.0000           -0.5407293             -14.7140
        44        2.0000           -0.5356964             -14.5770
        45        2.0000           -0.5352851             -14.5658
        46        2.0000           -0.5246461             -14.2763 (HOMO)
        47                         -0.2375897              -6.4651 (LUMO)
        48                         -0.1789090              -4.8684
        49                         -0.1534827              -4.1765
        50                         -0.1492892              -4.0624
        51                         -0.1158498              -3.1524
        52                         -0.0786192              -2.1393
        53                         -0.0772765              -2.1028
        54                         -0.0550511              -1.4980
        55                         -0.0452826              -1.2322
        56                         -0.0389231              -1.0592
        57                         -0.0387123              -1.0534
       ...                                ...                  ...
        90                          0.2542866               6.9195
      -------------------------------------------------------------
                  HL-Gap            0.2870563 Eh            7.8112 eV

     #   Z          covCN         q      C6AA      α(0)
     1   6 C        3.751    -0.129    23.032     6.844
     2   6 C        3.754    -0.036    21.266     6.576
     3   7 N        3.618     0.116    19.253     6.517
     4   6 C        3.757    -0.067    21.830     6.662
     5   6 C        3.765     0.146    18.262     6.091
     6   6 C        3.808    -0.101    22.429     6.742
     7   6 C        3.895     0.028    20.050     6.365
     8   6 C        3.760    -0.123    22.911     6.824
     9   6 C        3.767    -0.119    22.809     6.807
    10   6 C        3.758    -0.114    22.729     6.797
    11   8 O        1.659    -0.446    21.759     6.297
    12   6 C        3.756    -0.127    22.988     6.836
    13   6 C        3.758    -0.031    21.172     6.560
    14   6 C        3.751    -0.131    23.073     6.850
    15   6 C        3.727    -0.090    22.329     6.746
    16   1 H        0.925     0.073     2.050     2.239
    17   1 H        0.925     0.082     1.964     2.191
    18   1 H        0.925     0.063     2.168     2.303
    19   1 H        0.925     0.092     1.862     2.134
    20   1 H        0.924     0.084     1.938     2.177
    21   1 H        0.924     0.082     1.959     2.189
    22   1 H        0.924     0.097     1.815     2.107
    23   1 H        0.924     0.066     2.134     2.285
    24   1 H        0.925     0.035     2.511     2.478
    25   1 H        0.925     0.050     2.324     2.384
    26   1 H        0.925     0.050     2.323     2.383
    27   1 H        0.925     0.047     2.355     2.400
    28   1 H        0.925     0.033     2.542     2.493
    29   1 H        0.925     0.054     2.272     2.357
    30   1 H        0.925     0.046     2.376     2.411
    31   1 H        0.925     0.028     2.622     2.532
    32   1 H        0.925     0.026     2.637     2.539
    33   1 H        0.925     0.058     2.222     2.331
    34   1 H        0.805     0.310     0.691     1.306
    35   1 H        0.925     0.065     2.142     2.289
    36   1 H        0.925     0.036     2.501     2.473
    37   1 H        0.925     0.081     1.964     2.191
    38   1 H        0.924     0.080     1.979     2.200
    39   1 H        0.925     0.085     1.929     2.172
    40   1 H        0.925     0.067     2.119     2.277
    41   1 H        0.925     0.084     1.940     2.178
    42   1 H        0.925     0.065     2.141     2.288
    43   1 H        0.925     0.097     1.809     2.103
    44   1 H        0.925     0.097     1.813     2.106
    45   1 H        0.925     0.090     1.876     2.142

Wiberg/Mayer (AO) data.
largest (>0.10) Wiberg bond orders for each atom

     #   Z sym  total        # sym  WBO       # sym  WBO       # sym  WBO
 ---------------------------------------------------------------------------
     1   6 C    3.982 --     2 C    1.023    18 H    0.981    16 H    0.976
                            17 H    0.973
     2   6 C    3.933 --     1 C    1.023    20 H    0.964    19 H    0.961
                             3 N    0.927
     3   7 N    3.803 --    15 C    0.960    13 C    0.932     2 C    0.927
                             4 C    0.925
     4   6 C    3.914 --    22 H    0.961    21 H    0.961     5 C    0.946
                             3 N    0.925
     5   6 C    3.948 --    11 O    0.996    12 C    0.994     6 C    0.975
                             4 C    0.946
     6   6 C    3.987 --     7 C    0.979     5 C    0.975    23 H    0.969
                            24 H    0.969
     7   6 C    3.990 --     8 C    1.000    10 C    0.999     9 C    0.995
                             6 C    0.979
     8   6 C    3.992 --     7 C    1.000    26 H    0.984    25 H    0.983
                            27 H    0.975
     9   6 C    3.993 --     7 C    0.995    28 H    0.985    30 H    0.985
                            29 H    0.983
    10   6 C    3.994 --     7 C    0.999    31 H    0.981    33 H    0.981
                            32 H    0.976
    11   8 O    1.979 --     5 C    0.996    34 H    0.864
    12   6 C    3.987 --     5 C    0.994    36 H    0.977    35 H    0.977
                            37 H    0.976
    13   6 C    3.939 --    14 C    1.021    38 H    0.966    39 H    0.961
                             3 N    0.932
    14   6 C    3.982 --    13 C    1.021    40 H    0.981    42 H    0.981
                            41 H    0.973
    15   6 C    3.933 --    45 H    0.976    44 H    0.973    43 H    0.972
                             3 N    0.960
    16   1 H    0.995 --     1 C    0.976
    17   1 H    0.993 --     1 C    0.973
    18   1 H    0.996 --     1 C    0.981
    19   1 H    0.992 --     2 C    0.961
    20   1 H    0.993 --     2 C    0.964
    21   1 H    0.993 --     4 C    0.961
    22   1 H    0.990 --     4 C    0.961
    23   1 H    0.996 --     6 C    0.969
    24   1 H    0.999 --     6 C    0.969
    25   1 H    0.998 --     8 C    0.983
    26   1 H    0.997 --     8 C    0.984
    27   1 H    0.998 --     8 C    0.975
    28   1 H    0.999 --     9 C    0.985
    29   1 H    0.997 --     9 C    0.983
    30   1 H    0.998 --     9 C    0.985
    31   1 H    0.999 --    10 C    0.981
    32   1 H    0.999 --    10 C    0.976
    33   1 H    0.996 --    10 C    0.981
    34   1 H    0.904 --    11 O    0.864
    35   1 H    0.995 --    12 C    0.977
    36   1 H    0.999 --    12 C    0.977
    37   1 H    0.993 --    12 C    0.976
    38   1 H    0.993 --    13 C    0.966
    39   1 H    0.993 --    13 C    0.961
    40   1 H    0.995 --    14 C    0.981
    41   1 H    0.993 --    14 C    0.973
    42   1 H    0.996 --    14 C    0.981
    43   1 H    0.990 --    15 C    0.972
    44   1 H    0.991 --    15 C    0.973
    45   1 H    0.992 --    15 C    0.976
 ---------------------------------------------------------------------------

molecular dipole:
                 x           y           z       tot (Debye)
 q only:        1.910       3.928      -2.979
   full:        2.053       4.120      -3.131      14.149

           -------------------------------------------------
          | TOTAL ENERGY              -49.733267401051 Eh   |
          | GRADIENT NORM               0.000395912089 Eh/α |
          | HOMO-LUMO GAP               7.811200729734 eV   |
           -------------------------------------------------

 * finished run on 2024/12/20 at 06:43:50.146
