   * xtb version 6.7.1 (edcfbbe) compiled by 'conda@3ef47c1a292c' on 2024-11-25

   ID    Z sym.   atoms
    1    6 C      1, 3-8, 10, 11, 13, 14
    2    8 O      2
    3    7 N      9, 12
    4    1 H      15-27

          program call               : xtb C0410.xyz --opt --namespace C0410 --charge +1
          :  Hamiltonian                  GFN2-xTB          :
 * total energy  :   -39.7136932 Eh     change       -0.2114504E-09 Eh
 * total energy  :   -39.7187161 Eh     change       -0.5022923E-02 Eh
 * total energy  :   -39.7202990 Eh     change       -0.1582894E-02 Eh
 * total energy  :   -39.7205305 Eh     change       -0.2314798E-03 Eh
 * total energy  :   -39.7207498 Eh     change       -0.2193301E-03 Eh
 * total energy  :   -39.7208555 Eh     change       -0.1056688E-03 Eh
 * total energy  :   -39.7209635 Eh     change       -0.1080295E-03 Eh
 * total energy  :   -39.7210690 Eh     change       -0.1054600E-03 Eh
 * total energy  :   -39.7211767 Eh     change       -0.1076898E-03 Eh
 * total energy  :   -39.7212202 Eh     change       -0.4356771E-04 Eh
 * total energy  :   -39.7215869 Eh     change       -0.8324975E-05 Eh
 * total energy  :   -39.7216001 Eh     change       -0.1319632E-04 Eh
 * total energy  :   -39.7216109 Eh     change       -0.1075258E-04 Eh
 * total energy  :   -39.7216203 Eh     change       -0.9402263E-05 Eh
 * total energy  :   -39.7216260 Eh     change       -0.5731436E-05 Eh
 * total energy  :   -39.7216301 Eh     change       -0.4077229E-05 Eh
 * total energy  :   -39.7216381 Eh     change       -0.7970002E-05 Eh
 * total energy  :   -39.7216420 Eh     change       -0.3964034E-05 Eh
 * total energy  :   -39.7216453 Eh     change       -0.3321269E-05 Eh
   *** GEOMETRY OPTIMIZATION CONVERGED AFTER 42 ITERATIONS ***

 final structure:
================
27
 xtb: 6.7.1 (edcfbbe)
C            1.17386724408376        0.23465045840603        0.15105423736863
O            0.29661009971981       -0.46504128105762        1.01276216846708
C            0.76169662789135       -1.46257784530572        1.76732298630552
C           -0.17588704064440       -2.08577020951409        2.60682900184403
C            0.19210215958818       -3.12378072648077        3.42648418242444
C            1.51502667830253       -3.56786822793504        3.43275880952821
C            2.45329671617322       -2.95928390654785        2.60746979612609
C            2.08389144524619       -1.91807034327151        1.78037027516537
N            1.90038445698600       -4.63192634726808        4.27875447775612
C            3.10041866031678       -4.75462065056295        4.91867324381469
C            3.05963580048688       -5.90736038538268        5.64198306561181
N            1.83990493682314       -6.47462917051253        5.43660676091346
C            1.15456484030392       -5.68787921314379        4.60799692992668
C            1.38979891726146       -7.71540588396967        6.00677138720891
H            0.55965908518661        0.98591644559012       -0.34111076437555
H            1.60621919795962       -0.42962440318743       -0.60189521895678
H            1.97115195187827        0.72891441173551        0.71241954543282
H           -1.18969389591286       -1.72113212718128        2.59443525674617
H           -0.53687222406923       -3.57135816154307        4.08373243865507
H            3.47232831618388       -3.31356061741817        2.58826956398388
H            2.82880242680416       -1.46911041999688        1.14451666037385
H            3.87599768864944       -4.02157631738390        4.83804238604828
H            3.80066369341565       -6.34740321903287        6.27755228501186
H            0.16442069368658       -5.88333752411130        4.24664021117928
H            0.32779447743426       -7.84936751466412        5.81266556643697
H            1.93876908016772       -8.55208861899509        5.57030541321394
H            1.56039796607726       -7.71370820126542        7.08367933378900

          :  Hamiltonian                  GFN2-xTB          :
         :: total energy             -39.721645349657 Eh    ::
         :: gradient norm              0.000613291744 Eh/a0 ::
         :: HOMO-LUMO gap              2.690755774859 eV    ::
         :: SCC energy               -40.340973386363 Eh    ::
         :: -> dispersion             -0.022882884601 Eh    ::
         :: repulsion energy           0.619328036706 Eh    ::

    * Orbital Energies and Occupations

         #    Occupation            Energy/Eh            Energy/eV
      -------------------------------------------------------------
         1        2.0000           -0.8867162             -24.1288
       ...           ...                  ...                  ...
        24        2.0000           -0.6340413             -17.2531
        25        2.0000           -0.6221533             -16.9297
        26        2.0000           -0.6216266             -16.9153
        27        2.0000           -0.6132420             -16.6872
        28        2.0000           -0.6046011             -16.4520
        29        2.0000           -0.5984074             -16.2835
        30        2.0000           -0.5916258             -16.0990
        31        2.0000           -0.5796274             -15.7725
        32        2.0000           -0.5696559             -15.5011
        33        2.0000           -0.5673553             -15.4385
        34        2.0000           -0.5463098             -14.8658
        35        2.0000           -0.5408553             -14.7174
        36        2.0000           -0.5037538             -13.7078 (HOMO)
        37                         -0.4048704             -11.0171 (LUMO)
        38                         -0.3676426             -10.0041
        39                         -0.3562051              -9.6928
        40                         -0.3337079              -9.0807
        41                         -0.2214779              -6.0267
        42                         -0.1701819              -4.6309
        43                         -0.1168141              -3.1787
        44                         -0.0786167              -2.1393
        45                         -0.0428532              -1.1661
        46                         -0.0314980              -0.8571
        47                         -0.0136602              -0.3717
       ...                                ...                  ...
        69                          0.5470237              14.8853
      -------------------------------------------------------------
                  HL-Gap            0.0988835 Eh            2.6908 eV

     #   Z          covCN         q      C6AA      α(0)
     1   6 C        3.644     0.020    20.580     6.521
     2   8 O        1.706    -0.223    17.703     5.681
     3   6 C        2.864     0.164    24.460     8.107
     4   6 C        2.921    -0.046    29.138     8.852
     5   6 C        2.918    -0.037    28.925     8.819
     6   6 C        2.917     0.026    27.418     8.587
     7   6 C        2.919    -0.035    28.864     8.810
     8   6 C        2.917    -0.060    29.485     8.904
     9   7 N        2.869     0.070    20.012     6.644
    10   6 C        3.069    -0.007    28.113     8.694
    11   6 C        3.068    -0.009    28.176     8.704
    12   7 N        2.863     0.073    19.962     6.636
    13   6 C        3.095     0.042    26.947     8.508
    14   6 C        3.692    -0.085    22.310     6.759
    15   1 H        0.925     0.088     1.897     2.154
    16   1 H        0.924     0.059     2.210     2.325
    17   1 H        0.924     0.059     2.208     2.324
    18   1 H        0.926     0.084     1.941     2.179
    19   1 H        0.926     0.057     2.240     2.340
    20   1 H        0.926     0.060     2.200     2.319
    21   1 H        0.926     0.070     2.090     2.261
    22   1 H        0.927     0.106     1.734     2.059
    23   1 H        0.926     0.106     1.730     2.057
    24   1 H        0.926     0.109     1.703     2.041
    25   1 H        0.925     0.098     1.805     2.101
    26   1 H        0.924     0.105     1.742     2.064
    27   1 H        0.924     0.105     1.736     2.060

Wiberg/Mayer (AO) data.
largest (>0.10) Wiberg bond orders for each atom

     #   Z sym  total        # sym  WBO       # sym  WBO       # sym  WBO
 ---------------------------------------------------------------------------
     1   6 C    3.925 --    15 H    0.977    17 H    0.975    16 H    0.975
                             2 O    0.966
     2   8 O    2.307 --     3 C    1.142     1 C    0.966
     3   6 C    3.939 --     8 C    1.337     4 C    1.309     2 O    1.142
     4   6 C    3.985 --     5 C    1.505     3 C    1.309    18 H    0.963
     5   6 C    3.988 --     4 C    1.505     6 C    1.345    19 H    0.965
     6   6 C    3.926 --     7 C    1.376     5 C    1.345     9 N    1.001
     7   6 C    3.988 --     8 C    1.468     6 C    1.376    20 H    0.965
     8   6 C    3.986 --     7 C    1.468     3 C    1.337    21 H    0.963
     9   7 N    3.723 --    13 C    1.340    10 C    1.211     6 C    1.001
    10   6 C    3.945 --    11 C    1.592     9 N    1.211    22 H    0.961
    11   6 C    3.947 --    10 C    1.592    12 N    1.227    23 H    0.962
    12   7 N    3.710 --    13 C    1.349    11 C    1.227    14 C    0.992
    13   6 C    3.937 --    12 N    1.349     9 N    1.340    24 H    0.954
    14   6 C    3.935 --    12 N    0.992    25 H    0.976    27 H    0.966
                            26 H    0.961
    15   1 H    0.992 --     1 C    0.977
    16   1 H    0.996 --     1 C    0.975
    17   1 H    0.996 --     1 C    0.975
    18   1 H    0.992 --     4 C    0.963
    19   1 H    0.996 --     5 C    0.965
    20   1 H    0.996 --     7 C    0.965
    21   1 H    0.994 --     8 C    0.963
    22   1 H    0.988 --    10 C    0.961
    23   1 H    0.988 --    11 C    0.962
    24   1 H    0.988 --    13 C    0.954
    25   1 H    0.990 --    14 C    0.976
    26   1 H    0.988 --    14 C    0.961
    27   1 H    0.988 --    14 C    0.966
 ---------------------------------------------------------------------------

molecular dipole:
                 x           y           z       tot (Debye)
 q only:        3.459      -9.179       7.963
   full:        3.558      -9.261       7.966      32.339

           -------------------------------------------------
          | TOTAL ENERGY              -39.721645349657 Eh   |
          | GRADIENT NORM               0.000613291744 Eh/α |
          | HOMO-LUMO GAP               2.690755774859 eV   |
           -------------------------------------------------

 * finished run on 2024/12/20 at 06:43:48.502
