   * xtb version 6.7.1 (edcfbbe) compiled by 'conda@3ef47c1a292c' on 2024-11-25

   ID    Z sym.   atoms
    1    6 C      1-8, 10-12, 15-17
    2    7 N      9
    3    8 O      13, 14
    4    1 H      18-39

          program call               : xtb C0416.xyz --opt --namespace C0416 --charge +1
          :  Hamiltonian                  GFN2-xTB          :
 * total energy  :   -51.8761043 Eh     change       -0.5363248E-09 Eh
 * total energy  :   -51.8822092 Eh     change       -0.6104950E-02 Eh
 * total energy  :   -51.8836732 Eh     change       -0.1463963E-02 Eh
 * total energy  :   -51.8840634 Eh     change       -0.3901912E-03 Eh
 * total energy  :   -51.8843296 Eh     change       -0.2662047E-03 Eh
 * total energy  :   -51.8844578 Eh     change       -0.1282016E-03 Eh
 * total energy  :   -51.8846062 Eh     change       -0.1483866E-03 Eh
 * total energy  :   -51.8847582 Eh     change       -0.1519691E-03 Eh
 * total energy  :   -51.8849042 Eh     change       -0.1460441E-03 Eh
 * total energy  :   -51.8850620 Eh     change       -0.1578428E-03 Eh
 * total energy  :   -51.8885955 Eh     change       -0.8606476E-05 Eh
 * total energy  :   -51.8886040 Eh     change       -0.8519062E-05 Eh
 * total energy  :   -51.8886133 Eh     change       -0.9296175E-05 Eh
 * total energy  :   -51.8886244 Eh     change       -0.1117481E-04 Eh
 * total energy  :   -51.8886369 Eh     change       -0.1247860E-04 Eh
 * total energy  :   -51.8886480 Eh     change       -0.1104043E-04 Eh
 * total energy  :   -51.8886560 Eh     change       -0.8068559E-05 Eh
 * total energy  :   -51.8886613 Eh     change       -0.5310549E-05 Eh
 * total energy  :   -51.8886654 Eh     change       -0.4096886E-05 Eh
   *** GEOMETRY OPTIMIZATION CONVERGED AFTER 111 ITERATIONS ***

 final structure:
================
39
 xtb: 6.7.1 (edcfbbe)
C            2.09468518780467       -1.87239950885526       -0.04712556552477
C            1.01501200289354       -0.80206819417573        0.06142479634483
C            0.96568877032535        0.12909850726275       -1.14919873407628
C            0.48037026430529       -0.55149492942261       -2.44432944683568
C           -0.94249883395471       -0.97870901107335       -2.31389071654661
C           -1.30258983846093       -2.26388864512245       -1.89632349642958
C           -2.63702380404016       -2.58225406207837       -1.74070904669432
C           -3.63178203121006       -1.64492552089560       -1.99419074960640
N           -3.26324622640295       -0.40648915935719       -2.38257231648682
C           -1.96967481875392       -0.08467020187608       -2.54389015058339
C           -4.26928099746498        0.57720158988630       -2.70578176224313
C           -4.90570266557488        0.32594250370019       -4.09846761315672
O           -5.98242707586136        0.74455896147709       -4.39303125330415
O           -4.07719820589795       -0.36844179515825       -4.85927696808393
C           -4.51052842971674       -0.67141297734842       -6.20312916986487
C           -5.43389153760000       -1.87699527943565       -6.22837116661617
C           -5.07042136336206       -1.97952913187015       -1.83787679744506
H            1.91689595716453       -2.54637009354871       -0.88142290755140
H            2.12410189042354       -2.46573823511711        0.86243116574663
H            3.06999960998827       -1.41243554190766       -0.18242027819228
H            0.03884138087283       -1.27191903937550        0.21249474418741
H            1.22010429682972       -0.19314898210262        0.94340654247199
H            0.30921520108227        0.97358121060887       -0.92793308924842
H            1.96509190516320        0.52403805662308       -1.33211864689538
H            0.57938208853668        0.15932677241674       -3.26530789297564
H            1.11104253509799       -1.41311582543734       -2.65646756315801
H           -0.54181956374111       -3.00448710715094       -1.70492625429262
H           -2.92499839184460       -3.57164836424532       -1.42258334576868
H           -1.75522272320631        0.92241231475126       -2.86978492137798
H           -5.07010236825125        0.59168556907136       -1.96403390241942
H           -3.82157409132621        1.57359478639429       -2.73978169738516
H           -5.01453350540447        0.20745188581740       -6.61320392058748
H           -3.58623065307020       -0.86428816837343       -6.74877463362868
H           -6.35633371396162       -1.66178306019213       -5.69440670556030
H           -5.68232885874064       -2.11032003339462       -7.25888925960554
H           -4.94939135182727       -2.74227083215216       -5.78169651128803
H           -5.51275633478568       -1.42206431034244       -1.01064566214070
H           -5.63888173605850       -1.74295431533742       -2.73594277901586
H           -5.18800196998487       -3.03817983274206       -1.62563232416103

          :  Hamiltonian                  GFN2-xTB          :
         :: total energy             -51.888665444392 Eh    ::
         :: gradient norm              0.000372275921 Eh/a0 ::
         :: HOMO-LUMO gap              2.451365096542 eV    ::
         :: SCC energy               -52.626313345484 Eh    ::
         :: -> dispersion             -0.033259042873 Eh    ::
         :: repulsion energy           0.737647901093 Eh    ::

    * Orbital Energies and Occupations

         #    Occupation            Energy/Eh            Energy/eV
      -------------------------------------------------------------
         1        2.0000           -0.8905785             -24.2339
       ...           ...                  ...                  ...
        35        2.0000           -0.6054617             -16.4755
        36        2.0000           -0.6040527             -16.4371
        37        2.0000           -0.5932740             -16.1438
        38        2.0000           -0.5826992             -15.8561
        39        2.0000           -0.5809804             -15.8093
        40        2.0000           -0.5742320             -15.6256
        41        2.0000           -0.5724072             -15.5760
        42        2.0000           -0.5654774             -15.3874
        43        2.0000           -0.5647600             -15.3679
        44        2.0000           -0.5571430             -15.1606
        45        2.0000           -0.5441901             -14.8082
        46        2.0000           -0.5376597             -14.6305
        47        2.0000           -0.5324282             -14.4881 (HOMO)
        48                         -0.4423422             -12.0367 (LUMO)
        49                         -0.4074160             -11.0864
        50                         -0.3704382             -10.0801
        51                         -0.2933185              -7.9816
        52                         -0.1663692              -4.5271
        53                         -0.1484613              -4.0398
        54                         -0.0815106              -2.2180
        55                         -0.0475734              -1.2945
        56                         -0.0418900              -1.1399
        57                         -0.0352777              -0.9600
        58                         -0.0296545              -0.8069
       ...                                ...                  ...
        90                          0.5494295              14.9507
      -------------------------------------------------------------
                  HL-Gap            0.0900860 Eh            2.4514 eV

     #   Z          covCN         q      C6AA      α(0)
     1   6 C        3.752    -0.110    22.664     6.789
     2   6 C        3.800    -0.057    21.607     6.618
     3   6 C        3.803    -0.061    21.664     6.626
     4   6 C        3.808    -0.075    21.918     6.664
     5   6 C        2.965     0.042    27.060     8.533
     6   6 C        2.927    -0.003    28.094     8.692
     7   6 C        2.918    -0.029    28.729     8.789
     8   6 C        2.928     0.084    26.124     8.382
     9   7 N        2.751     0.091    19.670     6.587
    10   6 C        2.895     0.018    27.615     8.616
    11   6 C        3.760    -0.063    21.758     6.650
    12   6 C        2.711     0.362    20.852     7.475
    13   8 O        0.856    -0.354    20.774     6.111
    14   8 O        1.702    -0.263    18.363     5.786
    15   6 C        3.697     0.070    19.565     6.327
    16   6 C        3.750    -0.121    22.888     6.823
    17   6 C        3.758    -0.136    23.177     6.864
    18   1 H        0.925     0.033     2.546     2.495
    19   1 H        0.925     0.048     2.341     2.393
    20   1 H        0.925     0.050     2.325     2.385
    21   1 H        0.924     0.023     2.690     2.565
    22   1 H        0.924     0.051     2.311     2.377
    23   1 H        0.924     0.037     2.492     2.469
    24   1 H        0.925     0.066     2.127     2.281
    25   1 H        0.924     0.066     2.130     2.283
    26   1 H        0.925     0.078     1.998     2.211
    27   1 H        0.926     0.099     1.794     2.094
    28   1 H        0.926     0.096     1.819     2.109
    29   1 H        0.926     0.097     1.814     2.106
    30   1 H        0.924     0.119     1.623     1.992
    31   1 H        0.924     0.113     1.675     2.024
    32   1 H        0.924     0.075     2.027     2.226
    33   1 H        0.924     0.075     2.028     2.227
    34   1 H        0.925     0.065     2.140     2.288
    35   1 H        0.925     0.075     2.034     2.230
    36   1 H        0.925     0.056     2.250     2.346
    37   1 H        0.924     0.097     1.809     2.104
    38   1 H        0.925     0.091     1.866     2.136
    39   1 H        0.925     0.095     1.834     2.118

Wiberg/Mayer (AO) data.
largest (>0.10) Wiberg bond orders for each atom

     #   Z sym  total        # sym  WBO       # sym  WBO       # sym  WBO
 ---------------------------------------------------------------------------
     1   6 C    3.994 --     2 C    1.020    20 H    0.986    19 H    0.986
                            18 H    0.984
     2   6 C    3.996 --     1 C    1.020     3 C    1.010    22 H    0.974
                            21 H    0.974
     3   6 C    3.988 --     2 C    1.010    23 H    0.977    24 H    0.970
                             4 C    0.967
     4   6 C    3.985 --     5 C    1.027     3 C    0.967    25 H    0.965
                            26 H    0.964
     5   6 C    3.979 --    10 C    1.439     6 C    1.349     4 C    1.027
     6   6 C    3.972 --     7 C    1.463     5 C    1.349    27 H    0.960
     7   6 C    3.984 --     6 C    1.463     8 C    1.397    28 H    0.960
     8   6 C    3.957 --     7 C    1.397     9 N    1.281    17 C    1.050
     9   7 N    3.745 --    10 C    1.299     8 C    1.281    11 C    0.991
    10   6 C    3.957 --     5 C    1.439     9 N    1.299    29 H    0.954
    11   6 C    3.946 --     9 N    0.991    30 H    0.947    31 H    0.945
                            12 C    0.906
    12   6 C    3.938 --    13 O    1.787    14 O    1.173    11 C    0.906
    13   8 O    2.105 --    12 C    1.787    14 O    0.191
    14   8 O    2.326 --    12 C    1.173    15 C    0.905    13 O    0.191
    15   6 C    3.899 --    16 C    1.016    33 H    0.970    32 H    0.969
                            14 O    0.905
    16   6 C    3.987 --    15 C    1.016    36 H    0.985    34 H    0.983
                            35 H    0.978
    17   6 C    3.981 --     8 C    1.050    39 H    0.975    38 H    0.953
                            37 H    0.942
    18   1 H    0.999 --     1 C    0.984
    19   1 H    0.998 --     1 C    0.986
    20   1 H    0.997 --     1 C    0.986
    21   1 H    0.999 --     2 C    0.974
    22   1 H    0.997 --     2 C    0.974
    23   1 H    0.999 --     3 C    0.977
    24   1 H    0.994 --     3 C    0.970
    25   1 H    0.995 --     4 C    0.965
    26   1 H    0.993 --     4 C    0.964
    27   1 H    0.990 --     6 C    0.960
    28   1 H    0.990 --     7 C    0.960
    29   1 H    0.990 --    10 C    0.954
    30   1 H    0.986 --    11 C    0.947
    31   1 H    0.987 --    11 C    0.945
    32   1 H    0.994 --    15 C    0.969
    33   1 H    0.994 --    15 C    0.970
    34   1 H    0.996 --    16 C    0.983
    35   1 H    0.994 --    16 C    0.978
    36   1 H    0.997 --    16 C    0.985
    37   1 H    0.990 --    17 C    0.942
    38   1 H    0.991 --    17 C    0.953
    39   1 H    0.991 --    17 C    0.975
 ---------------------------------------------------------------------------

molecular dipole:
                 x           y           z       tot (Debye)
 q only:       -4.653      -2.238      -4.701
   full:       -4.620      -2.129      -4.694      17.593

           -------------------------------------------------
          | TOTAL ENERGY              -51.888665444392 Eh   |
          | GRADIENT NORM               0.000372275921 Eh/α |
          | HOMO-LUMO GAP               2.451365096542 eV   |
           -------------------------------------------------

 * finished run on 2024/12/20 at 06:44:03.235
