   * xtb version 6.7.1 (edcfbbe) compiled by 'conda@3ef47c1a292c' on 2024-11-25

   ID    Z sym.   atoms
    1    6 C      1-4, 6, 7, 10-15
    2    7 N      5
    3    8 O      8, 9
    4    1 H      16-41

          program call               : xtb C0414.xyz --opt --namespace C0414 --charge +1
          :  Hamiltonian                  GFN2-xTB          :
 * total energy  :   -49.6060618 Eh     change       -0.7146852E-09 Eh
 * total energy  :   -49.6175138 Eh     change       -0.1145202E-01 Eh
 * total energy  :   -49.6206649 Eh     change       -0.3151105E-02 Eh
 * total energy  :   -49.6211075 Eh     change       -0.4426551E-03 Eh
 * total energy  :   -49.6212893 Eh     change       -0.1817599E-03 Eh
 * total energy  :   -49.6215021 Eh     change       -0.2127557E-03 Eh
 * total energy  :   -49.6217066 Eh     change       -0.2045006E-03 Eh
 * total energy  :   -49.6219848 Eh     change       -0.2782572E-03 Eh
 * total energy  :   -49.6223284 Eh     change       -0.3436185E-03 Eh
 * total energy  :   -49.6226327 Eh     change       -0.3042326E-03 Eh
 * total energy  :   -49.6294537 Eh     change       -0.1288172E-04 Eh
 * total energy  :   -49.6294679 Eh     change       -0.1422221E-04 Eh
 * total energy  :   -49.6294767 Eh     change       -0.8807401E-05 Eh
 * total energy  :   -49.6294861 Eh     change       -0.9429392E-05 Eh
 * total energy  :   -49.6294921 Eh     change       -0.5962126E-05 Eh
 * total energy  :   -49.6294999 Eh     change       -0.7842915E-05 Eh
 * total energy  :   -49.6295005 Eh     change       -0.5073640E-06 Eh
 * total energy  :   -49.6295070 Eh     change       -0.6534565E-05 Eh
 * total energy  :   -49.6295099 Eh     change       -0.2940728E-05 Eh
   *** GEOMETRY OPTIMIZATION CONVERGED AFTER 89 ITERATIONS ***

 final structure:
================
41
 xtb: 6.7.1 (edcfbbe)
C            2.28612869393042        0.25490144794660       -0.27581698253100
C            1.17949468160736        1.18049425838767        0.21529944345833
C            0.78574830642592        2.23612828867929       -0.82551269284798
C            0.05421628106479        1.65830534590584       -2.04585284044483
N           -1.41371890147369        1.93126864098517       -2.13522229955390
C           -1.69150099534446        3.39179042898365       -2.06703837611483
C           -0.79187270020371        4.27505615036560       -2.95602429169185
O           -0.31521784722727        3.91650841434745       -3.99868976330079
O           -0.67688455983607        5.45720328574343       -2.40199510030419
C            0.09210768717426        6.46171100495325       -3.09835750075235
C            1.57575393469014        6.31108795065411       -2.80988536910875
C           -1.94689255159866        1.44324871655334       -3.46020205715935
C           -1.33860241005548        0.17608485096155       -4.04562484754722
C           -2.15360156540353        1.32025585992822       -0.98403764812285
C           -2.23397345264814       -0.19681124491420       -0.94498378206445
H            1.98432495129824       -0.31481836749443       -1.15178671490072
H            2.55359531476653       -0.45054224348187        0.50558738404768
H            3.17364932706878        0.82704251267257       -0.53268528172520
H            0.31173411694553        0.58856669996163        0.51179419080562
H            1.53555321857697        1.70115364063536        1.10525048739829
H            0.20113366492825        3.01434270435102       -0.33674017666569
H            1.70218017193742        2.71463623047515       -1.17464942814129
H            0.49356497166325        2.05055379224253       -2.96276860016412
H            0.17929259482950        0.57737511783122       -2.04957376215627
H           -2.72342739044115        3.56790462837767       -2.38607236244197
H           -1.59915531881603        3.75634430789892       -1.04352187816728
H           -0.10458122677229        6.37337655825736       -4.16989731136625
H           -0.29266787577837        7.40895373286614       -2.72055517415668
H            1.95226763120714        5.37772997514796       -3.22167802902374
H            2.11197113212455        7.13354359126280       -3.27255341986160
H            1.75919757968335        6.33275186048385       -1.73841981952494
H           -3.02373436367768        1.31457811009486       -3.33605123020099
H           -1.77048473977909        2.23922008480413       -4.18476435565054
H           -1.37578102471601       -0.67819476859458       -3.37982270195198
H           -1.91947368947624       -0.07321897985017       -4.93089139407883
H           -0.31459966702447        0.33277896757712       -4.36986585200997
H           -1.67009418724358        1.67286844826707       -0.07176341207771
H           -3.17061217715822        1.71886676187011       -1.00426631510228
H           -1.25598499416044       -0.66853620005321       -0.95265830192030
H           -2.71958112451071       -0.47286607233834       -0.01161349511609
H           -2.83778149653359       -0.59708449270056       -1.75303893768876

          :  Hamiltonian                  GFN2-xTB          :
         :: total energy             -49.629509926431 Eh    ::
         :: gradient norm              0.000739029420 Eh/a0 ::
         :: HOMO-LUMO gap              4.643623819130 eV    ::
         :: SCC energy               -50.260035184435 Eh    ::
         :: -> dispersion             -0.033247494984 Eh    ::
         :: repulsion energy           0.630525258004 Eh    ::

    * Orbital Energies and Occupations

         #    Occupation            Energy/Eh            Energy/eV
      -------------------------------------------------------------
         1        2.0000           -0.8890650             -24.1927
       ...           ...                  ...                  ...
        33        2.0000           -0.6100617             -16.6006
        34        2.0000           -0.6027647             -16.4021
        35        2.0000           -0.5995606             -16.3149
        36        2.0000           -0.5936773             -16.1548
        37        2.0000           -0.5884221             -16.0118
        38        2.0000           -0.5869817             -15.9726
        39        2.0000           -0.5774830             -15.7141
        40        2.0000           -0.5715705             -15.5532
        41        2.0000           -0.5650793             -15.3766
        42        2.0000           -0.5623557             -15.3025
        43        2.0000           -0.5564681             -15.1423
        44        2.0000           -0.5533404             -15.0572
        45        2.0000           -0.5471436             -14.8885 (HOMO)
        46                         -0.3764936             -10.2449 (LUMO)
        47                         -0.2382846              -6.4841
        48                         -0.1836118              -4.9963
        49                         -0.1604906              -4.3672
        50                         -0.1566512              -4.2627
        51                         -0.1193484              -3.2476
        52                         -0.0649624              -1.7677
        53                         -0.0581378              -1.5820
        54                         -0.0422730              -1.1503
        55                         -0.0393609              -1.0711
        56                         -0.0281138              -0.7650
       ...                                ...                  ...
        86                          0.5255480              14.3009
      -------------------------------------------------------------
                  HL-Gap            0.1706500 Eh            4.6436 eV

     #   Z          covCN         q      C6AA      α(0)
     1   6 C        3.752    -0.114    22.749     6.802
     2   6 C        3.799    -0.063    21.715     6.635
     3   6 C        3.800    -0.073    21.888     6.661
     4   6 C        3.749    -0.043    21.412     6.600
     5   7 N        3.617     0.110    19.347     6.533
     6   6 C        3.772    -0.064    21.770     6.649
     7   6 C        2.711     0.362    20.864     7.477
     8   8 O        0.856    -0.392    21.527     6.221
     9   8 O        1.703    -0.239    17.959     5.722
    10   6 C        3.697     0.069    19.589     6.331
    11   6 C        3.751    -0.121    22.890     6.823
    12   6 C        3.753    -0.036    21.276     6.577
    13   6 C        3.751    -0.130    23.063     6.849
    14   6 C        3.759    -0.030    21.156     6.557
    15   6 C        3.751    -0.125    22.958     6.833
    16   1 H        0.925     0.034     2.530     2.488
    17   1 H        0.925     0.056     2.248     2.344
    18   1 H        0.925     0.050     2.324     2.384
    19   1 H        0.924     0.038     2.478     2.461
    20   1 H        0.924     0.054     2.268     2.355
    21   1 H        0.925     0.044     2.392     2.419
    22   1 H        0.924     0.068     2.112     2.273
    23   1 H        0.925     0.096     1.826     2.113
    24   1 H        0.925     0.099     1.791     2.093
    25   1 H        0.924     0.103     1.758     2.074
    26   1 H        0.924     0.104     1.746     2.066
    27   1 H        0.924     0.074     2.043     2.235
    28   1 H        0.925     0.083     1.948     2.183
    29   1 H        0.925     0.062     2.176     2.307
    30   1 H        0.925     0.075     2.034     2.230
    31   1 H        0.925     0.063     2.160     2.299
    32   1 H        0.924     0.078     1.995     2.209
    33   1 H        0.924     0.105     1.743     2.065
    34   1 H        0.925     0.068     2.105     2.269
    35   1 H        0.925     0.084     1.939     2.177
    36   1 H        0.925     0.071     2.078     2.254
    37   1 H        0.924     0.087     1.911     2.162
    38   1 H        0.924     0.076     2.017     2.221
    39   1 H        0.925     0.067     2.115     2.274
    40   1 H        0.925     0.082     1.963     2.191
    41   1 H        0.925     0.070     2.085     2.258

Wiberg/Mayer (AO) data.
largest (>0.10) Wiberg bond orders for each atom

     #   Z sym  total        # sym  WBO       # sym  WBO       # sym  WBO
 ---------------------------------------------------------------------------
     1   6 C    3.993 --     2 C    1.021    18 H    0.986    17 H    0.984
                            16 H    0.984
     2   6 C    3.993 --     1 C    1.021     3 C    1.005    20 H    0.975
                            19 H    0.974
     3   6 C    3.987 --     2 C    1.005     4 C    1.003    22 H    0.971
                            21 H    0.967
     4   6 C    3.922 --     3 C    1.003    23 H    0.964    24 H    0.956
                             5 N    0.926
     5   7 N    3.797 --     6 C    0.957    14 C    0.928     4 C    0.926
                            12 C    0.916
     6   6 C    3.947 --     5 N    0.957    26 H    0.956    25 H    0.948
                             7 C    0.935
     7   6 C    3.937 --     8 O    1.737     9 O    1.209     6 C    0.935
     8   8 O    2.062 --     7 C    1.737     9 O    0.195
     9   8 O    2.362 --     7 C    1.209    10 C    0.902     8 O    0.195
    10   6 C    3.895 --    11 C    1.014    27 H    0.969    28 H    0.969
                             9 O    0.902
    11   6 C    3.986 --    10 C    1.014    31 H    0.984    29 H    0.984
                            30 H    0.978
    12   6 C    3.924 --    13 C    1.023    32 H    0.969    33 H    0.961
                             5 N    0.916
    13   6 C    3.981 --    12 C    1.023    36 H    0.982    34 H    0.977
                            35 H    0.971
    14   6 C    3.935 --    15 C    1.022    38 H    0.969    37 H    0.963
                             5 N    0.928
    15   6 C    3.981 --    14 C    1.022    41 H    0.980    39 H    0.977
                            40 H    0.972
    16   1 H    0.999 --     1 C    0.984
    17   1 H    0.997 --     1 C    0.984
    18   1 H    0.997 --     1 C    0.986
    19   1 H    0.999 --     2 C    0.974
    20   1 H    0.997 --     2 C    0.975
    21   1 H    0.998 --     3 C    0.967
    22   1 H    0.995 --     3 C    0.971
    23   1 H    0.991 --     4 C    0.964
    24   1 H    0.990 --     4 C    0.956
    25   1 H    0.989 --     6 C    0.948
    26   1 H    0.989 --     6 C    0.956
    27   1 H    0.995 --    10 C    0.969
    28   1 H    0.993 --    10 C    0.969
    29   1 H    0.996 --    11 C    0.984
    30   1 H    0.994 --    11 C    0.978
    31   1 H    0.996 --    11 C    0.984
    32   1 H    0.994 --    12 C    0.969
    33   1 H    0.989 --    12 C    0.961
    34   1 H    0.995 --    13 C    0.977
    35   1 H    0.993 --    13 C    0.971
    36   1 H    0.995 --    13 C    0.982
    37   1 H    0.992 --    14 C    0.963
    38   1 H    0.994 --    14 C    0.969
    39   1 H    0.995 --    15 C    0.977
    40   1 H    0.993 --    15 C    0.972
    41   1 H    0.995 --    15 C    0.980
 ---------------------------------------------------------------------------

molecular dipole:
                 x           y           z       tot (Debye)
 q only:       -2.021       4.183      -3.480
   full:       -2.272       4.350      -3.400      15.175

           -------------------------------------------------
          | TOTAL ENERGY              -49.629509926431 Eh   |
          | GRADIENT NORM               0.000739029420 Eh/α |
          | HOMO-LUMO GAP               4.643623819130 eV   |
           -------------------------------------------------

 * finished run on 2024/12/20 at 06:44:00.499
