   * xtb version 6.7.1 (edcfbbe) compiled by 'conda@3ef47c1a292c' on 2024-11-25

   ID    Z sym.   atoms
    1    6 C      1, 3, 4, 6-9, 11, 14-25
    2    7 N      2, 5, 13
    3   16 S      10, 12
    4    1 H      26-47

          program call               : xtb C0421.xyz --opt --namespace C0421 --charge +1
          :  Hamiltonian                  GFN2-xTB          :
 * total energy  :   -68.9195801 Eh     change       -0.1296598E-09 Eh
 * total energy  :   -68.9316387 Eh     change       -0.1205861E-01 Eh
 * total energy  :   -68.9368149 Eh     change       -0.5176171E-02 Eh
 * total energy  :   -68.9392955 Eh     change       -0.2480644E-02 Eh
 * total energy  :   -68.9411147 Eh     change       -0.1819216E-02 Eh
 * total energy  :   -68.9421883 Eh     change       -0.1073582E-02 Eh
 * total energy  :   -68.9429139 Eh     change       -0.7255440E-03 Eh
 * total energy  :   -68.9435364 Eh     change       -0.6225155E-03 Eh
 * total energy  :   -68.9440028 Eh     change       -0.4664492E-03 Eh
 * total energy  :   -68.9443137 Eh     change       -0.3108898E-03 Eh
 * total energy  :   -68.9491627 Eh     change       -0.9312559E-05 Eh
 * total energy  :   -68.9491709 Eh     change       -0.8222863E-05 Eh
 * total energy  :   -68.9491783 Eh     change       -0.7401108E-05 Eh
 * total energy  :   -68.9491853 Eh     change       -0.7001607E-05 Eh
 * total energy  :   -68.9491923 Eh     change       -0.6963690E-05 Eh
 * total energy  :   -68.9491995 Eh     change       -0.7183631E-05 Eh
 * total energy  :   -68.9492070 Eh     change       -0.7468495E-05 Eh
 * total energy  :   -68.9492146 Eh     change       -0.7630439E-05 Eh
 * total energy  :   -68.9492184 Eh     change       -0.3773322E-05 Eh
   *** GEOMETRY OPTIMIZATION CONVERGED AFTER 122 ITERATIONS ***

 final structure:
================
47
 xtb: 6.7.1 (edcfbbe)
C            0.90879475043623       -0.96842101944890       -0.63703549434284
N            0.34410253384292       -0.25943997360763       -1.75161837516185
C            0.61590853585219       -0.49935183019180       -3.06157034975107
C           -0.03774163065480        0.44772440568135       -3.78813279663903
N           -0.69731745834304        1.25338160622438       -2.91111504277522
C           -0.44627098896830        0.80656296919091       -1.68373038023079
C           -1.48780461123739        2.40331770691417       -3.29820052828684
C           -1.56203767047738        3.49865495009552       -2.23654565473408
C           -0.20693588618265        4.05194439061673       -1.81022667479136
S            0.77335845274880        4.69577657551607       -3.20728411083167
C            2.20777991921263        3.63682165748332       -3.18667556721072
S            2.31563938980997        2.28516022812445       -2.24541127018481
N            3.16671026653048        4.02852761777889       -4.02701563765892
C            3.21912810119702        5.34931790066973       -4.55933173364251
C            3.28743753544756        5.52520305403168       -5.93482842241875
C            3.38334564835917        6.80359643088308       -6.45416779546737
C            3.41695284598475        7.89941840807439       -5.60760624827810
C            3.36145080422399        7.71834442345442       -4.23538074391564
C            3.26728680199499        6.44505447405252       -3.70541300866418
C            4.22656241673652        3.16518210400937       -4.41885173329390
C            5.53492510805645        3.62689774819723       -4.35373516801360
C            6.56959813954810        2.80811075827949       -4.76745197621902
C            6.30384974137703        1.53679494614153       -5.24845207212499
C            4.99704164713466        1.08376395281831       -5.32013757926898
C            3.95516167274170        1.89466473819079       -4.90985308824375
H            0.96081748492243       -2.03256862839025       -0.86044242855941
H            0.30062156938264       -0.81395895142315        0.25156233504043
H            1.91798598116916       -0.59900361034264       -0.44329907592978
H            1.25116914577915       -1.29961812377875       -3.38117292074637
H           -0.07563476560064        0.59941656385148       -4.84741656020297
H           -0.82143318500387        1.22809945861862       -0.77274982706765
H           -1.03727821630822        2.81545766396189       -4.20516840541620
H           -2.50153844351625        2.06832144786679       -3.54163824882960
H           -2.15822785407186        4.30770985230713       -2.66177080968619
H           -2.08744670396027        3.14112041026055       -1.34896185678268
H           -0.35146977563576        4.88750810763877       -1.12706083013444
H            0.42585273927281        3.29608933641017       -1.33662170718274
H            3.26794558826710        4.66412598433973       -6.58626129603338
H            3.43437401819072        6.94215693976188       -7.52283388108444
H            3.49407008960278        8.89463631578117       -6.01644064054687
H            3.40223178600401        8.56879204863736       -3.57274905815321
H            3.24180234298187        6.29572013802454       -2.63590273083171
H            5.73453470510975        4.61883126534910       -3.97726174147058
H            7.58579121736107        3.16592181560781       -4.71208746944332
H            7.11337607242909        0.90092273828974       -5.57087637024060
H            4.78509639229461        0.09809822321422       -5.70559657292552
H            2.93328374596283        1.54910278076552       -4.97405845159129

          :  Hamiltonian                  GFN2-xTB          :
         :: total energy             -68.949218365023 Eh    ::
         :: gradient norm              0.000185030162 Eh/a0 ::
         :: HOMO-LUMO gap              2.008313476408 eV    ::
         :: SCC energy               -70.039282290221 Eh    ::
         :: -> dispersion             -0.059566661076 Eh    ::
         :: repulsion energy           1.090063925199 Eh    ::

    * Orbital Energies and Occupations

         #    Occupation            Energy/Eh            Energy/eV
      -------------------------------------------------------------
         1        2.0000           -0.8758826             -23.8340
       ...           ...                  ...                  ...
        52        2.0000           -0.5659680             -15.4008
        53        2.0000           -0.5507654             -14.9871
        54        2.0000           -0.5274913             -14.3538
        55        2.0000           -0.5247763             -14.2799
        56        2.0000           -0.5213399             -14.1864
        57        2.0000           -0.5172173             -14.0742
        58        2.0000           -0.5094450             -13.8627
        59        2.0000           -0.5039793             -13.7140
        60        2.0000           -0.5005172             -13.6198
        61        2.0000           -0.4986147             -13.5680
        62        2.0000           -0.4804784             -13.0745
        63        2.0000           -0.4693557             -12.7718
        64        2.0000           -0.4605309             -12.5317 (HOMO)
        65                         -0.3867268             -10.5234 (LUMO)
        66                         -0.3710724             -10.0974
        67                         -0.3517053              -9.5704
        68                         -0.3320610              -9.0358
        69                         -0.3199408              -8.7060
        70                         -0.3171834              -8.6310
        71                         -0.3096385              -8.4257
        72                         -0.2998200              -8.1585
        73                         -0.2705231              -7.3613
        74                         -0.2318385              -6.3086
        75                         -0.1907629              -5.1909
       ...                                ...                  ...
       132                          0.5782085              15.7339
      -------------------------------------------------------------
                  HL-Gap            0.0738042 Eh            2.0083 eV

     #   Z          covCN         q      C6AA      α(0)
     1   6 C        3.693    -0.085    22.319     6.759
     2   7 N        2.871     0.089    19.704     6.593
     3   6 C        3.074    -0.001    27.981     8.673
     4   6 C        3.082    -0.003    28.000     8.675
     5   7 N        2.867     0.076    19.915     6.628
     6   6 C        3.106     0.053    26.671     8.462
     7   6 C        3.741    -0.025    21.092     6.553
     8   6 C        3.824    -0.071    21.838     6.650
     9   6 C        3.794    -0.022    20.973     6.521
    10  16 S        2.166    -0.142   147.035    20.409
    11   6 C        2.885     0.164    24.463     8.109
    12  16 S        1.158    -0.456   159.461    21.351
    13   7 N        2.873    -0.038    21.977     6.963
    14   6 C        2.943     0.059    26.679     8.471
    15   6 C        2.921    -0.036    28.891     8.814
    16   6 C        2.921    -0.022    28.550     8.762
    17   6 C        2.920    -0.023    28.568     8.765
    18   6 C        2.921    -0.022    28.549     8.762
    19   6 C        2.921    -0.032    28.810     8.802
    20   6 C        2.935     0.069    26.455     8.435
    21   6 C        2.922    -0.034    28.850     8.808
    22   6 C        2.921    -0.021    28.529     8.759
    23   6 C        2.920    -0.024    28.596     8.769
    24   6 C        2.921    -0.024    28.614     8.772
    25   6 C        2.921    -0.031    28.771     8.796
    26   1 H        0.925     0.103     1.760     2.075
    27   1 H        0.925     0.096     1.818     2.109
    28   1 H        0.924     0.113     1.669     2.021
    29   1 H        0.926     0.107     1.724     2.054
    30   1 H        0.926     0.099     1.789     2.092
    31   1 H        0.926     0.112     1.679     2.026
    32   1 H        0.924     0.099     1.798     2.097
    33   1 H        0.924     0.088     1.902     2.157
    34   1 H        0.924     0.083     1.950     2.184
    35   1 H        0.924     0.062     2.176     2.307
    36   1 H        0.925     0.073     2.058     2.244
    37   1 H        0.925     0.081     1.969     2.194
    38   1 H        0.926     0.043     2.416     2.430
    39   1 H        0.926     0.055     2.263     2.353
    40   1 H        0.926     0.057     2.239     2.340
    41   1 H        0.926     0.055     2.253     2.347
    42   1 H        0.926     0.045     2.384     2.415
    43   1 H        0.926     0.046     2.368     2.406
    44   1 H        0.926     0.055     2.259     2.350
    45   1 H        0.926     0.054     2.271     2.357
    46   1 H        0.926     0.046     2.370     2.407
    47   1 H        0.926     0.031     2.566     2.505

Wiberg/Mayer (AO) data.
largest (>0.10) Wiberg bond orders for each atom

     #   Z sym  total        # sym  WBO       # sym  WBO       # sym  WBO
 ---------------------------------------------------------------------------
     1   6 C    3.935 --     2 N    0.991    27 H    0.975    26 H    0.970
                            28 H    0.956
     2   7 N    3.727 --     6 C    1.362     3 C    1.230     1 C    0.991
     3   6 C    3.950 --     4 C    1.591     2 N    1.230    29 H    0.962
     4   6 C    3.951 --     3 C    1.591     5 N    1.228    30 H    0.963
     5   7 N    3.718 --     6 C    1.360     4 C    1.228     7 C    0.969
     6   6 C    3.948 --     2 N    1.362     5 N    1.360    31 H    0.952
     7   6 C    3.944 --     8 C    1.004     5 N    0.969    32 H    0.959
                            33 H    0.953
     8   6 C    3.988 --     9 C    1.013     7 C    1.004    34 H    0.967
                            35 H    0.966
     9   6 C    3.967 --     8 C    1.013    10 S    0.991    36 H    0.969
                            37 H    0.942
    10  16 S    2.377 --    11 C    1.059     9 C    0.991    12 S    0.157
    11   6 C    3.950 --    12 S    1.460    13 N    1.322    10 S    1.059
    12  16 S    1.899 --    11 C    1.460    10 S    0.157    13 N    0.144
    13   7 N    3.597 --    11 C    1.322    20 C    0.990    14 C    0.980
                            12 S    0.144
    14   6 C    3.955 --    15 C    1.394    19 C    1.386    13 N    0.980
                            17 C    0.103
    15   6 C    3.990 --    16 C    1.445    14 C    1.394    38 H    0.968
                            18 C    0.109
    16   6 C    3.989 --    15 C    1.445    17 C    1.437    39 H    0.969
                            19 C    0.109
    17   6 C    3.984 --    16 C    1.437    18 C    1.435    40 H    0.969
                            14 C    0.103
    18   6 C    3.989 --    19 C    1.446    17 C    1.435    41 H    0.968
                            15 C    0.109
    19   6 C    3.989 --    18 C    1.446    14 C    1.386    42 H    0.968
                            16 C    0.109
    20   6 C    3.954 --    21 C    1.390    25 C    1.390    13 N    0.990
                            23 C    0.103
    21   6 C    3.990 --    22 C    1.446    20 C    1.390    43 H    0.967
                            24 C    0.109
    22   6 C    3.989 --    21 C    1.446    23 C    1.436    44 H    0.969
                            25 C    0.109
    23   6 C    3.987 --    22 C    1.436    24 C    1.436    45 H    0.970
                            20 C    0.103
    24   6 C    3.990 --    25 C    1.446    23 C    1.436    46 H    0.970
                            21 C    0.109
    25   6 C    3.990 --    24 C    1.446    20 C    1.390    47 H    0.969
                            22 C    0.109
    26   1 H    0.989 --     1 C    0.970
    27   1 H    0.990 --     1 C    0.975
    28   1 H    0.987 --     1 C    0.956
    29   1 H    0.988 --     3 C    0.962
    30   1 H    0.990 --     4 C    0.963
    31   1 H    0.987 --     6 C    0.952
    32   1 H    0.990 --     7 C    0.959
    33   1 H    0.992 --     7 C    0.953
    34   1 H    0.993 --     8 C    0.967
    35   1 H    0.996 --     8 C    0.966
    36   1 H    0.994 --     9 C    0.969
    37   1 H    0.993 --     9 C    0.942
    38   1 H    0.998 --    15 C    0.968
    39   1 H    0.996 --    16 C    0.969
    40   1 H    0.997 --    17 C    0.969
    41   1 H    0.996 --    18 C    0.968
    42   1 H    0.998 --    19 C    0.968
    43   1 H    0.998 --    21 C    0.967
    44   1 H    0.996 --    22 C    0.969
    45   1 H    0.997 --    23 C    0.970
    46   1 H    0.997 --    24 C    0.970
    47   1 H    0.999 --    25 C    0.969
 ---------------------------------------------------------------------------

molecular dipole:
                 x           y           z       tot (Debye)
 q only:        0.776       2.882      -5.683
   full:        0.966       3.079      -5.598      16.423

           -------------------------------------------------
          | TOTAL ENERGY              -68.949218365023 Eh   |
          | GRADIENT NORM               0.000185030162 Eh/α |
          | HOMO-LUMO GAP               2.008313476408 eV   |
           -------------------------------------------------

 * finished run on 2024/12/20 at 06:44:11.575
