   * xtb version 6.7.1 (edcfbbe) compiled by 'conda@3ef47c1a292c' on 2024-11-25

   ID    Z sym.   atoms
    1    6 C      1, 3, 4, 6-8
    2    7 N      2, 5
    3    9 F      9-12
    4    1 H      13-19

          program call               : xtb C0425.xyz --opt --namespace C0425 --charge +1
          :  Hamiltonian                  GFN2-xTB          :
 * total energy  :   -40.7713878 Eh     change       -0.1336744E-09 Eh
 * total energy  :   -40.7752819 Eh     change       -0.3894042E-02 Eh
 * total energy  :   -40.7764685 Eh     change       -0.1186641E-02 Eh
 * total energy  :   -40.7766909 Eh     change       -0.2223512E-03 Eh
 * total energy  :   -40.7769411 Eh     change       -0.2502732E-03 Eh
 * total energy  :   -40.7770698 Eh     change       -0.1286475E-03 Eh
 * total energy  :   -40.7772774 Eh     change       -0.2076539E-03 Eh
 * total energy  :   -40.7775024 Eh     change       -0.2249840E-03 Eh
 * total energy  :   -40.7776997 Eh     change       -0.1973047E-03 Eh
 * total energy  :   -40.7778566 Eh     change       -0.1568729E-03 Eh
 * total energy  :   -40.7840793 Eh     change       -0.5933320E-04 Eh
 * total energy  :   -40.7841286 Eh     change       -0.4928272E-04 Eh
 * total energy  :   -40.7842008 Eh     change       -0.7222395E-04 Eh
 * total energy  :   -40.7841929 Eh     change        0.7906538E-05 Eh
 * total energy  :   -40.7842615 Eh     change       -0.6853273E-04 Eh
 * total energy  :   -40.7842845 Eh     change       -0.2303125E-04 Eh
 * total energy  :   -40.7842846 Eh     change       -0.6994788E-07 Eh
 * total energy  :   -40.7843233 Eh     change       -0.3874568E-04 Eh
 * total energy  :   -40.7843279 Eh     change       -0.4585049E-05 Eh
   *** GEOMETRY OPTIMIZATION CONVERGED AFTER 59 ITERATIONS ***

 final structure:
================
19
 xtb: 6.7.1 (edcfbbe)
C            0.73153245012474        0.16738077538029       -0.11359246511876
N            0.52710059588993        0.97254470250503        1.05932781491848
C            0.32340053837153        0.48632662849137        2.31881089607771
C            0.16882529028602        1.54645484701670        3.15475023869664
N            0.27711724636328        2.66966069414782        2.37880249528263
C            0.49875355025395        2.29216685284088        1.10975001603741
C            0.25045475856343        4.04099088015111        2.84613178481693
C            1.70274692713644        4.58143627248031        3.03636762229564
F            2.33154336564693        3.78400992961102        3.90967140563878
F            2.33399196640058        4.46495970002191        1.85562193015416
F           -0.39818290199095        4.79021779058545        1.94510224601441
F           -0.42225792578853        4.09680488781758        3.99529687925674
H            0.96919420247658        0.80021019333359       -0.96571068721534
H           -0.16927259046037       -0.40704535915291       -0.33574429141646
H            1.55162388951840       -0.53144968483071        0.05396025277381
H            0.30242732770539       -0.56323637710602        2.53706009490719
H           -0.00795314917438        1.59284014647025        4.21137821471940
H            0.62576909045331        2.96920422835228        0.28470034861758
H            1.72373536822355        5.62493289188447        3.38083520354253

          :  Hamiltonian                  GFN2-xTB          :
         :: total energy             -40.784327883143 Eh    ::
         :: gradient norm              0.000540301135 Eh/a0 ::
         :: HOMO-LUMO gap              4.731107390683 eV    ::
         :: SCC energy               -41.123128322187 Eh    ::
         :: -> dispersion             -0.013996603493 Eh    ::
         :: repulsion energy           0.338800439044 Eh    ::

    * Orbital Energies and Occupations

         #    Occupation            Energy/Eh            Energy/eV
      -------------------------------------------------------------
         1        2.0000           -1.0487121             -28.5369
       ...           ...                  ...                  ...
        22        2.0000           -0.7160896             -19.4858
        23        2.0000           -0.7120946             -19.3771
        24        2.0000           -0.7068126             -19.2333
        25        2.0000           -0.7038293             -19.1522
        26        2.0000           -0.6989234             -19.0187
        27        2.0000           -0.6955481             -18.9268
        28        2.0000           -0.6890692             -18.7505
        29        2.0000           -0.6851141             -18.6429
        30        2.0000           -0.6744401             -18.3525
        31        2.0000           -0.6627701             -18.0349
        32        2.0000           -0.6505376             -17.7020
        33        2.0000           -0.6355391             -17.2939
        34        2.0000           -0.6250562             -17.0086 (HOMO)
        35                         -0.4511912             -12.2775 (LUMO)
        36                         -0.4074870             -11.0883
        37                         -0.2434727              -6.6252
        38                         -0.1967789              -5.3546
        39                         -0.1715006              -4.6668
        40                         -0.1552403              -4.2243
        41                         -0.1136936              -3.0938
        42                         -0.0890603              -2.4235
        43                         -0.0766370              -2.0854
        44                         -0.0617163              -1.6794
        45                         -0.0564799              -1.5369
       ...                                ...                  ...
        55                          0.4304819              11.7140
      -------------------------------------------------------------
                  HL-Gap            0.1738650 Eh            4.7311 eV

     #   Z          covCN         q      C6AA      α(0)
     1   6 C        3.693    -0.097    22.549     6.794
     2   7 N        2.866     0.109    19.372     6.537
     3   6 C        3.076    -0.001    27.965     8.670
     4   6 C        3.034     0.014    27.663     8.627
     5   7 N        2.886     0.022    20.855     6.783
     6   6 C        3.065     0.062    26.545     8.449
     7   6 C        3.459     0.384    16.762     6.170
     8   6 C        3.466     0.288    17.980     6.372
     9   9 F        0.788    -0.178    11.013     3.920
    10   9 F        0.788    -0.186    11.092     3.934
    11   9 F        0.790    -0.169    10.922     3.904
    12   9 F        0.790    -0.159    10.825     3.887
    13   1 H        0.925     0.113     1.669     2.020
    14   1 H        0.924     0.123     1.589     1.971
    15   1 H        0.924     0.123     1.587     1.970
    16   1 H        0.926     0.135     1.499     1.914
    17   1 H        0.926     0.139     1.470     1.896
    18   1 H        0.926     0.143     1.441     1.877
    19   1 H        0.923     0.135     1.495     1.912

Wiberg/Mayer (AO) data.
largest (>0.10) Wiberg bond orders for each atom

     #   Z sym  total        # sym  WBO       # sym  WBO       # sym  WBO
 ---------------------------------------------------------------------------
     1   6 C    3.918 --     2 N    0.986    13 H    0.973    15 H    0.957
                            14 H    0.954
     2   7 N    3.745 --     6 C    1.413     3 C    1.216     1 C    0.986
     3   6 C    3.944 --     4 C    1.613     2 N    1.216    16 H    0.955
     4   6 C    3.932 --     3 C    1.613     5 N    1.192    17 H    0.954
                             6 C    0.103
     5   7 N    3.665 --     6 C    1.302     4 C    1.192     7 C    0.951
     6   6 C    3.937 --     2 N    1.413     5 N    1.302    18 H    0.947
                             4 C    0.103
     7   6 C    3.889 --    12 F    0.985    11 F    0.974     5 N    0.951
                             8 C    0.902
     8   6 C    3.864 --     9 F    0.982    10 F    0.974    19 H    0.931
                             7 C    0.902
     9   9 F    1.085 --     8 C    0.982
    10   9 F    1.077 --     8 C    0.974
    11   9 F    1.100 --     7 C    0.974
    12   9 F    1.111 --     7 C    0.985
    13   1 H    0.987 --     1 C    0.973
    14   1 H    0.984 --     1 C    0.954
    15   1 H    0.984 --     1 C    0.957
    16   1 H    0.981 --     3 C    0.955
    17   1 H    0.980 --     4 C    0.954
    18   1 H    0.980 --     6 C    0.947
    19   1 H    0.981 --     8 C    0.931
 ---------------------------------------------------------------------------

molecular dipole:
                 x           y           z       tot (Debye)
 q only:        1.020       2.877       2.896
   full:        1.006       3.089       2.923      11.109

           -------------------------------------------------
          | TOTAL ENERGY              -40.784327883143 Eh   |
          | GRADIENT NORM               0.000540301135 Eh/α |
          | HOMO-LUMO GAP               4.731107390683 eV   |
           -------------------------------------------------

 * finished run on 2024/12/20 at 06:44:15.827
