   * xtb version 6.7.1 (edcfbbe) compiled by 'conda@3ef47c1a292c' on 2024-11-25

   ID    Z sym.   atoms
    1    6 C      1-3, 5, 7-15, 17-19
    2    7 N      4, 6
    3   14 Si     16
    4    1 H      20-44

          program call               : xtb C0422.xyz --opt --namespace C0422 --charge +1
          :  Hamiltonian                  GFN2-xTB          :
 * total energy  :   -54.1779959 Eh     change       -0.2615721E-08 Eh
 * total energy  :   -54.1853075 Eh     change       -0.7311577E-02 Eh
 * total energy  :   -54.1865938 Eh     change       -0.1286286E-02 Eh
 * total energy  :   -54.1869385 Eh     change       -0.3447805E-03 Eh
 * total energy  :   -54.1872730 Eh     change       -0.3344655E-03 Eh
 * total energy  :   -54.1875115 Eh     change       -0.2385229E-03 Eh
 * total energy  :   -54.1877207 Eh     change       -0.2091878E-03 Eh
 * total energy  :   -54.1879088 Eh     change       -0.1880300E-03 Eh
 * total energy  :   -54.1881023 Eh     change       -0.1935564E-03 Eh
 * total energy  :   -54.1883165 Eh     change       -0.2141479E-03 Eh
 * total energy  :   -54.1901404 Eh     change       -0.1346985E-04 Eh
 * total energy  :   -54.1901523 Eh     change       -0.1194845E-04 Eh
 * total energy  :   -54.1901606 Eh     change       -0.8253595E-05 Eh
 * total energy  :   -54.1901671 Eh     change       -0.6518298E-05 Eh
 * total energy  :   -54.1901735 Eh     change       -0.6399179E-05 Eh
 * total energy  :   -54.1901818 Eh     change       -0.8341416E-05 Eh
 * total energy  :   -54.1901933 Eh     change       -0.1146716E-04 Eh
 * total energy  :   -54.1902068 Eh     change       -0.1353943E-04 Eh
 * total energy  :   -54.1902106 Eh     change       -0.3757036E-05 Eh
   *** GEOMETRY OPTIMIZATION CONVERGED AFTER 44 ITERATIONS ***

 final structure:
================
44
 xtb: 6.7.1 (edcfbbe)
C            0.30869000054019       -0.72800138234175       -0.16078433747654
C           -0.16139762915063        0.50201694086055       -0.09620442544742
C           -1.62866147421615        0.83645708418721       -0.03930701320775
N           -1.91128080942426        1.70188719005244        1.08550158096895
C           -2.17609383790405        3.00418711482761        1.04348845996074
N           -2.33490978808385        3.50789711833986        2.26139500689166
C           -2.14428910698939        2.48416637950923        3.16592692252231
C           -1.87268324109769        1.32575503476441        2.41240059450068
C           -1.63251132165575        0.10196947293515        3.02535050266617
C           -1.67639442997710        0.07708999730406        4.40346330978884
C           -1.94915789389476        1.22587761184130        5.15316318666946
C           -2.18642546533802        2.44555928090354        4.55503541408973
C           -2.51835745052685        4.90213570184565        2.58460819443974
C           -1.16866530511539        5.56420881356298        2.88298703135034
C           -0.25659333046499        5.63732248626772        1.66156999686974
Si          -0.68044942260648        6.98353805007777        0.33806609256650
C           -0.76808532480826        8.66358013954333        1.22165829637356
C            0.71921211874138        6.91235781771956       -0.94717151212141
C           -2.33926458655704        6.64725977885732       -0.55747527110588
H           -0.33906080134450       -1.58905043992889       -0.17671146252825
H            1.36405632404813       -0.92473859982843       -0.22234513532168
H            0.50299895964120        1.35513211250348       -0.09281035900477
H           -1.92964346086503        1.35789832557158       -0.95243905032779
H           -2.22240484155915       -0.07591998513099        0.05817188298286
H           -2.27126007348754        3.57794128901984        0.14030808322041
H           -1.41635333032580       -0.78327864347781        2.45133990342241
H           -1.49556167821708       -0.85176896235591        4.92016377465541
H           -1.97235834102698        1.15308968351309        6.22869419408571
H           -2.39371626513829        3.32616283545629        5.14033347701130
H           -2.99494251631311        5.39375447752682        1.73743853461346
H           -3.17424816074051        4.96619935334147        3.45494485303002
H           -1.36283688713216        6.56933486317300        3.25402185014881
H           -0.67831216436689        5.00434071021252        3.68423045776243
H            0.74632534075175        5.87072320865869        2.01948283200793
H           -0.17552421070899        4.64800809010450        1.20496226102541
H            0.11194301009896        8.83622473009925        1.83398592050835
H           -0.82422545472942        9.47391898620307        0.50171514145592
H           -1.63924246786064        8.74682497372990        1.86515695018440
H            0.77395373989903        5.94699950527033       -1.44228809431508
H            0.57374815296477        7.66214391501241       -1.71806863738789
H            1.68648728747036        7.10031927380379       -0.49201244544055
H           -2.40008626681488        5.65158076080996       -0.98899330793054
H           -3.20706794191335        6.79712975073661        0.07856033202951
H           -2.43813965378644        7.34717515492158       -1.38147398620349

          :  Hamiltonian                  GFN2-xTB          :
         :: total energy             -54.190210581281 Eh    ::
         :: gradient norm              0.000198890480 Eh/a0 ::
         :: HOMO-LUMO gap              2.181051168360 eV    ::
         :: SCC energy               -55.086241594884 Eh    ::
         :: -> dispersion             -0.042197232470 Eh    ::
         :: repulsion energy           0.896031013604 Eh    ::

    * Orbital Energies and Occupations

         #    Occupation            Energy/Eh            Energy/eV
      -------------------------------------------------------------
         1        2.0000           -0.8739347             -23.7810
       ...           ...                  ...                  ...
        39        2.0000           -0.5620732             -15.2948
        40        2.0000           -0.5606008             -15.2547
        41        2.0000           -0.5587992             -15.2057
        42        2.0000           -0.5506094             -14.9828
        43        2.0000           -0.5480667             -14.9137
        44        2.0000           -0.5470542             -14.8861
        45        2.0000           -0.5453316             -14.8392
        46        2.0000           -0.5437079             -14.7950
        47        2.0000           -0.5402307             -14.7004
        48        2.0000           -0.5367889             -14.6068
        49        2.0000           -0.4944780             -13.4554
        50        2.0000           -0.4898153             -13.3286
        51        2.0000           -0.4884760             -13.2921 (HOMO)
        52                         -0.4083239             -11.1111 (LUMO)
        53                         -0.3590129              -9.7692
        54                         -0.3510412              -9.5523
        55                         -0.3371675              -9.1748
        56                         -0.2336170              -6.3570
        57                         -0.2326665              -6.3312
        58                         -0.2302750              -6.2661
        59                         -0.2205236              -6.0008
        60                         -0.1657473              -4.5102
        61                         -0.1272324              -3.4622
        62                         -0.1199340              -3.2636
       ...                                ...                  ...
       106                          0.5451915              14.8354
      -------------------------------------------------------------
                  HL-Gap            0.0801522 Eh            2.1811 eV

     #   Z          covCN         q      C6AA      α(0)
     1   6 C        2.837    -0.079    29.965     8.971
     2   6 C        2.887    -0.038    28.949     8.821
     3   6 C        3.745    -0.018    20.962     6.531
     4   7 N        2.829     0.030    20.726     6.762
     5   6 C        3.075     0.065    26.460     8.434
     6   7 N        2.828     0.038    20.572     6.736
     7   6 C        3.123     0.040    26.922     8.497
     8   6 C        3.121     0.040    26.932     8.499
     9   6 C        2.908    -0.033    28.817     8.802
    10   6 C        2.926    -0.018    28.467     8.750
    11   6 C        2.925    -0.019    28.474     8.751
    12   6 C        2.909    -0.032    28.804     8.800
    13   6 C        3.742    -0.026    21.119     6.556
    14   6 C        3.806    -0.068    21.800     6.647
    15   6 C        3.694    -0.172    24.053     7.017
    16  14 Si       3.495     0.484   101.165    19.474
    17   6 C        3.650    -0.211    25.069     7.192
    18   6 C        3.650    -0.213    25.095     7.196
    19   6 C        3.647    -0.210    25.059     7.193
    20   1 H        0.926     0.064     2.148     2.292
    21   1 H        0.926     0.077     2.015     2.220
    22   1 H        0.925     0.053     2.277     2.360
    23   1 H        0.924     0.082     1.963     2.191
    24   1 H        0.924     0.089     1.886     2.148
    25   1 H        0.926     0.105     1.739     2.062
    26   1 H        0.926     0.071     2.070     2.250
    27   1 H        0.926     0.079     1.993     2.208
    28   1 H        0.926     0.079     1.992     2.207
    29   1 H        0.926     0.071     2.075     2.252
    30   1 H        0.925     0.083     1.945     2.181
    31   1 H        0.924     0.080     1.984     2.203
    32   1 H        0.925     0.063     2.166     2.302
    33   1 H        0.924     0.045     2.379     2.412
    34   1 H        0.925     0.041     2.431     2.438
    35   1 H        0.924     0.009     2.913     2.669
    36   1 H        0.925     0.045     2.387     2.416
    37   1 H        0.925     0.048     2.345     2.395
    38   1 H        0.925     0.039     2.468     2.457
    39   1 H        0.925     0.036     2.502     2.474
    40   1 H        0.925     0.044     2.397     2.421
    41   1 H        0.925     0.043     2.411     2.428
    42   1 H        0.925     0.019     2.746     2.592
    43   1 H        0.925     0.029     2.595     2.519
    44   1 H        0.925     0.047     2.358     2.401

Wiberg/Mayer (AO) data.
largest (>0.10) Wiberg bond orders for each atom

     #   Z sym  total        # sym  WBO       # sym  WBO       # sym  WBO
 ---------------------------------------------------------------------------
     1   6 C    3.984 --     2 C    1.988    20 H    0.972    21 H    0.971
     2   6 C    3.982 --     1 C    1.988     3 C    0.997    22 H    0.964
     3   6 C    3.943 --     2 C    0.997     4 N    0.965    24 H    0.958
                            23 H    0.956
     4   7 N    3.678 --     5 C    1.362     8 C    1.127     3 C    0.965
                             6 N    0.102
     5   6 C    3.953 --     6 N    1.371     4 N    1.362    25 H    0.949
     6   7 N    3.686 --     5 C    1.371     7 C    1.130    13 C    0.970
                             4 N    0.102
     7   6 C    3.954 --    12 C    1.337     8 C    1.274     6 N    1.130
     8   6 C    3.953 --     9 C    1.338     7 C    1.274     4 N    1.127
     9   6 C    3.986 --    10 C    1.497     8 C    1.338    26 H    0.963
                            12 C    0.119
    10   6 C    3.986 --     9 C    1.497    11 C    1.376    27 H    0.966
    11   6 C    3.986 --    12 C    1.497    10 C    1.376    28 H    0.966
    12   6 C    3.986 --    11 C    1.497     7 C    1.337    29 H    0.963
                             9 C    0.119
    13   6 C    3.938 --    14 C    0.981     6 N    0.970    31 H    0.964
                            30 H    0.961
    14   6 C    3.983 --    15 C    1.025    13 C    0.981    33 H    0.974
                            32 H    0.971
    15   6 C    3.962 --    14 C    1.025    35 H    0.980    34 H    0.979
                            16 Si   0.839
    16  14 Si   3.620 --    17 C    0.911    18 C    0.906    19 C    0.888
                            15 C    0.839
    17   6 C    3.983 --    37 H    0.985    36 H    0.984    38 H    0.984
                            16 Si   0.911
    18   6 C    3.982 --    40 H    0.987    41 H    0.986    39 H    0.985
                            16 Si   0.906
    19   6 C    3.976 --    42 H    0.986    44 H    0.986    43 H    0.984
                            16 Si   0.888
    20   1 H    0.996 --     1 C    0.972
    21   1 H    0.992 --     1 C    0.971
    22   1 H    0.997 --     2 C    0.964
    23   1 H    0.993 --     3 C    0.956
    24   1 H    0.991 --     3 C    0.958
    25   1 H    0.988 --     5 C    0.949
    26   1 H    0.994 --     9 C    0.963
    27   1 H    0.993 --    10 C    0.966
    28   1 H    0.993 --    11 C    0.966
    29   1 H    0.994 --    12 C    0.963
    30   1 H    0.992 --    13 C    0.961
    31   1 H    0.993 --    13 C    0.964
    32   1 H    0.994 --    14 C    0.971
    33   1 H    0.998 --    14 C    0.974
    34   1 H    0.998 --    15 C    0.979
    35   1 H    1.000 --    15 C    0.980
    36   1 H    0.998 --    17 C    0.984
    37   1 H    0.998 --    17 C    0.985
    38   1 H    0.998 --    17 C    0.984
    39   1 H    0.999 --    18 C    0.985
    40   1 H    0.998 --    18 C    0.987
    41   1 H    0.998 --    18 C    0.986
    42   1 H    1.000 --    19 C    0.986
    43   1 H    0.999 --    19 C    0.984
    44   1 H    0.998 --    19 C    0.986
 ---------------------------------------------------------------------------

molecular dipole:
                 x           y           z       tot (Debye)
 q only:       -3.269       5.100       3.471
   full:       -3.353       5.219       3.329      17.893

           -------------------------------------------------
          | TOTAL ENERGY              -54.190210581281 Eh   |
          | GRADIENT NORM               0.000198890480 Eh/α |
          | HOMO-LUMO GAP               2.181051168360 eV   |
           -------------------------------------------------

 * finished run on 2024/12/20 at 06:44:13.521
