   * xtb version 6.7.1 (edcfbbe) compiled by 'conda@3ef47c1a292c' on 2024-11-25

   ID    Z sym.   atoms
    1    6 C      1-10, 12-14, 16, 17
    2    7 N      11
    3    8 O      15
    4    1 H      18-49

          program call               : xtb C0420.xyz --opt --namespace C0420 --charge +1
          :  Hamiltonian                  GFN2-xTB          :
 * total energy  :   -55.0332725 Eh     change       -0.2418403E-09 Eh
 * total energy  :   -55.0410510 Eh     change       -0.7778537E-02 Eh
 * total energy  :   -55.0428814 Eh     change       -0.1830354E-02 Eh
 * total energy  :   -55.0429776 Eh     change       -0.9618567E-04 Eh
 * total energy  :   -55.0430558 Eh     change       -0.7824439E-04 Eh
 * total energy  :   -55.0430946 Eh     change       -0.3873798E-04 Eh
 * total energy  :   -55.0431316 Eh     change       -0.3705088E-04 Eh
 * total energy  :   -55.0431500 Eh     change       -0.1841203E-04 Eh
 * total energy  :   -55.0431553 Eh     change       -0.5284503E-05 Eh
 * total energy  :   -55.0431627 Eh     change       -0.7368827E-05 Eh
 * total energy  :   -55.0431753 Eh     change       -0.7192542E-05 Eh
 * total energy  :   -55.0431862 Eh     change       -0.1088343E-04 Eh
 * total energy  :   -55.0431963 Eh     change       -0.1013260E-04 Eh
 * total energy  :   -55.0432031 Eh     change       -0.6851982E-05 Eh
 * total energy  :   -55.0432095 Eh     change       -0.6324872E-05 Eh
 * total energy  :   -55.0432174 Eh     change       -0.7926134E-05 Eh
 * total energy  :   -55.0432267 Eh     change       -0.9278497E-05 Eh
 * total energy  :   -55.0432329 Eh     change       -0.6269825E-05 Eh
 * total energy  :   -55.0432356 Eh     change       -0.2671962E-05 Eh
   *** GEOMETRY OPTIMIZATION CONVERGED AFTER 20 ITERATIONS ***

 final structure:
================
49
 xtb: 6.7.1 (edcfbbe)
C            0.91270094212825        0.52094712662028        0.43610808439216
C            0.98264597725086        0.79709954981488       -1.06097369352384
C            1.33067706305897       -0.44225177493467       -1.88704523096352
C            0.31870245647138       -1.58605156181358       -1.79176350922794
C           -1.09923306026993       -1.23532917068651       -2.24760236803996
C           -1.20860011219643       -0.73766683075120       -3.69055853054686
C           -0.66043599497919       -1.69811661758910       -4.74965036422197
C           -1.30796920878819       -3.08548054347701       -4.75398973375919
C           -2.82037387644635       -3.09267873987313       -4.99594374161756
C           -3.36018204292005       -2.44400430585685       -6.27370496245569
N           -3.07962299376703       -3.08242466359042       -7.60999210806075
C           -4.10276229460187       -2.56663629087313       -8.54364611807627
C           -1.72185063109925       -2.70513668958397       -8.09633771588667
C           -1.30907475882628       -3.47691672788994       -9.35731411032182
O           -1.39998660347943       -4.86207876082230       -9.15673965882459
C           -2.70882543829320       -5.24494541421087       -8.82577010782260
C           -3.14864919245477       -4.56609463624976       -7.52333426874311
H            0.07865822957326       -0.13247501668161        0.67968840983430
H            0.78145114851868        1.45124425962880        0.98318178023286
H            1.83146194464861        0.05043017633181        0.77888746361232
H            0.03411862457847        1.21927384377591       -1.39874098209521
H            1.75383884021710        1.54888880186877       -1.24354963490581
H            1.45102719934321       -0.14494353726860       -2.93148155835332
H            2.29712725357098       -0.82272894406750       -1.54824494844061
H            0.69525924718265       -2.42706191611985       -2.37901760743025
H            0.26417596353064       -1.92446239981616       -0.75627659970990
H           -1.73248247825826       -2.11569708369483       -2.11172714545934
H           -1.49953147396406       -0.45745393106875       -1.59625062200932
H           -2.25798191779919       -0.51248002426597       -3.89981936796180
H           -0.66139917938622        0.20140002803984       -3.78128879274150
H           -0.76460910448718       -1.22170230957968       -5.72858847741140
H            0.40791373845747       -1.83271138119072       -4.57919258356695
H           -0.78965558731202       -3.72622148891650       -5.47261927868662
H           -1.14491223364928       -3.54047928658985       -3.77663942411960
H           -3.19709220575825       -4.11150770503445       -4.89642570310502
H           -3.28124467370378       -2.52119203861228       -4.18744192807189
H           -4.44704826284474       -2.41590264021230       -6.17072283100662
H           -2.99967467371926       -1.41577005571111       -6.33381620248281
H           -5.08895162925954       -2.92701986256460       -8.25601232146719
H           -4.10518095488130       -1.47801232569637       -8.52023936586362
H           -3.90333681494355       -2.88796363686732       -9.56194863264058
H           -1.00788122069422       -2.93790580253230       -7.30754480818674
H           -1.69976120448971       -1.63300205946675       -8.29571803789783
H           -0.25962695915997       -3.26605031064864       -9.57147786879599
H           -1.90353885246033       -3.17173930148292      -10.23019000868848
H           -3.40150725937207       -5.03118152663900       -9.65138949849387
H           -2.68238438277626       -6.32512535429900       -8.67168379618089
H           -4.16294031579578       -4.86417137013238       -7.25602086477082
H           -2.45707103570010       -4.88827974872247       -6.74433062543250

          :  Hamiltonian                  GFN2-xTB          :
         :: total energy             -55.043235620530 Eh    ::
         :: gradient norm              0.000221223040 Eh/a0 ::
         :: HOMO-LUMO gap              6.512529717254 eV    ::
         :: SCC energy               -55.773294951192 Eh    ::
         :: -> dispersion             -0.040706589177 Eh    ::
         :: repulsion energy           0.730059330662 Eh    ::

    * Orbital Energies and Occupations

         #    Occupation            Energy/Eh            Energy/eV
      -------------------------------------------------------------
         1        2.0000           -0.8693591             -23.6565
       ...           ...                  ...                  ...
        39        2.0000           -0.5661457             -15.4056
        40        2.0000           -0.5615254             -15.2799
        41        2.0000           -0.5556679             -15.1205
        42        2.0000           -0.5547802             -15.0963
        43        2.0000           -0.5460132             -14.8578
        44        2.0000           -0.5386472             -14.6573
        45        2.0000           -0.5322882             -14.4843
        46        2.0000           -0.5198327             -14.1454
        47        2.0000           -0.5131890             -13.9646
        48        2.0000           -0.5095457             -13.8654
        49        2.0000           -0.4913048             -13.3691
        50        2.0000           -0.4876220             -13.2689
        51        2.0000           -0.4841036             -13.1731 (HOMO)
        52                         -0.2447725              -6.6606 (LUMO)
        53                         -0.1709862              -4.6528
        54                         -0.1690123              -4.5991
        55                         -0.1552354              -4.2242
        56                         -0.1093956              -2.9768
        57                         -0.0853954              -2.3237
        58                         -0.0779970              -2.1224
        59                         -0.0738427              -2.0094
        60                         -0.0500621              -1.3623
        61                         -0.0369669              -1.0059
        62                         -0.0276546              -0.7525
       ...                                ...                  ...
       100                          0.2398327               6.5262
      -------------------------------------------------------------
                  HL-Gap            0.2393311 Eh            6.5125 eV

     #   Z          covCN         q      C6AA      α(0)
     1   6 C        3.751    -0.104    22.550     6.772
     2   6 C        3.799    -0.053    21.533     6.607
     3   6 C        3.800    -0.059    21.634     6.622
     4   6 C        3.800    -0.060    21.652     6.625
     5   6 C        3.800    -0.060    21.660     6.626
     6   6 C        3.800    -0.062    21.683     6.630
     7   6 C        3.800    -0.064    21.734     6.638
     8   6 C        3.799    -0.067    21.789     6.646
     9   6 C        3.799    -0.076    21.953     6.671
    10   6 C        3.758    -0.043    21.387     6.593
    11   7 N        3.620     0.122    19.155     6.500
    12   6 C        3.720    -0.094    22.407     6.761
    13   6 C        3.760    -0.045    21.433     6.600
    14   6 C        3.719     0.064    19.616     6.326
    15   8 O        1.702    -0.284    18.716     5.841
    16   6 C        3.719     0.064    19.623     6.327
    17   6 C        3.758    -0.043    21.399     6.595
    18   1 H        0.925     0.034     2.533     2.489
    19   1 H        0.925     0.037     2.490     2.468
    20   1 H        0.925     0.038     2.479     2.462
    21   1 H        0.924     0.028     2.611     2.527
    22   1 H        0.924     0.032     2.558     2.501
    23   1 H        0.924     0.025     2.662     2.552
    24   1 H        0.924     0.035     2.510     2.478
    25   1 H        0.924     0.025     2.658     2.549
    26   1 H        0.924     0.042     2.429     2.437
    27   1 H        0.924     0.024     2.673     2.557
    28   1 H        0.924     0.044     2.400     2.423
    29   1 H        0.924     0.021     2.725     2.582
    30   1 H        0.924     0.047     2.362     2.404
    31   1 H        0.924     0.016     2.799     2.616
    32   1 H        0.925     0.054     2.274     2.358
    33   1 H        0.924     0.026     2.643     2.543
    34   1 H        0.924     0.066     2.127     2.281
    35   1 H        0.924     0.052     2.291     2.367
    36   1 H        0.924     0.083     1.945     2.181
    37   1 H        0.924     0.082     1.959     2.189
    38   1 H        0.924     0.088     1.896     2.153
    39   1 H        0.925     0.095     1.832     2.117
    40   1 H        0.925     0.096     1.822     2.111
    41   1 H        0.925     0.099     1.789     2.092
    42   1 H        0.925     0.109     1.705     2.042
    43   1 H        0.924     0.083     1.947     2.182
    44   1 H        0.924     0.097     1.813     2.106
    45   1 H        0.923     0.049     2.337     2.391
    46   1 H        0.923     0.050     2.315     2.379
    47   1 H        0.924     0.097     1.814     2.106
    48   1 H        0.924     0.085     1.928     2.171
    49   1 H        0.924     0.106     1.734     2.059

Wiberg/Mayer (AO) data.
largest (>0.10) Wiberg bond orders for each atom

     #   Z sym  total        # sym  WBO       # sym  WBO       # sym  WBO
 ---------------------------------------------------------------------------
     1   6 C    3.996 --     2 C    1.020    20 H    0.987    19 H    0.987
                            18 H    0.986
     2   6 C    3.998 --     1 C    1.020     3 C    1.008    22 H    0.978
                            21 H    0.976
     3   6 C    3.997 --     2 C    1.008     4 C    1.008    24 H    0.976
                            23 H    0.976
     4   6 C    3.997 --     5 C    1.008     3 C    1.008    25 H    0.975
                            26 H    0.974
     5   6 C    3.996 --     4 C    1.008     6 C    1.007    27 H    0.975
                            28 H    0.973
     6   6 C    3.996 --     5 C    1.007     7 C    1.007    29 H    0.975
                            30 H    0.973
     7   6 C    3.995 --     8 C    1.007     6 C    1.007    31 H    0.974
                            32 H    0.972
     8   6 C    3.991 --     7 C    1.007     9 C    1.005    34 H    0.968
                            33 H    0.967
     9   6 C    3.982 --    10 C    1.006     8 C    1.005    35 H    0.970
                            36 H    0.957
    10   6 C    3.924 --     9 C    1.006    37 H    0.968    38 H    0.964
                            11 N    0.913
    11   7 N    3.806 --    12 C    0.961    17 C    0.939    13 C    0.937
                            10 C    0.913
    12   6 C    3.931 --    40 H    0.975    39 H    0.975    41 H    0.966
                            11 N    0.961
    13   6 C    3.935 --    14 C    0.994    43 H    0.968    42 H    0.954
                            11 N    0.937
    14   6 C    3.952 --    15 O    0.998    13 C    0.994    45 H    0.960
                            44 H    0.959
    15   8 O    2.104 --    14 C    0.998    16 C    0.997
    16   6 C    3.952 --    15 O    0.997    17 C    0.994    46 H    0.961
                            47 H    0.960
    17   6 C    3.937 --    16 C    0.994    48 H    0.969    49 H    0.959
                            11 N    0.939
    18   1 H    0.999 --     1 C    0.986
    19   1 H    0.999 --     1 C    0.987
    20   1 H    0.999 --     1 C    0.987
    21   1 H    0.999 --     2 C    0.976
    22   1 H    0.999 --     2 C    0.978
    23   1 H    0.999 --     3 C    0.976
    24   1 H    0.999 --     3 C    0.976
    25   1 H    0.999 --     4 C    0.975
    26   1 H    0.998 --     4 C    0.974
    27   1 H    0.999 --     5 C    0.975
    28   1 H    0.998 --     5 C    0.973
    29   1 H    1.000 --     6 C    0.975
    30   1 H    0.998 --     6 C    0.973
    31   1 H    1.000 --     7 C    0.974
    32   1 H    0.997 --     7 C    0.972
    33   1 H    0.999 --     8 C    0.967
    34   1 H    0.995 --     8 C    0.968
    35   1 H    0.997 --     9 C    0.970
    36   1 H    0.992 --     9 C    0.957
    37   1 H    0.993 --    10 C    0.968
    38   1 H    0.992 --    10 C    0.964
    39   1 H    0.991 --    12 C    0.975
    40   1 H    0.991 --    12 C    0.975
    41   1 H    0.990 --    12 C    0.966
    42   1 H    0.988 --    13 C    0.954
    43   1 H    0.993 --    13 C    0.968
    44   1 H    0.990 --    14 C    0.959
    45   1 H    0.997 --    14 C    0.960
    46   1 H    0.997 --    16 C    0.961
    47   1 H    0.990 --    16 C    0.960
    48   1 H    0.993 --    17 C    0.969
    49   1 H    0.989 --    17 C    0.959
 ---------------------------------------------------------------------------

molecular dipole:
                 x           y           z       tot (Debye)
 q only:       -5.611      -5.538     -13.682
   full:       -5.849      -5.402     -13.746      40.377

           -------------------------------------------------
          | TOTAL ENERGY              -55.043235620530 Eh   |
          | GRADIENT NORM               0.000221223040 Eh/α |
          | HOMO-LUMO GAP               6.512529717254 eV   |
           -------------------------------------------------

 * finished run on 2024/12/20 at 06:44:07.117
