   * xtb version 6.7.1 (edcfbbe) compiled by 'conda@3ef47c1a292c' on 2024-11-25

   ID    Z sym.   atoms
    1    8 O      1, 21, 22
    2    6 C      2-9, 11, 12, 14-19, 23
    3    7 N      10, 13, 20
    4    1 H      24-39

          program call               : xtb C0429.xyz --opt --namespace C0429 --charge +1
          :  Hamiltonian                  GFN2-xTB          :
 * total energy  :   -65.0475099 Eh     change       -0.6744756E-09 Eh
 * total energy  :   -65.0581251 Eh     change       -0.1061516E-01 Eh
 * total energy  :   -65.0603016 Eh     change       -0.2176503E-02 Eh
 * total energy  :   -65.0606157 Eh     change       -0.3141054E-03 Eh
 * total energy  :   -65.0609968 Eh     change       -0.3811313E-03 Eh
 * total energy  :   -65.0612500 Eh     change       -0.2531319E-03 Eh
 * total energy  :   -65.0617118 Eh     change       -0.4618684E-03 Eh
 * total energy  :   -65.0621657 Eh     change       -0.4538669E-03 Eh
 * total energy  :   -65.0626864 Eh     change       -0.5207352E-03 Eh
 * total energy  :   -65.0632155 Eh     change       -0.5291139E-03 Eh
 * total energy  :   -65.0694272 Eh     change       -0.8247486E-05 Eh
 * total energy  :   -65.0694342 Eh     change       -0.6969143E-05 Eh
 * total energy  :   -65.0694402 Eh     change       -0.5972742E-05 Eh
 * total energy  :   -65.0694457 Eh     change       -0.5552608E-05 Eh
 * total energy  :   -65.0694515 Eh     change       -0.5753158E-05 Eh
 * total energy  :   -65.0694576 Eh     change       -0.6098920E-05 Eh
 * total energy  :   -65.0694638 Eh     change       -0.6183614E-05 Eh
 * total energy  :   -65.0694696 Eh     change       -0.5838647E-05 Eh
 * total energy  :   -65.0694746 Eh     change       -0.4955430E-05 Eh
   *** GEOMETRY OPTIMIZATION CONVERGED AFTER 63 ITERATIONS ***

 final structure:
================
39
 xtb: 6.7.1 (edcfbbe)
O            2.34749425353737       -2.67049075976410       -0.11289464036577
C            2.72853995013316       -1.52139257734699       -0.13126727343760
C            2.58705021139448       -0.57851925085201        0.97100079797075
C            3.10030712447725        0.72362926241282        0.94719580277324
C            2.93501679453752        1.54840665639386        2.04187218349517
C            2.25992085113725        1.09614364746711        3.16762610985294
C            1.74632567790533       -0.19183932866005        3.20151503881616
C            1.90830170524433       -1.02424147233392        2.11357258210815
C            3.44545869910318       -1.01534032009468       -1.41590592368312
N            3.35868044554299       -2.04820481086244       -2.40976610352337
C            3.83615231999396       -3.29201282098448       -2.26218486186965
C            4.81045032243744       -3.74608508604430       -1.25447455232256
N            3.35217158483777       -4.08784355704738       -3.22608264105889
C            2.51221590524420       -3.34759678926052       -4.02801057143288
C            2.50307146701419       -2.04239822878796       -3.49518733993398
C            1.74546651719045       -1.03615129413205       -4.06942957825894
C            1.00912155101671       -1.38709761840732       -5.18778865170701
C            1.01208608387241       -2.67602133165052       -5.72761776938396
C            1.76563990089360       -3.67772982988390       -5.15421865751727
N            0.19767174770277       -0.35574546986278       -5.82901982941899
O            0.22302453778101        0.74086682486344       -5.32534830215517
O           -0.42825732679045       -0.67859602169795       -6.80504544613709
C            3.65530431848903       -5.48737333710632       -3.37389749846746
H            3.63193641097857        1.09776010176811        0.08624834796603
H            3.33358787354873        2.55080104821999        2.02073695571915
H            2.13589740262364        1.74948735446686        4.01726007296604
H            1.22178542918765       -0.54386032367426        4.07587124400608
H            1.51610374654197       -2.02987613453735        2.11974309092259
H            2.95909081285652       -0.11701581580300       -1.79376079794295
H            4.48827864655621       -0.78713291743751       -1.18146528808717
H            4.30418520874817       -4.33315104788032       -0.48615156381592
H            5.56822034738167       -4.37677800612559       -1.71697325249462
H            5.29503468032896       -2.90714624396078       -0.76426245271647
H            1.70292189183913       -0.02290409432645       -3.70110994848625
H            0.41034097076981       -2.86477658387282       -6.60392769259871
H            1.77030354658076       -4.66972556022183       -5.57386450219338
H            4.67010846483979       -5.62472192498719       -3.75217559670234
H            3.56073737328978       -5.99453285028907       -2.41416051308877
H            2.95677255122065       -5.93353348765888       -4.07652097778644

          :  Hamiltonian                  GFN2-xTB          :
         :: total energy             -65.069474564558 Eh    ::
         :: gradient norm              0.000160649717 Eh/a0 ::
         :: HOMO-LUMO gap              2.496373287642 eV    ::
         :: SCC energy               -66.005876602010 Eh    ::
         :: -> dispersion             -0.041533183940 Eh    ::
         :: repulsion energy           0.936402037452 Eh    ::

    * Orbital Energies and Occupations

         #    Occupation            Energy/Eh            Energy/eV
      -------------------------------------------------------------
         1        2.0000           -0.8864463             -24.1214
       ...           ...                  ...                  ...
        46        2.0000           -0.5972834             -16.2529
        47        2.0000           -0.5942626             -16.1707
        48        2.0000           -0.5912143             -16.0878
        49        2.0000           -0.5731487             -15.5962
        50        2.0000           -0.5659010             -15.3990
        51        2.0000           -0.5625985             -15.3091
        52        2.0000           -0.5549213             -15.1002
        53        2.0000           -0.5542453             -15.0818
        54        2.0000           -0.5437476             -14.7961
        55        2.0000           -0.5386236             -14.6567
        56        2.0000           -0.5306983             -14.4410
        57        2.0000           -0.5302569             -14.4290
        58        2.0000           -0.5259680             -14.3123 (HOMO)
        59                         -0.4342280             -11.8159 (LUMO)
        60                         -0.4125065             -11.2249
        61                         -0.4099831             -11.1562
        62                         -0.3710221             -10.0960
        63                         -0.3536657              -9.6237
        64                         -0.3423053              -9.3146
        65                         -0.3148335              -8.5671
        66                         -0.2489610              -6.7746
        67                         -0.2052468              -5.5850
        68                         -0.1837109              -4.9990
        69                         -0.1558140              -4.2399
       ...                                ...                  ...
       108                          0.5486063              14.9283
      -------------------------------------------------------------
                  HL-Gap            0.0917400 Eh            2.4964 eV

     #   Z          covCN         q      C6AA      α(0)
     1   8 O        0.857    -0.365    21.002     6.144
     2   6 C        2.823     0.226    23.251     7.901
     3   6 C        2.970    -0.019    28.467     8.752
     4   6 C        2.919    -0.027    28.667     8.780
     5   6 C        2.917    -0.018    28.468     8.749
     6   6 C        2.920    -0.006    28.163     8.703
     7   6 C        2.916    -0.017    28.443     8.746
     8   6 C        2.927    -0.009    28.244     8.716
     9   6 C        3.742    -0.043    21.425     6.604
    10   7 N        2.827     0.025    20.812     6.776
    11   6 C        3.081     0.138    24.917     8.183
    12   6 C        3.755    -0.134    23.142     6.859
    13   7 N        2.829     0.026    20.783     6.771
    14   6 C        3.092     0.047    26.848     8.493
    15   6 C        3.106     0.045    26.861     8.492
    16   6 C        2.910    -0.029    28.736     8.790
    17   6 C        2.923     0.010    27.803     8.647
    18   6 C        2.924    -0.018    28.455     8.748
    19   6 C        2.910    -0.028    28.711     8.786
    20   7 N        2.758     0.560    13.378     5.432
    21   8 O        0.930    -0.363    20.919     6.134
    22   8 O        0.929    -0.346    20.605     6.088
    23   6 C        3.691    -0.078    22.181     6.739
    24   1 H        0.926     0.043     2.413     2.429
    25   1 H        0.926     0.063     2.161     2.299
    26   1 H        0.926     0.069     2.096     2.264
    27   1 H        0.926     0.067     2.120     2.277
    28   1 H        0.926     0.073     2.053     2.240
    29   1 H        0.925     0.102     1.769     2.080
    30   1 H        0.924     0.094     1.840     2.122
    31   1 H        0.924     0.123     1.588     1.971
    32   1 H        0.925     0.099     1.791     2.093
    33   1 H        0.925     0.091     1.865     2.136
    34   1 H        0.926     0.104     1.750     2.068
    35   1 H        0.926     0.116     1.645     2.005
    36   1 H        0.926     0.086     1.922     2.168
    37   1 H        0.924     0.094     1.845     2.124
    38   1 H        0.925     0.100     1.784     2.089
    39   1 H        0.925     0.102     1.767     2.079

Wiberg/Mayer (AO) data.
largest (>0.10) Wiberg bond orders for each atom

     #   Z sym  total        # sym  WBO       # sym  WBO       # sym  WBO
 ---------------------------------------------------------------------------
     1   8 O    2.090 --     2 C    1.798
     2   6 C    3.929 --     1 O    1.798     3 C    1.085     9 C    0.923
     3   6 C    3.982 --     4 C    1.350     8 C    1.346     2 C    1.085
     4   6 C    3.991 --     5 C    1.474     3 C    1.350    24 H    0.967
                             7 C    0.101
     5   6 C    3.990 --     4 C    1.474     6 C    1.416    25 H    0.968
     6   6 C    3.985 --     7 C    1.426     5 C    1.416    26 H    0.968
     7   6 C    3.988 --     8 C    1.465     6 C    1.426    27 H    0.967
                             4 C    0.101
     8   6 C    3.983 --     7 C    1.465     3 C    1.346    28 H    0.964
     9   6 C    3.946 --    10 N    0.992    29 H    0.952    30 H    0.943
                             2 C    0.923
    10   7 N    3.656 --    11 C    1.317    15 C    1.118     9 C    0.992
    11   6 C    3.949 --    13 N    1.320    10 N    1.317    12 C    1.055
    12   6 C    3.974 --    11 C    1.055    33 H    0.969    32 H    0.956
                            31 H    0.932
    13   7 N    3.664 --    11 C    1.320    14 C    1.136    23 C    0.989
    14   6 C    3.960 --    19 C    1.342    15 C    1.266    13 N    1.136
    15   6 C    3.959 --    16 C    1.363    14 C    1.266    10 N    1.118
    16   6 C    3.980 --    17 C    1.433    15 C    1.363    34 H    0.950
                            19 C    0.114
    17   6 C    3.967 --    16 C    1.433    18 C    1.352    20 N    0.938
    18   6 C    3.976 --    19 C    1.490    17 C    1.352    35 H    0.953
    19   6 C    3.983 --    18 C    1.490    14 C    1.342    36 H    0.959
                            16 C    0.114
    20   7 N    3.918 --    22 O    1.479    21 O    1.464    17 C    0.938
    21   8 O    1.957 --    20 N    1.464    22 O    0.383
    22   8 O    1.972 --    20 N    1.479    21 O    0.383
    23   6 C    3.936 --    13 N    0.989    39 H    0.972    38 H    0.967
                            37 H    0.963
    24   1 H    0.998 --     4 C    0.967
    25   1 H    0.996 --     5 C    0.968
    26   1 H    0.995 --     6 C    0.968
    27   1 H    0.995 --     7 C    0.967
    28   1 H    0.995 --     8 C    0.964
    29   1 H    0.989 --     9 C    0.952
    30   1 H    0.990 --     9 C    0.943
    31   1 H    0.980 --    12 C    0.932
    32   1 H    0.988 --    12 C    0.956
    33   1 H    0.991 --    12 C    0.969
    34   1 H    0.989 --    16 C    0.950
    35   1 H    0.986 --    18 C    0.953
    36   1 H    0.992 --    19 C    0.959
    37   1 H    0.990 --    23 C    0.963
    38   1 H    0.989 --    23 C    0.967
    39   1 H    0.989 --    23 C    0.972
 ---------------------------------------------------------------------------

molecular dipole:
                 x           y           z       tot (Debye)
 q only:        7.367      -5.648      -2.872
   full:        7.534      -5.549      -2.858      24.868

           -------------------------------------------------
          | TOTAL ENERGY              -65.069474564558 Eh   |
          | GRADIENT NORM               0.000160649717 Eh/α |
          | HOMO-LUMO GAP               2.496373287642 eV   |
           -------------------------------------------------

 * finished run on 2024/12/20 at 06:44:22.553
