   * xtb version 6.7.1 (edcfbbe) compiled by 'conda@3ef47c1a292c' on 2024-11-25

   ID    Z sym.   atoms
    1    6 C      1, 3, 5, 7, 8, 10, 11
    2    8 O      2, 4
    3    7 N      6, 9
    4    1 H      12-22

          program call               : xtb C0428.xyz --opt --namespace C0428 --charge +1
          :  Hamiltonian                  GFN2-xTB          :
 * total energy  :   -34.1932821 Eh     change       -0.6903633E-10 Eh
 * total energy  :   -34.1992160 Eh     change       -0.5933871E-02 Eh
 * total energy  :   -34.2004206 Eh     change       -0.1204595E-02 Eh
 * total energy  :   -34.2006713 Eh     change       -0.2507382E-03 Eh
 * total energy  :   -34.2007728 Eh     change       -0.1015168E-03 Eh
 * total energy  :   -34.2008065 Eh     change       -0.3370098E-04 Eh
 * total energy  :   -34.2008743 Eh     change       -0.6781777E-04 Eh
 * total energy  :   -34.2009529 Eh     change       -0.7859898E-04 Eh
 * total energy  :   -34.2010775 Eh     change       -0.1245432E-03 Eh
 * total energy  :   -34.2012995 Eh     change       -0.2220689E-03 Eh
 * total energy  :   -34.2080448 Eh     change       -0.9071906E-04 Eh
 * total energy  :   -34.2081143 Eh     change       -0.6951174E-04 Eh
 * total energy  :   -34.2081714 Eh     change       -0.5708840E-04 Eh
 * total energy  :   -34.2082186 Eh     change       -0.4717103E-04 Eh
 * total energy  :   -34.2082442 Eh     change       -0.2560881E-04 Eh
 * total energy  :   -34.2082539 Eh     change       -0.9731428E-05 Eh
 * total energy  :   -34.2082368 Eh     change        0.1712819E-04 Eh
 * total energy  :   -34.2082571 Eh     change       -0.2034436E-04 Eh
 * total energy  :   -34.2082608 Eh     change       -0.3683240E-05 Eh
   *** GEOMETRY OPTIMIZATION CONVERGED AFTER 78 ITERATIONS ***

 final structure:
================
22
 xtb: 6.7.1 (edcfbbe)
C            0.66332835860565        0.60690732132864       -0.00575553144420
O            0.65884804033809        0.27541523676404       -1.39977450823079
C            0.63261606109457       -0.98831197033156       -1.73045435160576
O            0.63497587512850       -1.94243112275236       -1.00228620859048
C            0.59144584062283       -1.14675025462648       -3.27290250087086
N            0.95577528072973       -2.49278722231596       -3.60746388841972
C            2.05976530484200       -2.89382181337620       -4.29838883108549
C            2.09155444696305       -4.25370091182587       -4.25176836942044
N            1.01354762091501       -4.66097570111740       -3.52529443157484
C            0.34249251128018       -3.58137053515301       -3.14082070361687
C            0.68958978022817       -6.02494171534583       -3.20569304162784
H           -0.36345374256588        0.66381954993356        0.35642116059955
H            1.14276109087889        1.57894495948987        0.07496269363091
H            1.20998973955136       -0.14669164759173        0.56152764338322
H           -0.42747213482235       -0.92233004060882       -3.60340819963950
H            1.27593477028846       -0.43721117215500       -3.73841755390842
H            2.72883199935235       -2.20464266640747       -4.77190125193621
H            2.79465707985355       -4.94074852281374       -4.67702146993576
H           -0.54898548877795       -3.58282609097839       -2.54471857799202
H           -0.34355629892372       -6.09334181742964       -2.87225800330261
H            0.82840429843940       -6.65540360834906       -4.08310195225910
H            1.34071956597805       -6.38888025434011       -2.40869212214914

          :  Hamiltonian                  GFN2-xTB          :
         :: total energy             -34.208260795157 Eh    ::
         :: gradient norm              0.000702908900 Eh/a0 ::
         :: HOMO-LUMO gap              4.424092302350 eV    ::
         :: SCC energy               -34.638625480795 Eh    ::
         :: -> dispersion             -0.015262700107 Eh    ::
         :: repulsion energy           0.430364685638 Eh    ::

    * Orbital Energies and Occupations

         #    Occupation            Energy/Eh            Energy/eV
      -------------------------------------------------------------
         1        2.0000           -0.8977933             -24.4302
       ...           ...                  ...                  ...
        18        2.0000           -0.6859264             -18.6650
        19        2.0000           -0.6765218             -18.4091
        20        2.0000           -0.6741986             -18.3459
        21        2.0000           -0.6635223             -18.0554
        22        2.0000           -0.6542277             -17.8024
        23        2.0000           -0.6429691             -17.4961
        24        2.0000           -0.6384432             -17.3729
        25        2.0000           -0.6378721             -17.3574
        26        2.0000           -0.6107473             -16.6193
        27        2.0000           -0.5965848             -16.2339
        28        2.0000           -0.5887914             -16.0218
        29        2.0000           -0.5777209             -15.7206
        30        2.0000           -0.5700103             -15.5108 (HOMO)
        31                         -0.4074279             -11.0867 (LUMO)
        32                         -0.3743353             -10.1862
        33                         -0.3727989             -10.1444
        34                         -0.1879964              -5.1156
        35                         -0.1465814              -3.9887
        36                         -0.1201048              -3.2682
        37                         -0.0579905              -1.5780
        38                         -0.0505731              -1.3762
        39                         -0.0390792              -1.0634
        40                         -0.0158800              -0.4321
        41                          0.0006324               0.0172
       ...                                ...                  ...
        55                          0.5270189              14.3409
      -------------------------------------------------------------
                  HL-Gap            0.1625824 Eh            4.4241 eV

     #   Z          covCN         q      C6AA      α(0)
     1   6 C        3.653     0.012    20.679     6.530
     2   8 O        1.704    -0.218    17.624     5.668
     3   6 C        2.718     0.360    20.887     7.481
     4   8 O        0.856    -0.392    21.514     6.219
     5   6 C        3.743    -0.060    21.732     6.651
     6   7 N        2.874     0.076    19.924     6.630
     7   6 C        3.065    -0.007    28.125     8.696
     8   6 C        3.073    -0.008    28.139     8.698
     9   7 N        2.868     0.086    19.747     6.600
    10   6 C        3.094     0.052    26.718     8.472
    11   6 C        3.693    -0.089    22.392     6.771
    12   1 H        0.924     0.088     1.897     2.154
    13   1 H        0.925     0.100     1.786     2.090
    14   1 H        0.924     0.089     1.892     2.151
    15   1 H        0.924     0.116     1.647     2.007
    16   1 H        0.924     0.118     1.627     1.995
    17   1 H        0.926     0.111     1.692     2.034
    18   1 H        0.926     0.114     1.660     2.015
    19   1 H        0.926     0.129     1.545     1.944
    20   1 H        0.925     0.103     1.757     2.073
    21   1 H        0.925     0.109     1.709     2.044
    22   1 H        0.924     0.111     1.685     2.030

Wiberg/Mayer (AO) data.
largest (>0.10) Wiberg bond orders for each atom

     #   Z sym  total        # sym  WBO       # sym  WBO       # sym  WBO
 ---------------------------------------------------------------------------
     1   6 C    3.887 --    14 H    0.976    13 H    0.975    12 H    0.971
                             2 O    0.926
     2   8 O    2.373 --     3 C    1.215     1 C    0.926     4 O    0.193
     3   6 C    3.937 --     4 O    1.742     2 O    1.215     5 C    0.912
     4   8 O    2.071 --     3 C    1.742     2 O    0.193
     5   6 C    3.948 --     6 N    0.998    16 H    0.956    15 H    0.939
                             3 C    0.912
     6   7 N    3.713 --    10 C    1.344     7 C    1.218     5 C    0.998
     7   6 C    3.945 --     8 C    1.597     6 N    1.218    17 H    0.960
     8   6 C    3.948 --     7 C    1.597     9 N    1.224    18 H    0.960
     9   7 N    3.725 --    10 C    1.372     8 C    1.224    11 C    0.990
    10   6 C    3.944 --     9 N    1.372     6 N    1.344    19 H    0.950
    11   6 C    3.931 --     9 N    0.990    20 H    0.974    21 H    0.967
                            22 H    0.957
    12   1 H    0.992 --     1 C    0.971
    13   1 H    0.990 --     1 C    0.975
    14   1 H    0.992 --     1 C    0.976
    15   1 H    0.986 --     5 C    0.939
    16   1 H    0.986 --     5 C    0.956
    17   1 H    0.987 --     7 C    0.960
    18   1 H    0.987 --     8 C    0.960
    19   1 H    0.983 --    10 C    0.950
    20   1 H    0.989 --    11 C    0.974
    21   1 H    0.988 --    11 C    0.967
    22   1 H    0.987 --    11 C    0.957
 ---------------------------------------------------------------------------

molecular dipole:
                 x           y           z       tot (Debye)
 q only:        1.773      -5.768      -6.214
   full:        1.708      -5.657      -6.284      21.925

           -------------------------------------------------
          | TOTAL ENERGY              -34.208260795157 Eh   |
          | GRADIENT NORM               0.000702908900 Eh/α |
          | HOMO-LUMO GAP               4.424092302350 eV   |
           -------------------------------------------------

 * finished run on 2024/12/20 at 06:44:20.410
