   * xtb version 6.7.1 (edcfbbe) compiled by 'conda@3ef47c1a292c' on 2024-11-25

   ID    Z sym.   atoms
    1    6 C      1-3, 5, 6, 8, 9
    2    7 N      4
    3    8 O      7
    4    1 H      10-25

          program call               : xtb C0423.xyz --opt --namespace C0423 --charge +1
          :  Hamiltonian                  GFN2-xTB          :
 * total energy  :   -29.7171218 Eh     change       -0.2630536E-09 Eh
 * total energy  :   -29.7221417 Eh     change       -0.5019893E-02 Eh
 * total energy  :   -29.7234770 Eh     change       -0.1335222E-02 Eh
 * total energy  :   -29.7240263 Eh     change       -0.5493513E-03 Eh
 * total energy  :   -29.7246681 Eh     change       -0.6417553E-03 Eh
 * total energy  :   -29.7251289 Eh     change       -0.4608628E-03 Eh
 * total energy  :   -29.7257159 Eh     change       -0.5870119E-03 Eh
 * total energy  :   -29.7259324 Eh     change       -0.2164835E-03 Eh
 * total energy  :   -29.7260494 Eh     change       -0.1169577E-03 Eh
 * total energy  :   -29.7261845 Eh     change       -0.1351144E-03 Eh
 * total energy  :   -29.7265213 Eh     change       -0.3827063E-04 Eh
 * total energy  :   -29.7265445 Eh     change       -0.2320578E-04 Eh
 * total energy  :   -29.7265711 Eh     change       -0.2660371E-04 Eh
 * total energy  :   -29.7265827 Eh     change       -0.1157245E-04 Eh
 * total energy  :   -29.7265888 Eh     change       -0.6109636E-05 Eh
 * total energy  :   -29.7265978 Eh     change       -0.8991598E-05 Eh
 * total energy  :   -29.7265969 Eh     change        0.8860708E-06 Eh
 * total energy  :   -29.7266044 Eh     change       -0.7451439E-05 Eh
 * total energy  :   -29.7266088 Eh     change       -0.4482428E-05 Eh
   *** GEOMETRY OPTIMIZATION CONVERGED AFTER 23 ITERATIONS ***

 final structure:
================
25
 xtb: 6.7.1 (edcfbbe)
C            1.28747747000300        0.03848653398608       -0.19990707451671
C            0.42362111635106       -1.09246894044890       -0.74777155129972
C            0.56076798177926       -2.45600518065373       -0.06801853882658
N            0.24120411985062       -2.57208739845549        1.39521551111810
C            1.36954871043311       -2.15176891625436        2.23566671944710
C           -0.12509918949237       -4.01714460458215        1.66262102259909
O           -1.38149567901455       -4.14025052713023        1.12859959230639
C           -2.10808087478952       -3.00027527283442        1.56269559452245
C           -1.03651221738249       -1.90279624522147        1.75793030875230
H            0.92123860733325        0.41742282944492        0.75198391571035
H            1.26610785747789        0.86878434362551       -0.90081913641466
H            2.32373520887355       -0.27332630026463       -0.09372111973483
H           -0.61966268256210       -0.77515979268877       -0.78702349684707
H            0.72144455624732       -1.27575043041032       -1.78271108282717
H           -0.11112657901341       -3.14696371628232       -0.58435533061932
H            1.58566058068200       -2.81254326865706       -0.18837862674695
H            2.25194952875417       -2.73963917139365        1.98831231936257
H            1.59069078716785       -1.10049534531441        2.07584486165369
H            1.13491208973102       -2.30820919919204        3.28787835351787
H           -0.10628093522032       -4.16896784984062        2.75244349076296
H            0.55575500039335       -4.71309885473977        1.17055485837846
H           -2.84049474446677       -2.76656567938921        0.79059695290883
H           -2.63170381610471       -3.21330804602043        2.49979199492492
H           -1.21012634782685       -1.03098855431336        1.13400893399296
H           -0.99082054920419       -1.58357041296928        2.79934152787519

          :  Hamiltonian                  GFN2-xTB          :
         :: total energy             -29.726608837226 Eh    ::
         :: gradient norm              0.000847790497 Eh/a0 ::
         :: HOMO-LUMO gap              9.031690857609 eV    ::
         :: SCC energy               -30.084931754367 Eh    ::
         :: -> dispersion             -0.017291194229 Eh    ::
         :: repulsion energy           0.358322917141 Eh    ::

    * Orbital Energies and Occupations

         #    Occupation            Energy/Eh            Energy/eV
      -------------------------------------------------------------
         1        2.0000           -0.9010057             -24.5176
       ...           ...                  ...                  ...
        15        2.0000           -0.6917334             -18.8230
        16        2.0000           -0.6732501             -18.3201
        17        2.0000           -0.6713231             -18.2676
        18        2.0000           -0.6594933             -17.9457
        19        2.0000           -0.6538718             -17.7928
        20        2.0000           -0.6529726             -17.7683
        21        2.0000           -0.6457304             -17.5712
        22        2.0000           -0.6349701             -17.2784
        23        2.0000           -0.6326495             -17.2153
        24        2.0000           -0.6034495             -16.4207
        25        2.0000           -0.5885472             -16.0152
        26        2.0000           -0.5843046             -15.8997
        27        2.0000           -0.5806199             -15.7995 (HOMO)
        28                         -0.2487114              -6.7678 (LUMO)
        29                         -0.2226231              -6.0579
        30                         -0.1773672              -4.8264
        31                         -0.1632062              -4.4411
        32                         -0.1044865              -2.8432
        33                         -0.0899045              -2.4464
        34                         -0.0787156              -2.1420
        35                         -0.0613869              -1.6704
        36                         -0.0444690              -1.2101
        37                         -0.0313354              -0.8527
        38                         -0.0219593              -0.5975
       ...                                ...                  ...
        52                          0.1579470               4.2980
      -------------------------------------------------------------
                  HL-Gap            0.3319085 Eh            9.0317 eV

     #   Z          covCN         q      C6AA      α(0)
     1   6 C        3.750    -0.121    22.881     6.822
     2   6 C        3.799    -0.069    21.816     6.650
     3   6 C        3.750    -0.041    21.377     6.594
     4   7 N        3.625     0.103    19.467     6.553
     5   6 C        3.702    -0.097    22.518     6.785
     6   6 C        3.782     0.111    18.777     6.173
     7   8 O        1.705    -0.261    18.318     5.779
     8   6 C        3.786     0.054    19.691     6.321
     9   6 C        3.792    -0.044    21.371     6.583
    10   1 H        0.925     0.040     2.451     2.448
    11   1 H        0.925     0.072     2.061     2.245
    12   1 H        0.925     0.054     2.269     2.355
    13   1 H        0.924     0.058     2.217     2.329
    14   1 H        0.924     0.083     1.952     2.185
    15   1 H        0.924     0.100     1.783     2.088
    16   1 H        0.924     0.086     1.922     2.168
    17   1 H        0.925     0.098     1.800     2.098
    18   1 H        0.925     0.116     1.646     2.007
    19   1 H        0.925     0.094     1.840     2.121
    20   1 H        0.923     0.077     2.008     2.216
    21   1 H        0.924     0.104     1.747     2.067
    22   1 H        0.925     0.100     1.788     2.091
    23   1 H        0.924     0.080     1.977     2.199
    24   1 H        0.925     0.108     1.710     2.045
    25   1 H        0.925     0.093     1.848     2.126

Wiberg/Mayer (AO) data.
largest (>0.10) Wiberg bond orders for each atom

     #   Z sym  total        # sym  WBO       # sym  WBO       # sym  WBO
 ---------------------------------------------------------------------------
     1   6 C    3.990 --     2 C    1.019    12 H    0.984    10 H    0.982
                            11 H    0.980
     2   6 C    3.984 --     1 C    1.019     3 C    1.007    13 H    0.968
                            14 H    0.961
     3   6 C    3.919 --     2 C    1.007    16 H    0.967    15 H    0.963
                             4 N    0.915
     4   7 N    3.797 --     5 C    0.964     9 C    0.945     3 C    0.915
                             6 C    0.898
     5   6 C    3.923 --    17 H    0.974    19 H    0.973     4 N    0.964
                            18 H    0.964
     6   6 C    3.923 --     7 O    1.050    21 H    0.959    20 H    0.954
                             4 N    0.898
     7   8 O    2.136 --     6 C    1.050     8 C    0.968
     8   6 C    3.932 --     9 C    0.991    22 H    0.968    23 H    0.968
                             7 O    0.968
     9   6 C    3.934 --     8 C    0.991    25 H    0.970    24 H    0.960
                             4 N    0.945
    10   1 H    0.998 --     1 C    0.982
    11   1 H    0.994 --     1 C    0.980
    12   1 H    0.997 --     1 C    0.984
    13   1 H    0.997 --     2 C    0.968
    14   1 H    0.993 --     2 C    0.961
    15   1 H    0.990 --     3 C    0.963
    16   1 H    0.993 --     3 C    0.967
    17   1 H    0.990 --     5 C    0.974
    18   1 H    0.987 --     5 C    0.964
    19   1 H    0.991 --     5 C    0.973
    20   1 H    0.994 --     6 C    0.954
    21   1 H    0.989 --     6 C    0.959
    22   1 H    0.990 --     8 C    0.968
    23   1 H    0.994 --     8 C    0.968
    24   1 H    0.988 --     9 C    0.960
    25   1 H    0.991 --     9 C    0.970
 ---------------------------------------------------------------------------

molecular dipole:
                 x           y           z       tot (Debye)
 q only:        0.396      -4.143       2.528
   full:        0.497      -4.150       2.683      12.624

           -------------------------------------------------
          | TOTAL ENERGY              -29.726608837226 Eh   |
          | GRADIENT NORM               0.000847790497 Eh/α |
          | HOMO-LUMO GAP               9.031690857609 eV   |
           -------------------------------------------------

 * finished run on 2024/12/20 at 06:44:14.126
