   * xtb version 6.7.1 (edcfbbe) compiled by 'conda@3ef47c1a292c' on 2024-11-25

   ID    Z sym.   atoms
    1    6 C      1-6, 8-10, 12
    2    7 N      7
    3    8 O      11
    4    1 H      13-36

          program call               : xtb C0426.xyz --opt --namespace C0426 --charge +1
          :  Hamiltonian                  GFN2-xTB          :
 * total energy  :   -40.2310348 Eh     change       -0.8807177E-10 Eh
 * total energy  :   -40.2380052 Eh     change       -0.6970360E-02 Eh
 * total energy  :   -40.2398345 Eh     change       -0.1829345E-02 Eh
 * total energy  :   -40.2400713 Eh     change       -0.2367834E-03 Eh
 * total energy  :   -40.2404346 Eh     change       -0.3632612E-03 Eh
 * total energy  :   -40.2406060 Eh     change       -0.1713796E-03 Eh
 * total energy  :   -40.2408775 Eh     change       -0.2715214E-03 Eh
 * total energy  :   -40.2410939 Eh     change       -0.2164321E-03 Eh
 * total energy  :   -40.2412986 Eh     change       -0.2046595E-03 Eh
 * total energy  :   -40.2414611 Eh     change       -0.1625575E-03 Eh
 * total energy  :   -40.2423848 Eh     change       -0.2337300E-04 Eh
 * total energy  :   -40.2424087 Eh     change       -0.2394187E-04 Eh
 * total energy  :   -40.2424262 Eh     change       -0.1747036E-04 Eh
 * total energy  :   -40.2424422 Eh     change       -0.1597079E-04 Eh
 * total energy  :   -40.2424600 Eh     change       -0.1781578E-04 Eh
 * total energy  :   -40.2424761 Eh     change       -0.1608985E-04 Eh
 * total energy  :   -40.2424859 Eh     change       -0.9816997E-05 Eh
 * total energy  :   -40.2424919 Eh     change       -0.6020718E-05 Eh
 * total energy  :   -40.2424967 Eh     change       -0.4744804E-05 Eh
   *** GEOMETRY OPTIMIZATION CONVERGED AFTER 31 ITERATIONS ***

 final structure:
================
36
 xtb: 6.7.1 (edcfbbe)
C            0.57358219884303        0.10427140384461       -0.28702998031386
C            0.39617088227312       -0.52832206778073        1.08800307074459
C            1.24330482460317        0.14114407583428        2.17285105841444
C            0.95608447923378        1.62790216593839        2.40019229512643
C           -0.51207867727107        1.99198525233227        2.69234142990274
C           -1.17202055718878        1.18457353005288        3.84109795324503
N           -1.07771393259871        1.72126475472486        5.23117822925741
C           -2.04398623855395        2.82160753298510        5.42168498630604
C           -1.41780192829312        0.63141749816837        6.16684447665936
C            0.27563097177984        2.21090779294338        5.54100662179910
O           -0.66330250045098        3.37781097317609        2.95672433946480
C           -0.64414016688373        4.21961606181007        1.81985326197848
H            0.18768520378590        1.12039441622964       -0.31502919824980
H            0.04007110467111       -0.47643837148307       -1.03428532074543
H            1.62485433957427        0.12640939549001       -0.56194113201436
H           -0.66064610858666       -0.51338273405990        1.36522241113980
H            0.69878700943914       -1.57532957104107        1.03100954637404
H            1.13426399256386       -0.41838792605353        3.10632734944194
H            2.29284621981756        0.05986406399348        1.88471350847320
H            1.60225686231727        1.99725984206007        3.19659161286182
H            1.23788395739431        2.16609644476491        1.49482033346519
H           -1.09505792000104        1.74041473517528        1.79267440380495
H           -2.23686143812893        1.08421509513213        3.62242964149241
H           -0.72796210711932        0.18896193763770        3.82857342560132
H           -3.06117826233607        2.45378855860154        5.30164681700534
H           -1.93823193678672        3.23995713298560        6.42055654636165
H           -1.85344319105585        3.59659823180361        4.68259704569683
H           -0.67456094524558       -0.16242909092711        6.11525390641166
H           -1.44685173513140        1.01288282202717        7.18616253674075
H           -2.39356160767608        0.21362466854403        5.92491707402938
H            1.00565267875664        1.42077886137399        5.37810332462754
H            0.50364004528917        3.06287690171655        4.90416762708430
H            0.32586434228615        2.52382585134961        6.58258666802255
H           -0.90998528142779        5.21155331924667        2.17815756903012
H            0.34571491890678        4.25891303008693        1.36041446478807
H           -1.37689949680080        3.89091341131382        1.07737209597320

          :  Hamiltonian                  GFN2-xTB          :
         :: total energy             -40.242496666519 Eh    ::
         :: gradient norm              0.000327796524 Eh/a0 ::
         :: HOMO-LUMO gap              8.115838187146 eV    ::
         :: SCC energy               -40.762692664035 Eh    ::
         :: -> dispersion             -0.027038390054 Eh    ::
         :: repulsion energy           0.520195997516 Eh    ::

    * Orbital Energies and Occupations

         #    Occupation            Energy/Eh            Energy/eV
      -------------------------------------------------------------
         1        2.0000           -0.8615795             -23.4448
       ...           ...                  ...                  ...
        25        2.0000           -0.6313732             -17.1805
        26        2.0000           -0.6231610             -16.9571
        27        2.0000           -0.6163475             -16.7717
        28        2.0000           -0.6078077             -16.5393
        29        2.0000           -0.5993998             -16.3105
        30        2.0000           -0.5820677             -15.8389
        31        2.0000           -0.5808568             -15.8059
        32        2.0000           -0.5682870             -15.4639
        33        2.0000           -0.5665127             -15.4156
        34        2.0000           -0.5436693             -14.7940
        35        2.0000           -0.5359309             -14.5834
        36        2.0000           -0.5315467             -14.4641
        37        2.0000           -0.5251992             -14.2914 (HOMO)
        38                         -0.2269476              -6.1756 (LUMO)
        39                         -0.1598391              -4.3494
        40                         -0.1523712              -4.1462
        41                         -0.1374681              -3.7407
        42                         -0.1236786              -3.3655
        43                         -0.0719886              -1.9589
        44                         -0.0585036              -1.5920
        45                         -0.0461269              -1.2552
        46                         -0.0216763              -0.5898
        47                         -0.0209312              -0.5696
        48                         -0.0079866              -0.2173
       ...                                ...                  ...
        72                          0.1964277               5.3451
      -------------------------------------------------------------
                  HL-Gap            0.2982516 Eh            8.1158 eV

     #   Z          covCN         q      C6AA      α(0)
     1   6 C        3.752    -0.110    22.662     6.789
     2   6 C        3.799    -0.060    21.650     6.625
     3   6 C        3.800    -0.067    21.785     6.645
     4   6 C        3.799    -0.085    22.123     6.697
     5   6 C        3.736     0.106    18.916     6.207
     6   6 C        3.760    -0.050    21.525     6.614
     7   7 N        3.622     0.153    18.658     6.415
     8   6 C        3.724    -0.106    22.631     6.793
     9   6 C        3.730    -0.099    22.487     6.769
    10   6 C        3.721    -0.101    22.540     6.781
    11   8 O        1.699    -0.332    19.555     5.970
    12   6 C        3.640     0.029    20.439     6.501
    13   1 H        0.925     0.032     2.552     2.498
    14   1 H        0.925     0.049     2.335     2.390
    15   1 H        0.925     0.048     2.347     2.396
    16   1 H        0.924     0.021     2.711     2.575
    17   1 H        0.924     0.048     2.349     2.397
    18   1 H        0.924     0.021     2.722     2.580
    19   1 H        0.924     0.058     2.217     2.328
    20   1 H        0.925     0.047     2.360     2.402
    21   1 H        0.924     0.065     2.136     2.285
    22   1 H        0.923     0.056     2.248     2.345
    23   1 H        0.924     0.086     1.918     2.166
    24   1 H        0.924     0.097     1.815     2.107
    25   1 H        0.925     0.094     1.845     2.124
    26   1 H        0.925     0.095     1.828     2.115
    27   1 H        0.925     0.129     1.546     1.944
    28   1 H        0.925     0.097     1.815     2.107
    29   1 H        0.925     0.102     1.770     2.081
    30   1 H        0.925     0.097     1.809     2.103
    31   1 H        0.925     0.097     1.814     2.106
    32   1 H        0.925     0.122     1.599     1.977
    33   1 H        0.925     0.095     1.832     2.117
    34   1 H        0.925     0.072     2.059     2.244
    35   1 H        0.924     0.048     2.342     2.393
    36   1 H        0.924     0.045     2.387     2.416

Wiberg/Mayer (AO) data.
largest (>0.10) Wiberg bond orders for each atom

     #   Z sym  total        # sym  WBO       # sym  WBO       # sym  WBO
 ---------------------------------------------------------------------------
     1   6 C    3.995 --     2 C    1.021    15 H    0.986    14 H    0.986
                            13 H    0.986
     2   6 C    3.996 --     1 C    1.021     3 C    1.007    16 H    0.977
                            17 H    0.976
     3   6 C    3.994 --     2 C    1.007     4 C    1.005    19 H    0.973
                            18 H    0.972
     4   6 C    3.990 --     3 C    1.005     5 C    0.984    20 H    0.972
                            21 H    0.967
     5   6 C    3.947 --     4 C    0.984     6 C    0.979    11 O    0.976
                            22 H    0.951
     6   6 C    3.933 --     5 C    0.979    23 H    0.970    24 H    0.959
                             7 N    0.935
     7   7 N    3.820 --     9 C    0.959    10 C    0.956     8 C    0.953
                             6 C    0.935
     8   6 C    3.917 --    25 H    0.976    26 H    0.976    27 H    0.960
                             7 N    0.953
     9   6 C    3.930 --    30 H    0.976    28 H    0.975    29 H    0.974
                             7 N    0.959
    10   6 C    3.921 --    33 H    0.975    31 H    0.974    32 H    0.965
                             7 N    0.956
    11   8 O    2.075 --    12 C    0.977     5 C    0.976
    12   6 C    3.936 --    35 H    0.977    34 H    0.977    36 H    0.977
                            11 O    0.977
    13   1 H    0.999 --     1 C    0.986
    14   1 H    0.998 --     1 C    0.986
    15   1 H    0.998 --     1 C    0.986
    16   1 H    1.000 --     2 C    0.977
    17   1 H    0.998 --     2 C    0.976
    18   1 H    1.000 --     3 C    0.972
    19   1 H    0.997 --     3 C    0.973
    20   1 H    0.998 --     4 C    0.972
    21   1 H    0.995 --     4 C    0.967
    22   1 H    0.997 --     5 C    0.951
    23   1 H    0.993 --     6 C    0.970
    24   1 H    0.991 --     6 C    0.959
    25   1 H    0.991 --     8 C    0.976
    26   1 H    0.991 --     8 C    0.976
    27   1 H    0.983 --     8 C    0.960
    28   1 H    0.991 --     9 C    0.975
    29   1 H    0.989 --     9 C    0.974
    30   1 H    0.991 --     9 C    0.976
    31   1 H    0.991 --    10 C    0.974
    32   1 H    0.985 --    10 C    0.965
    33   1 H    0.991 --    10 C    0.975
    34   1 H    0.995 --    12 C    0.977
    35   1 H    0.998 --    12 C    0.977
    36   1 H    0.998 --    12 C    0.977
 ---------------------------------------------------------------------------

molecular dipole:
                 x           y           z       tot (Debye)
 q only:       -1.631       3.203       8.807
   full:       -1.679       3.118       8.712      23.903

           -------------------------------------------------
          | TOTAL ENERGY              -40.242496666519 Eh   |
          | GRADIENT NORM               0.000327796524 Eh/α |
          | HOMO-LUMO GAP               8.115838187146 eV   |
           -------------------------------------------------

 * finished run on 2024/12/20 at 06:44:16.844
