   * xtb version 6.7.1 (edcfbbe) compiled by 'conda@3ef47c1a292c' on 2024-11-25

   ID    Z sym.   atoms
    1    6 C      1, 2, 4, 6-15, 17-22
    2    7 N      3, 5, 16
    3    1 H      23-40

          program call               : xtb C0427.xyz --opt --namespace C0427 --charge +1
          :  Hamiltonian                  GFN2-xTB          :
 * total energy  :   -57.7887751 Eh     change       -0.5518586E-08 Eh
 * total energy  :   -57.8894892 Eh     change       -0.1007141E+00 Eh
 * total energy  :   -57.9499594 Eh     change       -0.6047017E-01 Eh
 * total energy  :   -57.9948357 Eh     change       -0.4487629E-01 Eh
 * total energy  :   -58.0367561 Eh     change       -0.4192041E-01 Eh
 * total energy  :   -58.0763852 Eh     change       -0.3962905E-01 Eh
 * total energy  :   -58.1118003 Eh     change       -0.3541515E-01 Eh
 * total energy  :   -58.1425855 Eh     change       -0.3078516E-01 Eh
 * total energy  :   -58.1690582 Eh     change       -0.2647275E-01 Eh
 * total energy  :   -58.1909642 Eh     change       -0.2190596E-01 Eh
 * total energy  :   -58.2921884 Eh     change       -0.1343040E-04 Eh
 * total energy  :   -58.2922051 Eh     change       -0.1661861E-04 Eh
 * total energy  :   -58.2922315 Eh     change       -0.2648961E-04 Eh
 * total energy  :   -58.2922475 Eh     change       -0.1593015E-04 Eh
 * total energy  :   -58.2922710 Eh     change       -0.2351403E-04 Eh
 * total energy  :   -58.2922860 Eh     change       -0.1501746E-04 Eh
 * total energy  :   -58.2922884 Eh     change       -0.2406998E-05 Eh
 * total energy  :   -58.2922955 Eh     change       -0.7098526E-05 Eh
 * total energy  :   -58.2922987 Eh     change       -0.3145787E-05 Eh
   *** GEOMETRY OPTIMIZATION CONVERGED AFTER 63 ITERATIONS ***

 final structure:
================
40
 xtb: 6.7.1 (edcfbbe)
C            0.63817361966614       -1.41806800286565        1.60342251132816
C            0.20866991225726       -0.90969533663014        2.97582947210635
N            1.07963181124594        0.14188539948624        3.45606186239515
C            1.98476283660424        0.05484646060067        4.43517331378547
N            2.56756442993728        1.25115904791694        4.61083325727782
C            2.03326303709140        2.15297155438946        3.71841505541734
C            1.07072096885597        1.44134679653137        2.98047000494826
C            0.31455180472139        2.06935560957376        1.99861066901931
C            0.56590200186018        3.40866860460522        1.77810859239708
C            1.53202672936543        4.10914707496179        2.50534846295958
C            2.28166137635587        3.49868058907403        3.49049050180184
C            2.32181017201039       -1.13024511646514        5.21608753289158
C            2.71287062879087       -2.29149264700791        4.58805326028196
C            3.11198875203333       -3.40622362858721        5.36312045435110
C            3.53925029284830       -4.66883959663622        4.69621857935878
N            3.12263768474406       -3.36771077426168        6.66683979232791
C            2.72617386714360       -2.26326569275189        7.31830382792884
C            2.29628718538831       -1.08417856195470        6.64017328804380
C            1.84826609872218        0.01202088036520        7.40191147570084
C            1.86091006716636       -0.04488273119576        8.76986297486694
C            2.31522053648881       -1.19292904679012        9.43742812742254
C            2.73539873219874       -2.28342060733235        8.72885894547256
H            0.62490471232213       -0.61896655695879        0.86751257613110
H           -0.04744597143320       -2.19569718317075        1.28055007131229
H            1.64046852141986       -1.83719282919756        1.63394477826381
H           -0.80476472448111       -0.50337816462872        2.92066003112055
H            0.22120783642695       -1.72171508716522        3.70581947534773
H            3.29540029883259        1.44191998417078        5.28400289114485
H           -0.43823144759206        1.54373034129906        1.43507426667298
H            0.00066633758922        3.93192248678799        1.02357277570646
H            1.69063235916727        5.15407892445070        2.29252573627463
H            3.02212444590241        4.03837562589319        4.05757926818565
H            2.77134418495185       -2.35057429586307        3.51251794149743
H            4.01116796589582       -5.32143772406374        5.42384036871775
H            2.67117482799464       -5.18138506519320        4.28213271112156
H            4.23088565691848       -4.46379547980387        3.88184975131491
H            1.46839834247855        0.89538950621545        6.90755249022532
H            1.51239961515736        0.79942053233541        9.34447470727481
H            2.31712100447439       -1.20997640972377       10.51590164973426
H            3.06994348848690       -3.18649888041866        9.21260654786785

          :  Hamiltonian                  GFN2-xTB          :
         :: total energy             -58.292298661972 Eh    ::
         :: gradient norm              0.000433282849 Eh/a0 ::
         :: HOMO-LUMO gap              1.558174594778 eV    ::
         :: SCC energy               -59.312754672077 Eh    ::
         :: -> dispersion             -0.044544635810 Eh    ::
         :: repulsion energy           1.020456010105 Eh    ::

    * Orbital Energies and Occupations

         #    Occupation            Energy/Eh            Energy/eV
      -------------------------------------------------------------
         1        2.0000           -0.8741561             -23.7870
       ...           ...                  ...                  ...
        42        2.0000           -0.5778919             -15.7252
        43        2.0000           -0.5769032             -15.6983
        44        2.0000           -0.5719335             -15.5631
        45        2.0000           -0.5684445             -15.4682
        46        2.0000           -0.5628664             -15.3164
        47        2.0000           -0.5600093             -15.2386
        48        2.0000           -0.5467724             -14.8784
        49        2.0000           -0.5438406             -14.7987
        50        2.0000           -0.5420060             -14.7487
        51        2.0000           -0.5372435             -14.6191
        52        2.0000           -0.5201907             -14.1551
        53        2.0000           -0.5065617             -13.7842
        54        2.0000           -0.4777209             -12.9994 (HOMO)
        55                         -0.4204590             -11.4413 (LUMO)
        56                         -0.3842190             -10.4551
        57                         -0.3596611              -9.7869
        58                         -0.3534697              -9.6184
        59                         -0.3505216              -9.5382
        60                         -0.3158743              -8.5954
        61                         -0.2720056              -7.4016
        62                         -0.2337130              -6.3597
        63                         -0.1869723              -5.0878
        64                         -0.1718721              -4.6769
        65                         -0.1163537              -3.1661
       ...                                ...                  ...
       106                          0.5778051              15.7229
      -------------------------------------------------------------
                  HL-Gap            0.0572619 Eh            1.5582 eV

     #   Z          covCN         q      C6AA      α(0)
     1   6 C        3.752    -0.119    22.841     6.815
     2   6 C        3.739    -0.010    20.837     6.513
     3   7 N        2.830     0.017    20.953     6.798
     4   6 C        3.069     0.129    25.114     8.217
     5   7 N        2.793    -0.074    22.678     7.073
     6   6 C        3.081     0.052    26.736     8.477
     7   6 C        3.104     0.042    26.928     8.503
     8   6 C        2.909    -0.034    28.839     8.806
     9   6 C        2.926    -0.019    28.490     8.753
    10   6 C        2.927    -0.017    28.436     8.745
    11   6 C        2.908    -0.036    28.891     8.814
    12   6 C        2.972    -0.008    28.206     8.712
    13   6 C        2.918    -0.049    29.220     8.864
    14   6 C        2.938     0.116    25.457     8.275
    15   6 C        3.761    -0.128    23.010     6.838
    16   7 N        1.850    -0.213    26.479     7.627
    17   6 C        2.963     0.097    25.848     8.339
    18   6 C        2.984    -0.007    28.181     8.708
    19   6 C        2.913    -0.043    29.077     8.842
    20   6 C        2.917    -0.019    28.480     8.751
    21   6 C        2.915    -0.017    28.437     8.744
    22   6 C        2.922    -0.028    28.712     8.787
    23   1 H        0.925     0.064     2.150     2.293
    24   1 H        0.925     0.077     2.010     2.217
    25   1 H        0.925     0.057     2.239     2.340
    26   1 H        0.924     0.082     1.961     2.190
    27   1 H        0.924     0.076     2.022     2.224
    28   1 H        0.860     0.214     1.038     1.596
    29   1 H        0.926     0.071     2.076     2.253
    30   1 H        0.926     0.079     1.991     2.207
    31   1 H        0.926     0.080     1.980     2.200
    32   1 H        0.926     0.072     2.069     2.249
    33   1 H        0.926     0.048     2.346     2.395
    34   1 H        0.925     0.085     1.925     2.170
    35   1 H        0.925     0.074     2.044     2.236
    36   1 H        0.925     0.065     2.138     2.286
    37   1 H        0.925     0.025     2.662     2.551
    38   1 H        0.926     0.057     2.233     2.337
    39   1 H        0.926     0.065     2.142     2.288
    40   1 H        0.926     0.080     1.983     2.202

Wiberg/Mayer (AO) data.
largest (>0.10) Wiberg bond orders for each atom

     #   Z sym  total        # sym  WBO       # sym  WBO       # sym  WBO
 ---------------------------------------------------------------------------
     1   6 C    3.983 --     2 C    1.004    23 H    0.983    25 H    0.981
                            24 H    0.978
     2   6 C    3.945 --     1 C    1.004     3 N    0.970    27 H    0.966
                            26 H    0.961
     3   7 N    3.667 --     4 C    1.341     7 C    1.120     2 C    0.970
     4   6 C    3.945 --     3 N    1.341     5 N    1.307    12 C    1.045
     5   7 N    3.601 --     4 C    1.307     6 C    1.133    28 H    0.924
     6   6 C    3.950 --    11 C    1.344     7 C    1.276     5 N    1.133
     7   6 C    3.952 --     8 C    1.343     6 C    1.276     3 N    1.120
     8   6 C    3.983 --     9 C    1.490     7 C    1.343    29 H    0.963
                            11 C    0.118
     9   6 C    3.982 --     8 C    1.490    10 C    1.382    30 H    0.966
    10   6 C    3.981 --    11 C    1.488     9 C    1.382    31 H    0.966
    11   6 C    3.982 --    10 C    1.488     6 C    1.344    32 H    0.964
                             8 C    0.118
    12   6 C    3.974 --    13 C    1.496    18 C    1.224     4 C    1.045
    13   6 C    3.980 --    12 C    1.496    14 C    1.264    33 H    0.963
    14   6 C    3.973 --    16 N    1.516    13 C    1.264    15 C    1.032
    15   6 C    3.986 --    14 C    1.032    34 H    0.978    36 H    0.969
                            35 H    0.955
    16   7 N    3.074 --    14 C    1.516    17 C    1.297
    17   6 C    3.980 --    16 N    1.297    22 C    1.266    18 C    1.224
    18   6 C    3.982 --    19 C    1.294    17 C    1.224    12 C    1.224
    19   6 C    3.991 --    20 C    1.545    18 C    1.294    37 H    0.966
                            22 C    0.116
    20   6 C    3.982 --    19 C    1.545    21 C    1.322    38 H    0.969
    21   6 C    3.988 --    22 C    1.556    20 C    1.322    39 H    0.968
    22   6 C    3.981 --    21 C    1.556    17 C    1.266    40 H    0.963
                            19 C    0.116
    23   1 H    0.996 --     1 C    0.983
    24   1 H    0.993 --     1 C    0.978
    25   1 H    0.997 --     1 C    0.981
    26   1 H    0.993 --     2 C    0.961
    27   1 H    0.994 --     2 C    0.966
    28   1 H    0.954 --     5 N    0.924
    29   1 H    0.994 --     8 C    0.963
    30   1 H    0.993 --     9 C    0.966
    31   1 H    0.993 --    10 C    0.966
    32   1 H    0.994 --    11 C    0.964
    33   1 H    0.997 --    13 C    0.963
    34   1 H    0.992 --    15 C    0.978
    35   1 H    0.991 --    15 C    0.955
    36   1 H    0.993 --    15 C    0.969
    37   1 H    0.999 --    19 C    0.966
    38   1 H    0.996 --    20 C    0.969
    39   1 H    0.995 --    21 C    0.968
    40   1 H    0.993 --    22 C    0.963
 ---------------------------------------------------------------------------

molecular dipole:
                 x           y           z       tot (Debye)
 q only:        3.220       0.555       7.731
   full:        3.210       0.922       7.652      21.220

           -------------------------------------------------
          | TOTAL ENERGY              -58.292298661972 Eh   |
          | GRADIENT NORM               0.000433282849 Eh/α |
          | HOMO-LUMO GAP               1.558174594778 eV   |
           -------------------------------------------------

 * finished run on 2024/12/20 at 06:44:19.454
