   * xtb version 6.7.1 (edcfbbe) compiled by 'conda@3ef47c1a292c' on 2024-11-25

   ID    Z sym.   atoms
    1    8 O      1
    2    6 C      2, 3, 5, 6, 8-14
    3    7 N      4, 7
    4    1 H      15-35

          program call               : xtb C0424.xyz --opt --namespace C0424 --charge +1
          :  Hamiltonian                  GFN2-xTB          :
 * total energy  :   -43.8162769 Eh     change       -0.6843806E-09 Eh
 * total energy  :   -43.8218563 Eh     change       -0.5579425E-02 Eh
 * total energy  :   -43.8233509 Eh     change       -0.1494627E-02 Eh
 * total energy  :   -43.8236641 Eh     change       -0.3132248E-03 Eh
 * total energy  :   -43.8238455 Eh     change       -0.1814044E-03 Eh
 * total energy  :   -43.8239191 Eh     change       -0.7360372E-04 Eh
 * total energy  :   -43.8239814 Eh     change       -0.6227378E-04 Eh
 * total energy  :   -43.8240290 Eh     change       -0.4760646E-04 Eh
 * total energy  :   -43.8240613 Eh     change       -0.3229634E-04 Eh
 * total energy  :   -43.8240947 Eh     change       -0.3339966E-04 Eh
 * total energy  :   -43.8244856 Eh     change       -0.7926143E-05 Eh
 * total energy  :   -43.8244961 Eh     change       -0.1046936E-04 Eh
 * total energy  :   -43.8245064 Eh     change       -0.1027039E-04 Eh
 * total energy  :   -43.8245171 Eh     change       -0.1073209E-04 Eh
 * total energy  :   -43.8245293 Eh     change       -0.1215641E-04 Eh
 * total energy  :   -43.8245410 Eh     change       -0.1177100E-04 Eh
 * total energy  :   -43.8245488 Eh     change       -0.7742749E-05 Eh
 * total energy  :   -43.8245539 Eh     change       -0.5085496E-05 Eh
 * total energy  :   -43.8245562 Eh     change       -0.2370724E-05 Eh
   *** GEOMETRY OPTIMIZATION CONVERGED AFTER 35 ITERATIONS ***

 final structure:
================
35
 xtb: 6.7.1 (edcfbbe)
O            1.66834631085589        0.46019503892638       -0.14012443781170
C            0.92626195159123       -0.29065525690060       -1.07482251689249
C            1.15330513185964        0.34906531551739       -2.45474822638214
N            2.59170564723182        0.41037838021499       -2.66848966860059
C            3.38430889961258       -0.52199474584853       -3.26546138239428
C            4.67325042032106       -0.10472386596754       -3.12717177430835
N            4.64858192561834        1.06712623659807       -2.43475963958535
C            3.37945149024306        1.35879205085912       -2.17171379543050
C            5.79994421948259        1.88244189537777       -2.11422302817276
C            6.17653554177310        2.77493172716855       -3.29292207137448
C            0.44925312198816       -0.39380389095008       -3.58877268466689
C           -1.07526226269972       -0.19356108631644       -3.62525611105034
C           -1.45808730040497        1.26477417616052       -3.86494652802563
C           -1.65568473228151       -1.07203972302495       -4.73252497678663
H            1.43241807186110        0.18643973189443        0.75246069208053
H            1.26272258264292       -1.33699600566936       -1.08878500665057
H           -0.14387838402146       -0.26576738978963       -0.84742096320300
H            0.80626734939521        1.38502631536112       -2.40515061506873
H            3.00013279419186       -1.39878359333676       -3.74290003629776
H            5.58316261664320       -0.55864955364231       -3.46284117408368
H            3.03641487730349        2.21071828295527       -1.61853242063954
H            5.55855046604716        2.48956418430506       -1.23992666993376
H            6.63031975625537        1.21860335605103       -1.86479363794610
H            5.35964092134037        3.44622374001758       -3.54686193592982
H            7.04266554988850        3.37381644895822       -3.02890499649527
H            6.42562176346288        2.17896665842887       -4.16754645785107
H            0.85861590626210       -0.04459801654845       -4.53988510027942
H            0.65017446333623       -1.46332816169415       -3.50102886403666
H           -1.50076878046866       -0.51951787448360       -2.67138924145897
H           -0.96923186438896        1.64758680116797       -4.75803634179378
H           -2.53175872676506        1.34155235181378       -4.01059092251693
H           -1.19727724345604        1.89933009876595       -3.02150689077224
H           -1.40825679895345       -2.11827153914000       -4.57073770933142
H           -2.73745175410860       -0.98073639530116       -4.75689315429640
H           -1.26701393165960       -0.77024569193102       -5.70225171200978

          :  Hamiltonian                  GFN2-xTB          :
         :: total energy             -43.824556241420 Eh    ::
         :: gradient norm              0.000490403548 Eh/a0 ::
         :: HOMO-LUMO gap              3.764545525210 eV    ::
         :: SCC energy               -44.435140910285 Eh    ::
         :: -> dispersion             -0.027214676763 Eh    ::
         :: repulsion energy           0.610584668865 Eh    ::

    * Orbital Energies and Occupations

         #    Occupation            Energy/Eh            Energy/eV
      -------------------------------------------------------------
         1        2.0000           -0.8819634             -23.9994
       ...           ...                  ...                  ...
        28        2.0000           -0.6070732             -16.5193
        29        2.0000           -0.5970738             -16.2472
        30        2.0000           -0.5959012             -16.2153
        31        2.0000           -0.5939215             -16.1614
        32        2.0000           -0.5853117             -15.9271
        33        2.0000           -0.5770181             -15.7015
        34        2.0000           -0.5725167             -15.5790
        35        2.0000           -0.5660502             -15.4030
        36        2.0000           -0.5552361             -15.1087
        37        2.0000           -0.5488393             -14.9347
        38        2.0000           -0.5427542             -14.7691
        39        2.0000           -0.5386706             -14.6580
        40        2.0000           -0.5317631             -14.4700 (HOMO)
        41                         -0.3934186             -10.7055 (LUMO)
        42                         -0.3596612              -9.7869
        43                         -0.1828066              -4.9744
        44                         -0.1312648              -3.5719
        45                         -0.1030484              -2.8041
        46                         -0.0623736              -1.6973
        47                         -0.0471025              -1.2817
        48                         -0.0347569              -0.9458
        49                         -0.0308679              -0.8400
        50                         -0.0231553              -0.6301
        51                         -0.0158203              -0.4305
       ...                                ...                  ...
        77                          0.4748104              12.9202
      -------------------------------------------------------------
                  HL-Gap            0.1383445 Eh            3.7645 eV

     #   Z          covCN         q      C6AA      α(0)
     1   8 O        1.656    -0.449    21.830     6.307
     2   6 C        3.678     0.074    19.551     6.334
     3   6 C        3.792     0.017    20.304     6.417
     4   7 N        2.875     0.066    20.084     6.656
     5   6 C        3.073    -0.007    28.117     8.694
     6   6 C        3.077    -0.008    28.139     8.697
     7   7 N        2.870     0.067    20.074     6.654
     8   6 C        3.106     0.056    26.621     8.454
     9   6 C        3.741    -0.023    21.055     6.547
    10   6 C        3.753    -0.124    22.941     6.830
    11   6 C        3.807    -0.081    22.042     6.683
    12   6 C        3.849    -0.011    20.741     6.478
    13   6 C        3.755    -0.119    22.826     6.812
    14   6 C        3.758    -0.117    22.801     6.808
    15   1 H        0.805     0.313     0.683     1.298
    16   1 H        0.923     0.042     2.429     2.437
    17   1 H        0.924     0.059     2.208     2.324
    18   1 H        0.924     0.090     1.882     2.145
    19   1 H        0.927     0.105     1.737     2.061
    20   1 H        0.926     0.104     1.745     2.066
    21   1 H        0.926     0.121     1.607     1.983
    22   1 H        0.924     0.086     1.920     2.167
    23   1 H        0.924     0.091     1.871     2.139
    24   1 H        0.925     0.063     2.169     2.303
    25   1 H        0.925     0.084     1.942     2.179
    26   1 H        0.925     0.066     2.130     2.282
    27   1 H        0.924     0.060     2.203     2.321
    28   1 H        0.924     0.054     2.276     2.359
    29   1 H        0.924     0.037     2.489     2.467
    30   1 H        0.925     0.045     2.381     2.413
    31   1 H        0.925     0.060     2.197     2.318
    32   1 H        0.925     0.033     2.537     2.491
    33   1 H        0.925     0.043     2.411     2.428
    34   1 H        0.925     0.057     2.230     2.335
    35   1 H        0.925     0.048     2.348     2.396

Wiberg/Mayer (AO) data.
largest (>0.10) Wiberg bond orders for each atom

     #   Z sym  total        # sym  WBO       # sym  WBO       # sym  WBO
 ---------------------------------------------------------------------------
     1   8 O    1.948 --     2 C    1.003    15 H    0.887
     2   6 C    3.957 --     1 O    1.003     3 C    0.972    16 H    0.967
                            17 H    0.963
     3   6 C    3.940 --    11 C    0.991     2 C    0.972     4 N    0.950
                            18 H    0.949
     4   7 N    3.715 --     8 C    1.366     5 C    1.228     3 C    0.950
     5   6 C    3.950 --     6 C    1.591     4 N    1.228    19 H    0.960
     6   6 C    3.949 --     5 C    1.591     7 N    1.226    20 H    0.962
     7   7 N    3.716 --     8 C    1.366     6 C    1.226     9 C    0.967
     8   6 C    3.947 --     7 N    1.366     4 N    1.366    21 H    0.952
     9   6 C    3.939 --    10 C    1.001    22 H    0.967     7 N    0.967
                            23 H    0.964
    10   6 C    3.981 --     9 C    1.001    24 H    0.985    26 H    0.984
                            25 H    0.977
    11   6 C    3.984 --     3 C    0.991    12 C    0.988    28 H    0.972
                            27 H    0.970
    12   6 C    3.991 --    13 C    1.011    14 C    1.007    11 C    0.988
                            29 H    0.967
    13   6 C    3.994 --    12 C    1.011    30 H    0.986    32 H    0.983
                            31 H    0.983
    14   6 C    3.992 --    12 C    1.007    35 H    0.986    33 H    0.985
                            34 H    0.984
    15   1 H    0.902 --     1 O    0.887
    16   1 H    0.998 --     2 C    0.967
    17   1 H    0.996 --     2 C    0.963
    18   1 H    0.992 --     3 C    0.949
    19   1 H    0.989 --     5 C    0.960
    20   1 H    0.989 --     6 C    0.962
    21   1 H    0.985 --     8 C    0.952
    22   1 H    0.993 --     9 C    0.967
    23   1 H    0.991 --     9 C    0.964
    24   1 H    0.996 --    10 C    0.985
    25   1 H    0.992 --    10 C    0.977
    26   1 H    0.996 --    10 C    0.984
    27   1 H    0.996 --    11 C    0.970
    28   1 H    0.997 --    11 C    0.972
    29   1 H    0.999 --    12 C    0.967
    30   1 H    0.998 --    13 C    0.986
    31   1 H    0.996 --    13 C    0.983
    32   1 H    0.999 --    13 C    0.983
    33   1 H    0.998 --    14 C    0.985
    34   1 H    0.996 --    14 C    0.984
    35   1 H    0.998 --    14 C    0.986
 ---------------------------------------------------------------------------

molecular dipole:
                 x           y           z       tot (Debye)
 q only:        5.983       1.232      -4.869
   full:        5.900       1.107      -4.609      19.237

           -------------------------------------------------
          | TOTAL ENERGY              -43.824556241420 Eh   |
          | GRADIENT NORM               0.000490403548 Eh/α |
          | HOMO-LUMO GAP               3.764545525210 eV   |
           -------------------------------------------------

 * finished run on 2024/12/20 at 06:44:15.245
