   * xtb version 6.7.1 (edcfbbe) compiled by 'conda@3ef47c1a292c' on 2024-11-25

   ID    Z sym.   atoms
    1    9 F      1, 7-17, 26
    2    6 C      2-5, 18, 19, 21-25
    3   16 S      6
    4    7 N      20
    5    1 H      27-35

          program call               : xtb C0437.xyz --opt --namespace C0437 --charge +1
          :  Hamiltonian                  GFN2-xTB          :
 * total energy  :   -58.4563737 Eh     change       -0.9680321E-08 Eh
 * total energy  :   -92.3089360 Eh     change       -0.3385256E+02 Eh
 * total energy  :   -93.4101541 Eh     change       -0.1101218E+01 Eh
 * total energy  :   -94.1996658 Eh     change       -0.7895117E+00 Eh
 * total energy  :   -94.7657606 Eh     change       -0.5660948E+00 Eh
 * total energy  :   -94.9429439 Eh     change       -0.1771833E+00 Eh
 * total energy  :   -95.1083353 Eh     change       -0.1653915E+00 Eh
 * total energy  :   -95.2194352 Eh     change       -0.1110998E+00 Eh
 * total energy  :   -95.2901001 Eh     change       -0.7066491E-01 Eh
 * total energy  :   -95.3367317 Eh     change       -0.4663159E-01 Eh
 * total energy  :   -95.4970430 Eh     change       -0.2037273E-04 Eh
 * total energy  :   -95.4970587 Eh     change       -0.1570206E-04 Eh
 * total energy  :   -95.4970674 Eh     change       -0.8783385E-05 Eh
 * total energy  :   -95.4970785 Eh     change       -0.1106496E-04 Eh
 * total energy  :   -95.4970860 Eh     change       -0.7493749E-05 Eh
 * total energy  :   -95.4970943 Eh     change       -0.8317038E-05 Eh
 * total energy  :   -95.4971008 Eh     change       -0.6437787E-05 Eh
 * total energy  :   -95.4971050 Eh     change       -0.4292797E-05 Eh
 * total energy  :   -95.4971089 Eh     change       -0.3877856E-05 Eh
   *** GEOMETRY OPTIMIZATION CONVERGED AFTER 68 ITERATIONS ***

 final structure:
================
35
 xtb: 6.7.1 (edcfbbe)
F            0.56302725991256        0.38632393248162       -1.31678099868311
C            1.65678863457740        0.23369299238085       -0.54224024638146
C            1.73724343023523       -1.23915336996305       -0.00914193682613
C            1.24730706534184       -2.38055116814557       -0.95878686284448
C            2.07762670722963       -2.56414400948864       -2.26583125664598
S            6.12644910703950       -1.39421634117343       -2.55908115601515
F            5.59697837332953       -0.81897468509429       -1.11346864303842
F            4.74360124615512       -0.61119793900753       -3.22317371598666
F            6.95428252936090       -0.05392813871375       -2.93405226656337
F            7.46648648523443       -2.00912263714669       -1.79617277996227
F            3.39987734116904       -2.57242571863374       -2.01590408809593
F            1.77688360861600       -3.69446691839990       -2.86511518681794
F            1.85121320934403       -1.55902542100646       -3.10662882893965
F            1.30932796491524       -3.53121288904555       -0.27182791708192
F           -0.03185302127083       -2.17815864955548       -1.30153439935758
F            3.01660752489476       -1.50437499000621        0.33916302757389
F            1.01356304412476       -1.32349463460188        1.11534650780343
C            2.90577832709966        0.71487513464228       -1.27537901504211
C            2.91350259639809        2.23563625748919       -1.47004550991018
N            3.28852770333745        2.94406278087974       -0.25337683794527
C            2.39614194988439        3.68814428021014        0.40689973527238
C            2.73712444623654        4.33669862677329        1.57674623982883
C            4.02776528348787        4.21058383363854        2.07266530138671
C            4.94224992160874        3.43763174745901        1.36609855196345
C            4.54221148904501        2.81636838364838        0.20270966994521
F            1.43605131095673        1.02016034141108        0.54739400149148
H            3.78805155208451        0.39376130561059       -0.72369806792921
H            2.92877720895121        0.25912562939103       -2.26393693960167
H            3.64305539726473        2.46774159307390       -2.25001467282575
H            1.92928899343055        2.57421336907908       -1.80039794265208
H            1.39808099229127        3.75491255180478       -0.00049795575999
H            1.99705581742799        4.92860498734561        2.09098093665042
H            4.31652238877584        4.70400789815834        2.98757363588891
H            5.95590755428779        3.31640960099558        1.71302460074041
H            5.22531655725941        2.21294226354021       -0.37809498362251

          :  Hamiltonian                  GFN2-xTB          :
         :: total energy             -95.497108923672 Eh    ::
         :: gradient norm              0.000477803441 Eh/a0 ::
         :: HOMO-LUMO gap              3.153602080912 eV    ::
         :: SCC energy               -96.021488257355 Eh    ::
         :: -> dispersion             -0.034960585419 Eh    ::
         :: repulsion energy           0.524379333683 Eh    ::

    * Orbital Energies and Occupations

         #    Occupation            Energy/Eh            Energy/eV
      -------------------------------------------------------------
         1        2.0000           -1.0415522             -28.3421
       ...           ...                  ...                  ...
        65        2.0000           -0.6393533             -17.3977
        66        2.0000           -0.6377545             -17.3542
        67        2.0000           -0.6319596             -17.1965
        68        2.0000           -0.6255747             -17.0228
        69        2.0000           -0.6249250             -17.0051
        70        2.0000           -0.6228900             -16.9497
        71        2.0000           -0.6180005             -16.8167
        72        2.0000           -0.6163704             -16.7723
        73        2.0000           -0.6157146             -16.7544
        74        2.0000           -0.6156456             -16.7526
        75        2.0000           -0.6151088             -16.7380
        76        2.0000           -0.6089323             -16.5699
        77        2.0000           -0.5803187             -15.7913 (HOMO)
        78                         -0.4644260             -12.6377 (LUMO)
        79                         -0.4314608             -11.7406
        80                         -0.3456081              -9.4045
        81                         -0.3114959              -8.4762
        82                         -0.2286616              -6.2222
        83                         -0.1912201              -5.2034
        84                         -0.1887161              -5.1352
        85                         -0.1862263              -5.0675
        86                         -0.1830995              -4.9824
        87                         -0.1723412              -4.6896
        88                         -0.1459761              -3.9722
       ...                                ...                  ...
       118                          0.6359513              17.3051
      -------------------------------------------------------------
                  HL-Gap            0.1158927 Eh            3.1536 eV

     #   Z          covCN         q      C6AA      α(0)
     1   9 F        0.788    -0.195    11.189     3.951
     2   6 C        3.517     0.315    16.991     6.083
     3   6 C        3.515     0.311    17.056     6.099
     4   6 C        3.516     0.313    17.017     6.089
     5   6 C        3.328     0.484    17.421     6.629
     6  16 S        3.141     1.911    84.156    15.440
     7   9 F        0.787    -0.443    14.076     4.432
     8   9 F        0.782    -0.558    15.686     4.678
     9   9 F        0.787    -0.410    13.650     4.364
    10   9 F        0.786    -0.495    14.782     4.541
    11   9 F        0.790    -0.199    11.224     3.958
    12   9 F        0.791    -0.134    10.577     3.842
    13   9 F        0.791    -0.167    10.903     3.901
    14   9 F        0.790    -0.153    10.764     3.876
    15   9 F        0.789    -0.156    10.794     3.881
    16   9 F        0.789    -0.190    11.137     3.942
    17   9 F        0.790    -0.151    10.739     3.871
    18   6 C        3.804    -0.113    22.652     6.776
    19   6 C        3.758    -0.038    21.298     6.579
    20   7 N        2.749     0.118    19.219     6.511
    21   6 C        2.888     0.038    27.156     8.544
    22   6 C        2.916    -0.006    28.183     8.705
    23   6 C        2.925     0.017    27.623     8.619
    24   6 C        2.915    -0.008    28.208     8.709
    25   6 C        2.892     0.028    27.371     8.578
    26   9 F        0.789    -0.205    11.286     3.968
    27   1 H        0.925     0.123     1.592     1.973
    28   1 H        0.925     0.139     1.465     1.893
    29   1 H        0.924     0.123     1.589     1.971
    30   1 H        0.924     0.114     1.665     2.018
    31   1 H        0.926     0.119     1.619     1.990
    32   1 H        0.926     0.116     1.647     2.007
    33   1 H        0.926     0.114     1.666     2.018
    34   1 H        0.926     0.116     1.645     2.006
    35   1 H        0.926     0.124     1.585     1.969

Wiberg/Mayer (AO) data.
largest (>0.10) Wiberg bond orders for each atom

     #   Z sym  total        # sym  WBO       # sym  WBO       # sym  WBO
 ---------------------------------------------------------------------------
     1   9 F    1.074 --     2 C    0.962
     2   6 C    3.865 --    18 C    0.971     1 F    0.962    26 F    0.947
                             3 C    0.905
     3   6 C    3.884 --    17 F    0.991    16 F    0.960     4 C    0.906
                             2 C    0.905
     4   6 C    3.899 --    15 F    0.985    14 F    0.984     3 C    0.906
                             5 C    0.892
     5   6 C    3.871 --    12 F    1.005    13 F    0.971    11 F    0.943
                             4 C    0.892
     6  16 S    3.361 --     9 F    0.934     7 F    0.880    10 F    0.823
                             8 F    0.720
     7   9 F    0.928 --     6 S    0.880
     8   9 F    0.762 --     6 S    0.720
     9   9 F    0.977 --     6 S    0.934
    10   9 F    0.861 --     6 S    0.823
    11   9 F    1.077 --     5 C    0.943
    12   9 F    1.144 --     5 C    1.005
    13   9 F    1.108 --     5 C    0.971
    14   9 F    1.107 --     4 C    0.984
    15   9 F    1.105 --     4 C    0.985
    16   9 F    1.074 --     3 C    0.960
    17   9 F    1.114 --     3 C    0.991
    18   6 C    3.963 --    19 C    0.993     2 C    0.971    27 H    0.952
                            28 H    0.946
    19   6 C    3.940 --    18 C    0.993    20 N    0.968    30 H    0.962
                            29 H    0.951
    20   7 N    3.768 --    21 C    1.333    25 C    1.319    19 C    0.968
    21   6 C    3.954 --    22 C    1.455    20 N    1.333    31 H    0.952
    22   6 C    3.979 --    21 C    1.455    23 C    1.427    32 H    0.957
    23   6 C    3.967 --    22 C    1.427    24 C    1.414    33 H    0.960
    24   6 C    3.979 --    25 C    1.471    23 C    1.414    34 H    0.957
    25   6 C    3.953 --    24 C    1.471    20 N    1.319    35 H    0.950
    26   9 F    1.060 --     2 C    0.947
    27   1 H    0.985 --    18 C    0.952
    28   1 H    0.980 --    18 C    0.946
    29   1 H    0.985 --    19 C    0.951
    30   1 H    0.987 --    19 C    0.962
    31   1 H    0.986 --    21 C    0.952
    32   1 H    0.986 --    22 C    0.957
    33   1 H    0.987 --    23 C    0.960
    34   1 H    0.986 --    24 C    0.957
    35   1 H    0.985 --    25 C    0.950
 ---------------------------------------------------------------------------

molecular dipole:
                 x           y           z       tot (Debye)
 q only:        7.344       4.577      -1.057
   full:        7.421       4.525      -1.068      22.258

           -------------------------------------------------
          | TOTAL ENERGY              -95.497108923672 Eh   |
          | GRADIENT NORM               0.000477803441 Eh/α |
          | HOMO-LUMO GAP               3.153602080912 eV   |
           -------------------------------------------------

 * finished run on 2024/12/20 at 06:44:34.850
