   * xtb version 6.7.1 (edcfbbe) compiled by 'conda@3ef47c1a292c' on 2024-11-25

   ID    Z sym.   atoms
    1    8 O      1, 3
    2    6 C      2, 4, 5, 7-12
    3    7 N      6
    4    1 H      13-22

          program call               : xtb C0439.xyz --opt --namespace C0439 --charge +1
          :  Hamiltonian                  GFN2-xTB          :
 * total energy  :   -34.9927303 Eh     change       -0.2961045E-09 Eh
 * total energy  :   -34.9957235 Eh     change       -0.2993179E-02 Eh
 * total energy  :   -34.9964112 Eh     change       -0.6877755E-03 Eh
 * total energy  :   -34.9965423 Eh     change       -0.1310345E-03 Eh
 * total energy  :   -34.9965950 Eh     change       -0.5274262E-04 Eh
 * total energy  :   -34.9966074 Eh     change       -0.1234151E-04 Eh
 * total energy  :   -34.9966179 Eh     change       -0.1050714E-04 Eh
 * total energy  :   -34.9966320 Eh     change       -0.1412910E-04 Eh
 * total energy  :   -34.9966511 Eh     change       -0.1911965E-04 Eh
 * total energy  :   -34.9966637 Eh     change       -0.1260290E-04 Eh
 * total energy  :   -34.9967955 Eh     change       -0.3556224E-04 Eh
 * total energy  :   -34.9968108 Eh     change       -0.1531534E-04 Eh
 * total energy  :   -34.9968187 Eh     change       -0.7882164E-05 Eh
 * total energy  :   -34.9968273 Eh     change       -0.8639161E-05 Eh
 * total energy  :   -34.9968358 Eh     change       -0.8488236E-05 Eh
 * total energy  :   -34.9968509 Eh     change       -0.1507699E-04 Eh
 * total energy  :   -34.9968633 Eh     change       -0.1240843E-04 Eh
 * total energy  :   -34.9968738 Eh     change       -0.1055747E-04 Eh
 * total energy  :   -34.9968781 Eh     change       -0.4273556E-05 Eh
   *** GEOMETRY OPTIMIZATION CONVERGED AFTER 22 ITERATIONS ***

 final structure:
================
22
 xtb: 6.7.1 (edcfbbe)
O            0.65305271562391       -0.36525157107705       -0.08686282395125
C            0.22449959365969       -0.18020997616898        1.15938137476399
O            0.93366267195301       -0.01078385901219        2.10761409819803
C           -1.26754514889295       -0.19792390151476        1.26661084663398
C           -2.04806772977078       -0.26550685916428        0.19293749377555
N           -3.45912171846098       -0.27645761984157        0.20797563955346
C           -4.15192181163525        0.24564125572205        1.23277822843384
C           -5.53098882013634        0.20967392606426        1.23750427941040
C           -6.20700182438642       -0.36396029220301        0.17314567812805
C           -5.48439902585060       -0.89449957043918       -0.90213757157918
C           -4.10291103915683       -0.82350219536086       -0.83925883486124
C           -6.17305111644780       -1.50929064419032       -2.06581992663234
H            1.62423462084355       -0.34597851477061       -0.12454382310583
H           -1.62276984032885       -0.15355153750176        2.28549715549912
H           -1.60810176615223       -0.34921844198049       -0.79153348442293
H           -3.59380079001575        0.70708912470180        2.03143101046165
H           -6.06834110535496        0.63622688079788        2.06935269304767
H           -7.28572562922693       -0.39692338338486        0.16348304953717
H           -3.49086527223515       -1.22055107150076       -1.63676831673569
H           -6.74430616581451       -2.37928783180419       -1.74413905144881
H           -6.88175414122536       -0.80503036752076       -2.49847221675586
H           -5.47014665698839       -1.81841354985042       -2.83299549794985

          :  Hamiltonian                  GFN2-xTB          :
         :: total energy             -34.996878123639 Eh    ::
         :: gradient norm              0.000902816392 Eh/a0 ::
         :: HOMO-LUMO gap              2.170338257095 eV    ::
         :: SCC energy               -35.512768259570 Eh    ::
         :: -> dispersion             -0.016594780498 Eh    ::
         :: repulsion energy           0.515890135931 Eh    ::

    * Orbital Energies and Occupations

         #    Occupation            Energy/Eh            Energy/eV
      -------------------------------------------------------------
         1        2.0000           -0.8862638             -24.1165
       ...           ...                  ...                  ...
        19        2.0000           -0.6797067             -18.4958
        20        2.0000           -0.6676364             -18.1673
        21        2.0000           -0.6612882             -17.9946
        22        2.0000           -0.6380165             -17.3613
        23        2.0000           -0.6334026             -17.2358
        24        2.0000           -0.6323135             -17.2061
        25        2.0000           -0.6299164             -17.1409
        26        2.0000           -0.6233304             -16.9617
        27        2.0000           -0.6110128             -16.6265
        28        2.0000           -0.6078917             -16.5416
        29        2.0000           -0.5999147             -16.3245
        30        2.0000           -0.5913431             -16.0913
        31        2.0000           -0.5579866             -15.1836 (HOMO)
        32                         -0.4782282             -13.0133 (LUMO)
        33                         -0.4271560             -11.6235
        34                         -0.4132979             -11.2464
        35                         -0.3206948              -8.7265
        36                         -0.3012366              -8.1971
        37                         -0.1726633              -4.6984
        38                         -0.0917694              -2.4972
        39                         -0.0649057              -1.7662
        40                         -0.0564742              -1.5367
        41                         -0.0466091              -1.2683
        42                         -0.0221217              -0.6020
       ...                                ...                  ...
        58                          0.5828468              15.8601
      -------------------------------------------------------------
                  HL-Gap            0.0797585 Eh            2.1703 eV

     #   Z          covCN         q      C6AA      α(0)
     1   8 O        1.660    -0.363    20.152     6.060
     2   6 C        2.693     0.366    20.796     7.464
     3   8 O        0.857    -0.345    20.610     6.087
     4   6 C        2.889    -0.044    29.095     8.843
     5   6 C        2.863     0.010    27.779     8.639
     6   7 N        2.750     0.119    19.210     6.509
     7   6 C        2.889     0.026    27.417     8.585
     8   6 C        2.912    -0.011    28.288     8.721
     9   6 C        2.929     0.001    27.999     8.678
    10   6 C        2.960     0.054    26.798     8.491
    11   6 C        2.905     0.017    27.632     8.619
    12   6 C        3.759    -0.136    23.162     6.861
    13   1 H        0.804     0.358     0.570     1.186
    14   1 H        0.926     0.108     1.711     2.046
    15   1 H        0.925     0.120     1.612     1.985
    16   1 H        0.926     0.111     1.685     2.030
    17   1 H        0.926     0.110     1.696     2.037
    18   1 H        0.926     0.107     1.719     2.051
    19   1 H        0.926     0.108     1.714     2.047
    20   1 H        0.925     0.102     1.770     2.081
    21   1 H        0.925     0.100     1.783     2.088
    22   1 H        0.925     0.081     1.965     2.192

Wiberg/Mayer (AO) data.
largest (>0.10) Wiberg bond orders for each atom

     #   Z sym  total        # sym  WBO       # sym  WBO       # sym  WBO
 ---------------------------------------------------------------------------
     1   8 O    2.218 --     2 C    1.148    13 H    0.848     3 O    0.190
     2   6 C    3.935 --     3 O    1.778     1 O    1.148     4 C    0.983
     3   8 O    2.087 --     2 C    1.778     1 O    0.190
     4   6 C    3.978 --     5 C    1.840     2 C    0.983    14 H    0.952
     5   6 C    3.945 --     4 C    1.840     6 N    1.037    15 H    0.942
     6   7 N    3.773 --     7 C    1.296    11 C    1.287     5 C    1.037
     7   6 C    3.956 --     8 C    1.456     6 N    1.296    16 H    0.952
     8   6 C    3.981 --     7 C    1.456     9 C    1.438    17 H    0.958
     9   6 C    3.969 --     8 C    1.438    10 C    1.359    18 H    0.960
    10   6 C    3.979 --    11 C    1.429     9 C    1.359    12 C    1.048
    11   6 C    3.949 --    10 C    1.429     6 N    1.287    19 H    0.953
    12   6 C    3.980 --    10 C    1.048    22 H    0.980    21 H    0.952
                            20 H    0.948
    13   1 H    0.872 --     1 O    0.848
    14   1 H    0.988 --     4 C    0.952
    15   1 H    0.985 --     5 C    0.942
    16   1 H    0.987 --     7 C    0.952
    17   1 H    0.987 --     8 C    0.958
    18   1 H    0.988 --     9 C    0.960
    19   1 H    0.988 --    11 C    0.953
    20   1 H    0.989 --    12 C    0.948
    21   1 H    0.990 --    12 C    0.952
    22   1 H    0.993 --    12 C    0.980
 ---------------------------------------------------------------------------

molecular dipole:
                 x           y           z       tot (Debye)
 q only:       -8.068      -0.922      -0.603
   full:       -7.965      -0.903      -0.618      20.436

           -------------------------------------------------
          | TOTAL ENERGY              -34.996878123639 Eh   |
          | GRADIENT NORM               0.000902816392 Eh/α |
          | HOMO-LUMO GAP               2.170338257095 eV   |
           -------------------------------------------------

 * finished run on 2024/12/20 at 06:44:44.498
