   * xtb version 6.7.1 (edcfbbe) compiled by 'conda@3ef47c1a292c' on 2024-11-25

   ID    Z sym.   atoms
    1    6 C      1-6, 8-13, 15-26
    2   16 S      7
    3    8 O      14
    4    1 H      27-45

          program call               : xtb C0433.xyz --opt --namespace C0433 --charge +1
          :  Hamiltonian                  GFN2-xTB          :
 * total energy  :   -67.9164891 Eh     change       -0.5287575E-09 Eh
 * total energy  :   -67.9237306 Eh     change       -0.7241493E-02 Eh
 * total energy  :   -67.9255234 Eh     change       -0.1792864E-02 Eh
 * total energy  :   -67.9261717 Eh     change       -0.6482121E-03 Eh
 * total energy  :   -67.9264728 Eh     change       -0.3011831E-03 Eh
 * total energy  :   -67.9266064 Eh     change       -0.1335271E-03 Eh
 * total energy  :   -67.9267001 Eh     change       -0.9375715E-04 Eh
 * total energy  :   -67.9267581 Eh     change       -0.5801852E-04 Eh
 * total energy  :   -67.9268177 Eh     change       -0.5956920E-04 Eh
 * total energy  :   -67.9268995 Eh     change       -0.8178400E-04 Eh
 * total energy  :   -67.9334571 Eh     change       -0.2246215E-04 Eh
 * total energy  :   -67.9334783 Eh     change       -0.2114589E-04 Eh
 * total energy  :   -67.9334960 Eh     change       -0.1777203E-04 Eh
 * total energy  :   -67.9335114 Eh     change       -0.1532866E-04 Eh
 * total energy  :   -67.9335262 Eh     change       -0.1486394E-04 Eh
 * total energy  :   -67.9335432 Eh     change       -0.1701921E-04 Eh
 * total energy  :   -67.9335636 Eh     change       -0.2039748E-04 Eh
 * total energy  :   -67.9335880 Eh     change       -0.2435054E-04 Eh
 * total energy  :   -67.9335922 Eh     change       -0.4173734E-05 Eh
   *** GEOMETRY OPTIMIZATION CONVERGED AFTER 94 ITERATIONS ***

 final structure:
================
45
 xtb: 6.7.1 (edcfbbe)
C            1.78051522853742       -1.19177468294441       -0.36180969533269
C            1.32569836122121       -1.12491709630511       -1.66848958226034
C            0.06518154346991       -0.60622315544348       -1.91429092756718
C           -0.71966081101430       -0.16127165796297       -0.86248126055947
C           -0.24910443892315       -0.23150978006326        0.43979039836022
C            1.00979246240771       -0.74562517197439        0.70042297433587
S            3.44645041592954       -1.83120145729540       -0.10438184466611
C            3.94850133433161       -0.77158664976516        1.26041195847063
C            4.19152265500628        0.53907032086333        0.83627747577467
C            4.59316802320423        1.48179162257695        1.77579695572052
C            4.74222174432069        1.10095455167613        3.09761595291446
C            4.49935052310898       -0.20355139247109        3.50155269362636
C            4.10595370884658       -1.15677895684064        2.57669504387937
O            4.03156653018268        0.73554645090458       -0.49003808885151
C            3.96214392099656        2.02810346549651       -1.01131646271740
C            4.81179273552564        2.35085812861211       -2.05786198934693
C            4.72367981874372        3.60370532277513       -2.63883621268196
C            3.79554707230442        4.52194117657571       -2.17691806191544
C            2.94472006299635        4.18618826291526       -1.13677031585244
C            3.02013798869492        2.93555091068871       -0.54901894641774
C            3.18950856262470       -3.41143581585021        0.72930347958140
C            4.34092821083290       -4.13214531339186        1.01634579128995
C            4.22807896212492       -5.36801844524216        1.62828603032540
C            2.97547378759164       -5.87833984912536        1.93303418350640
C            1.83477387702992       -5.15510804030226        1.62586737080665
C            1.93324414289116       -3.91399147686717        1.01624072199953
H            1.95058387059135       -1.46800009511421       -2.47782349514945
H           -0.29902793668257       -0.54712319528013       -2.92753398600876
H           -1.70005376448737        0.24447883669628       -1.05650248762211
H           -0.85979146809908        0.11540082314248        1.25871445953030
H            1.38158111448499       -0.79467193828483        1.71322397172222
H            4.79706815106755        2.49452016081219        1.46477031093651
H            5.05817210012647        1.83423502828047        3.82264180479817
H            4.61907980377531       -0.48365616869395        4.53530812663351
H            3.92003153756312       -2.17554664195752        2.87975118357450
H            5.52866588055219        1.62241646270030       -2.40293115435067
H            5.38536807553521        3.86176104357361       -3.45065730105532
H            3.73288306532691        5.49914649711145       -2.62898349161409
H            2.21620368813563        4.89767257791631       -0.78041044809341
H            2.35474993954460        2.66038341243741        0.25694161040770
H            5.30985109267394       -3.72684415522236        0.76750842373032
H            5.11771671019225       -5.93207445019644        1.85928057709493
H            2.88863676099003       -6.84458438537430        2.40416778422237
H            0.85962609730655       -5.55502100233341        1.85477241002770
H            1.04151885839719       -3.35919408142823        0.76979405882259

          :  Hamiltonian                  GFN2-xTB          :
         :: total energy             -67.933592162531 Eh    ::
         :: gradient norm              0.000311159543 Eh/a0 ::
         :: HOMO-LUMO gap              2.979456941130 eV    ::
         :: SCC energy               -69.152907445213 Eh    ::
         :: -> dispersion             -0.057319987002 Eh    ::
         :: repulsion energy           1.219315282682 Eh    ::

    * Orbital Energies and Occupations

         #    Occupation            Energy/Eh            Energy/eV
      -------------------------------------------------------------
         1        2.0000           -0.8929316             -24.2979
       ...           ...                  ...                  ...
        51        2.0000           -0.5555509             -15.1173
        52        2.0000           -0.5544506             -15.0874
        53        2.0000           -0.5527969             -15.0424
        54        2.0000           -0.5454330             -14.8420
        55        2.0000           -0.5418195             -14.7437
        56        2.0000           -0.5402809             -14.7018
        57        2.0000           -0.5398239             -14.6894
        58        2.0000           -0.5368853             -14.6094
        59        2.0000           -0.5320324             -14.4773
        60        2.0000           -0.5296728             -14.4131
        61        2.0000           -0.5164096             -14.0522
        62        2.0000           -0.5080732             -13.8254
        63        2.0000           -0.4959460             -13.4954 (HOMO)
        64                         -0.3864530             -10.5159 (LUMO)
        65                         -0.3812712             -10.3749
        66                         -0.3674978             -10.0001
        67                         -0.3601461              -9.8001
        68                         -0.3578708              -9.7382
        69                         -0.3522672              -9.5857
        70                         -0.3391191              -9.2279
        71                         -0.3275387              -8.9128
        72                         -0.3264510              -8.8832
        73                         -0.3196854              -8.6991
        74                         -0.2505738              -6.8185
       ...                                ...                  ...
       128                          0.5692466              15.4900
      -------------------------------------------------------------
                  HL-Gap            0.1094930 Eh            2.9795 eV

     #   Z          covCN         q      C6AA      α(0)
     1   6 C        2.971     0.013    27.715     8.635
     2   6 C        2.964    -0.025    28.617     8.774
     3   6 C        2.922    -0.016    28.400     8.739
     4   6 C        2.919    -0.015    28.375     8.735
     5   6 C        2.922    -0.019    28.481     8.752
     6   6 C        2.942    -0.028    28.700     8.786
     7  16 S        3.179     0.283   130.049    19.194
     8   6 C        2.973    -0.022    28.557     8.766
     9   6 C        2.952     0.151    24.717     8.154
    10   6 C        2.917    -0.053    29.311     8.878
    11   6 C        2.920    -0.017    28.443     8.746
    12   6 C        2.923    -0.032    28.789     8.799
    13   6 C        2.928    -0.030    28.739     8.792
    14   8 O        1.720    -0.260    18.300     5.776
    15   6 C        2.870     0.130    25.153     8.221
    16   6 C        2.918    -0.044    29.103     8.847
    17   6 C        2.922    -0.022    28.563     8.764
    18   6 C        2.919    -0.026    28.663     8.779
    19   6 C        2.922    -0.025    28.624     8.774
    20   6 C        2.917    -0.050    29.248     8.868
    21   6 C        2.970     0.005    27.916     8.667
    22   6 C        2.972    -0.028    28.701     8.788
    23   6 C        2.921    -0.016    28.413     8.741
    24   6 C        2.919    -0.015    28.378     8.736
    25   6 C        2.923    -0.017    28.436     8.745
    26   6 C        2.937    -0.029    28.716     8.789
    27   1 H        0.926     0.065     2.144     2.290
    28   1 H        0.926     0.072     2.059     2.244
    29   1 H        0.926     0.072     2.061     2.245
    30   1 H        0.926     0.068     2.107     2.270
    31   1 H        0.926     0.052     2.292     2.367
    32   1 H        0.926     0.070     2.090     2.261
    33   1 H        0.926     0.075     2.032     2.229
    34   1 H        0.926     0.072     2.066     2.248
    35   1 H        0.926     0.059     2.214     2.327
    36   1 H        0.926     0.058     2.225     2.333
    37   1 H        0.926     0.061     2.191     2.315
    38   1 H        0.926     0.060     2.200     2.319
    39   1 H        0.926     0.056     2.250     2.346
    40   1 H        0.926     0.038     2.481     2.463
    41   1 H        0.926     0.060     2.199     2.319
    42   1 H        0.926     0.072     2.061     2.245
    43   1 H        0.926     0.073     2.053     2.241
    44   1 H        0.926     0.070     2.087     2.259
    45   1 H        0.926     0.055     2.262     2.352

Wiberg/Mayer (AO) data.
largest (>0.10) Wiberg bond orders for each atom

     #   Z sym  total        # sym  WBO       # sym  WBO       # sym  WBO
 ---------------------------------------------------------------------------
     1   6 C    3.940 --     2 C    1.410     6 C    1.404     7 S    0.935
                             4 C    0.103
     2   6 C    3.987 --     3 C    1.436     1 C    1.410    27 H    0.965
                             5 C    0.108
     3   6 C    3.987 --     4 C    1.439     2 C    1.436    28 H    0.965
                             6 C    0.110
     4   6 C    3.981 --     3 C    1.439     5 C    1.434    29 H    0.967
                             1 C    0.103
     5   6 C    3.988 --     6 C    1.440     4 C    1.434    30 H    0.966
                             2 C    0.108
     6   6 C    3.989 --     5 C    1.440     1 C    1.404    31 H    0.964
                             3 C    0.110
     7  16 S    3.116 --     8 C    0.935     1 C    0.935    21 C    0.934
     8   6 C    3.926 --    13 C    1.421     9 C    1.314     7 S    0.935
     9   6 C    3.940 --    10 C    1.362     8 C    1.314    14 O    1.078
    10   6 C    3.985 --    11 C    1.451     9 C    1.362    32 H    0.961
                            13 C    0.105
    11   6 C    3.985 --    10 C    1.451    12 C    1.426    33 H    0.966
    12   6 C    3.983 --    13 C    1.430    11 C    1.426    34 H    0.965
    13   6 C    3.986 --    12 C    1.430     8 C    1.421    35 H    0.962
                            10 C    0.105
    14   8 O    2.315 --     9 C    1.078    15 C    0.953
    15   6 C    3.910 --    16 C    1.397    20 C    1.395    14 O    0.953
                            18 C    0.103
    16   6 C    3.986 --    17 C    1.441    15 C    1.397    36 H    0.967
                            19 C    0.111
    17   6 C    3.989 --    16 C    1.441    18 C    1.440    37 H    0.968
                            20 C    0.111
    18   6 C    3.987 --    17 C    1.440    19 C    1.438    38 H    0.969
                            15 C    0.103
    19   6 C    3.989 --    20 C    1.442    18 C    1.438    39 H    0.969
                            16 C    0.111
    20   6 C    3.988 --    19 C    1.442    15 C    1.395    40 H    0.968
                            17 C    0.111
    21   6 C    3.934 --    26 C    1.417    22 C    1.398     7 S    0.934
                            24 C    0.104
    22   6 C    3.988 --    23 C    1.444    21 C    1.398    41 H    0.965
                            25 C    0.110
    23   6 C    3.986 --    22 C    1.444    24 C    1.432    42 H    0.965
                            26 C    0.108
    24   6 C    3.986 --    25 C    1.442    23 C    1.432    43 H    0.967
                            21 C    0.104
    25   6 C    3.988 --    24 C    1.442    26 C    1.431    44 H    0.966
                            22 C    0.110
    26   6 C    3.988 --    25 C    1.431    21 C    1.417    45 H    0.962
                            23 C    0.108
    27   1 H    0.996 --     2 C    0.965
    28   1 H    0.994 --     3 C    0.965
    29   1 H    0.994 --     4 C    0.967
    30   1 H    0.995 --     5 C    0.966
    31   1 H    0.997 --     6 C    0.964
    32   1 H    0.994 --    10 C    0.961
    33   1 H    0.993 --    11 C    0.966
    34   1 H    0.994 --    12 C    0.965
    35   1 H    0.996 --    13 C    0.962
    36   1 H    0.997 --    16 C    0.967
    37   1 H    0.996 --    17 C    0.968
    38   1 H    0.996 --    18 C    0.969
    39   1 H    0.997 --    19 C    0.969
    40   1 H    0.999 --    20 C    0.968
    41   1 H    0.996 --    22 C    0.965
    42   1 H    0.994 --    23 C    0.965
    43   1 H    0.994 --    24 C    0.967
    44   1 H    0.995 --    25 C    0.966
    45   1 H    0.997 --    26 C    0.962
 ---------------------------------------------------------------------------

molecular dipole:
                 x           y           z       tot (Debye)
 q only:        5.281      -2.139       0.955
   full:        5.247      -2.089       1.080      14.614

           -------------------------------------------------
          | TOTAL ENERGY              -67.933592162531 Eh   |
          | GRADIENT NORM               0.000311159543 Eh/α |
          | HOMO-LUMO GAP               2.979456941130 eV   |
           -------------------------------------------------

 * finished run on 2024/12/20 at 06:44:29.200
