   * xtb version 6.7.1 (edcfbbe) compiled by 'conda@3ef47c1a292c' on 2024-11-25

   ID    Z sym.   atoms
    1    7 N      1, 4
    2    6 C      2, 3, 5-9
    3    1 H      10-16

          program call               : xtb C0430.xyz --opt --namespace C0430 --charge +1
          :  Hamiltonian                  GFN2-xTB          :
 * total energy  :   -23.8884107 Eh     change       -0.3138290E-09 Eh
 * total energy  :   -23.9204664 Eh     change       -0.3205568E-01 Eh
 * total energy  :   -23.9220125 Eh     change       -0.1546093E-02 Eh
 * total energy  :   -23.9221784 Eh     change       -0.1659664E-03 Eh
 * total energy  :   -23.9222149 Eh     change       -0.3646030E-04 Eh
 * total energy  :   -23.9222355 Eh     change       -0.2061735E-04 Eh
 * total energy  :   -23.9222424 Eh     change       -0.6877238E-05 Eh
 * total energy  :   -23.9222440 Eh     change       -0.1613413E-05 Eh
 * total energy  :   -23.9222447 Eh     change       -0.6801619E-06 Eh
   *** GEOMETRY OPTIMIZATION CONVERGED AFTER 9 ITERATIONS ***

 final structure:
================
16
 xtb: 6.7.1 (edcfbbe)
N            1.22236330677629        0.03905358241217        0.06064851759978
C            2.35769603389651       -0.02561631892379        0.01336583140298
C            3.81377362640804       -0.06838260285333       -0.02936017902314
N            4.36623204411509        1.02076568828907        0.76570998649621
C            4.11560762066731        2.28267798987122        0.38653924418914
C            4.58354936818022        3.34968759022685        1.12281295185186
C            5.32466196887984        3.10844175765130        2.27439879930865
C            5.57076097489108        1.79315338191242        2.64759640014307
C            5.07365489728108        0.76540983079938        1.87201771545244
H            4.15119535468170       -1.03545316969078        0.35519922458056
H            4.13271851523014        0.02548790631487       -1.07456255526097
H            3.52954215305486        2.42496402824826       -0.51061670095438
H            4.36854998948951        4.35540549934854        0.79809806308858
H            5.70033002436253        3.92759508112602        2.86769037651228
H            6.14081907913700        1.56212158601438        3.53355793200734
H            5.24148504294871       -0.26893183074654        2.13584439260562

          :  Hamiltonian                  GFN2-xTB          :
         :: total energy             -23.922244680242 Eh    ::
         :: gradient norm              0.000546787874 Eh/a0 ::
         :: HOMO-LUMO gap              2.865487861022 eV    ::
         :: SCC energy               -24.375036885385 Eh    ::
         :: -> dispersion             -0.011521274160 Eh    ::
         :: repulsion energy           0.452792205144 Eh    ::

    * Orbital Energies and Occupations

         #    Occupation            Energy/Eh            Energy/eV
      -------------------------------------------------------------
         1        2.0000           -0.9066856             -24.6722
       ...           ...                  ...                  ...
        10        2.0000           -0.7429239             -20.2160
        11        2.0000           -0.7236474             -19.6914
        12        2.0000           -0.7128265             -19.3970
        13        2.0000           -0.7060285             -19.2120
        14        2.0000           -0.7009940             -19.0750
        15        2.0000           -0.6921580             -18.8346
        16        2.0000           -0.6525275             -17.7562
        17        2.0000           -0.6506503             -17.7051
        18        2.0000           -0.6432898             -17.5048
        19        2.0000           -0.6409237             -17.4404
        20        2.0000           -0.6371298             -17.3372
        21        2.0000           -0.6344485             -17.2642
        22        2.0000           -0.5883271             -16.0092 (HOMO)
        23                         -0.4830224             -13.1437 (LUMO)
        24                         -0.4498562             -12.2412
        25                         -0.3844281             -10.4608
        26                         -0.3696623             -10.0590
        27                         -0.3289535              -8.9513
        28                         -0.1861513              -5.0654
        29                         -0.0958036              -2.6069
        30                         -0.0718637              -1.9555
        31                         -0.0556716              -1.5149
        32                         -0.0470512              -1.2803
        33                         -0.0336417              -0.9154
       ...                                ...                  ...
        43                          0.9864668              26.8431
      -------------------------------------------------------------
                  HL-Gap            0.1053047 Eh            2.8655 eV

     #   Z          covCN         q      C6AA      α(0)
     1   7 N        0.911    -0.126    23.738     7.047
     2   6 C        1.897     0.109    28.405     8.608
     3   6 C        3.760    -0.024    21.052     6.541
     4   7 N        2.755     0.116    19.256     6.517
     5   6 C        2.890     0.036    27.192     8.549
     6   6 C        2.915    -0.005    28.143     8.699
     7   6 C        2.924     0.020    27.570     8.611
     8   6 C        2.915    -0.006    28.162     8.702
     9   6 C        2.886     0.035    27.210     8.552
    10   1 H        0.924     0.127     1.561     1.954
    11   1 H        0.924     0.131     1.525     1.931
    12   1 H        0.926     0.117     1.640     2.003
    13   1 H        0.926     0.119     1.621     1.991
    14   1 H        0.926     0.118     1.631     1.997
    15   1 H        0.926     0.118     1.627     1.995
    16   1 H        0.926     0.114     1.660     2.015

Wiberg/Mayer (AO) data.
largest (>0.10) Wiberg bond orders for each atom

     #   Z sym  total        # sym  WBO       # sym  WBO       # sym  WBO
 ---------------------------------------------------------------------------
     1   7 N    3.049 --     2 C    2.902
     2   6 C    3.956 --     1 N    2.902     3 C    1.014
     3   6 C    3.944 --     2 C    1.014     4 N    0.960    10 H    0.938
                            11 H    0.927
     4   7 N    3.764 --     9 C    1.326     5 C    1.315     3 C    0.960
     5   6 C    3.955 --     6 C    1.471     4 N    1.315    12 H    0.954
     6   6 C    3.978 --     5 C    1.471     7 C    1.414    13 H    0.956
     7   6 C    3.961 --     8 C    1.423     6 C    1.414    14 H    0.959
     8   6 C    3.977 --     9 C    1.459     7 C    1.423    15 H    0.956
     9   6 C    3.955 --     8 C    1.459     4 N    1.326    16 H    0.953
    10   1 H    0.984 --     3 C    0.938
    11   1 H    0.983 --     3 C    0.927
    12   1 H    0.986 --     5 C    0.954
    13   1 H    0.985 --     6 C    0.956
    14   1 H    0.986 --     7 C    0.959
    15   1 H    0.986 --     8 C    0.956
    16   1 H    0.987 --     9 C    0.953
 ---------------------------------------------------------------------------

molecular dipole:
                 x           y           z       tot (Debye)
 q only:        9.249       2.924       2.130
   full:        9.733       2.847       2.083      26.312

           -------------------------------------------------
          | TOTAL ENERGY              -23.922244680242 Eh   |
          | GRADIENT NORM               0.000546787874 Eh/α |
          | HOMO-LUMO GAP               2.865487861022 eV   |
           -------------------------------------------------

 * finished run on 2024/12/20 at 06:44:22.847
