   * xtb version 6.7.1 (edcfbbe) compiled by 'conda@3ef47c1a292c' on 2024-11-25

   ID    Z sym.   atoms
    1    8 O      1, 20, 21
    2    6 C      2-9, 11, 13-18, 22
    3    7 N      10, 12, 19
    4    1 H      23-36

          program call               : xtb C0434.xyz --opt --namespace C0434 --charge +1
          :  Hamiltonian                  GFN2-xTB          :
 * total energy  :   -61.8648007 Eh     change       -0.8917880E-09 Eh
 * total energy  :   -61.8746933 Eh     change       -0.9892607E-02 Eh
 * total energy  :   -61.8766580 Eh     change       -0.1964687E-02 Eh
 * total energy  :   -61.8767902 Eh     change       -0.1322301E-03 Eh
 * total energy  :   -61.8771677 Eh     change       -0.3774595E-03 Eh
 * total energy  :   -61.8772647 Eh     change       -0.9706164E-04 Eh
 * total energy  :   -61.8773317 Eh     change       -0.6699692E-04 Eh
 * total energy  :   -61.8773703 Eh     change       -0.3856949E-04 Eh
 * total energy  :   -61.8774020 Eh     change       -0.3164545E-04 Eh
 * total energy  :   -61.8774266 Eh     change       -0.2462301E-04 Eh
 * total energy  :   -61.8774544 Eh     change       -0.2786416E-04 Eh
 * total energy  :   -61.8774756 Eh     change       -0.2112726E-04 Eh
 * total energy  :   -61.8774902 Eh     change       -0.1462229E-04 Eh
 * total energy  :   -61.8775013 Eh     change       -0.1109392E-04 Eh
 * total energy  :   -61.8775107 Eh     change       -0.9417376E-05 Eh
 * total energy  :   -61.8775172 Eh     change       -0.6490771E-05 Eh
 * total energy  :   -61.8775206 Eh     change       -0.3363023E-05 Eh
   *** GEOMETRY OPTIMIZATION CONVERGED AFTER 17 ITERATIONS ***

 final structure:
================
36
 xtb: 6.7.1 (edcfbbe)
O            0.34879266739299        2.36038963680731       -0.81281922058320
C            1.39414172889385        1.79286977179814       -0.64632608312729
C            2.40616266535264        1.59523106623271       -1.69098916523237
C            3.37683722408250        0.59124991367120       -1.64500501673106
C            4.28595764217067        0.46207835035269       -2.67723084188484
C            4.24676386681420        1.33084018921434       -3.75838467415952
C            3.28206477215712        2.32506176007243       -3.81677905594456
C            2.36239901500796        2.45339134028967       -2.79502242162724
C            1.74632673210754        1.26847059884225        0.77925362292653
N            3.02109268462013        1.76673844814346        1.21740311384899
C            4.07285982696122        1.06770104804082        1.63001427846470
N            5.10003521543698        1.85947767629465        1.92603253412775
C            4.70744562088623        3.15890969199622        1.69568936056548
C            3.37328359701864        3.10092689359638        1.23982412948774
C            2.66830501110828        4.25221852360054        0.91669044656568
C            3.35676872406096        5.44138822722491        1.06718642828770
C            4.67943134705964        5.51222658583628        1.52001019214688
C            5.37844851634900        4.36993335389850        1.84248437474370
N            2.66498200204441        6.69167305790744        0.73321809921633
O            1.55365419664114        6.58654624691683        0.28310917140036
O            3.26745097592365        7.71361222459954        0.93296812569418
C            6.39315723669843        1.45338042172848        2.40678304871792
H            3.39397498385804       -0.12589564612426       -0.83779000850000
H            5.02146911243997       -0.32744896763877       -2.64780459709600
H            4.95965410156455        1.22113088373404       -4.56066266302358
H            3.24097971314745        2.99114740772244       -4.66417231398434
H            1.59759397660511        3.21453167684135       -2.82697970462809
H            0.95776963975204        1.62415900036837        1.45022875284304
H            1.74810328757638        0.17734743885857        0.78486068410308
H            4.09121063896586       -0.00257118440323        1.72768019898584
H            1.64626148041567        4.25352574811387        0.56836108426607
H            5.13417730986140        6.48777402512637        1.61101651924965
H            6.39566967602977        4.41707755053213        2.19351508384489
H            6.43392110159665        0.37002549473956        2.49040791773811
H            7.16914397225965        1.78882007433269        1.71763921832445
H            6.58257973713997        1.89404147073214        3.38655938097259

          :  Hamiltonian                  GFN2-xTB          :
         :: total energy             -61.877520559933 Eh    ::
         :: gradient norm              0.000381319527 Eh/a0 ::
         :: HOMO-LUMO gap              2.199997061431 eV    ::
         :: SCC energy               -62.766404931905 Eh    ::
         :: -> dispersion             -0.039726948505 Eh    ::
         :: repulsion energy           0.888884371972 Eh    ::

    * Orbital Energies and Occupations

         #    Occupation            Energy/Eh            Energy/eV
      -------------------------------------------------------------
         1        2.0000           -0.9097514             -24.7556
       ...           ...                  ...                  ...
        43        2.0000           -0.6069802             -16.5168
        44        2.0000           -0.6038705             -16.4322
        45        2.0000           -0.6035812             -16.4243
        46        2.0000           -0.5897562             -16.0481
        47        2.0000           -0.5826230             -15.8540
        48        2.0000           -0.5781165             -15.7314
        49        2.0000           -0.5638117             -15.3421
        50        2.0000           -0.5627154             -15.3123
        51        2.0000           -0.5532419             -15.0545
        52        2.0000           -0.5484240             -14.9234
        53        2.0000           -0.5385078             -14.6535
        54        2.0000           -0.5356539             -14.5759
        55        2.0000           -0.5322285             -14.4827 (HOMO)
        56                         -0.4513801             -12.2827 (LUMO)
        57                         -0.4291958             -11.6790
        58                         -0.4140228             -11.2661
        59                         -0.3884831             -10.5712
        60                         -0.3692401             -10.0475
        61                         -0.3528779              -9.6023
        62                         -0.3281393              -8.9291
        63                         -0.2650935              -7.2136
        64                         -0.2193859              -5.9698
        65                         -0.1952063              -5.3118
        66                         -0.1689379              -4.5970
       ...                                ...                  ...
       102                          0.5492145              14.9449
      -------------------------------------------------------------
                  HL-Gap            0.0808484 Eh            2.2000 eV

     #   Z          covCN         q      C6AA      α(0)
     1   8 O        0.857    -0.307    19.904     5.981
     2   6 C        2.819     0.227    23.236     7.898
     3   6 C        2.970    -0.022    28.540     8.763
     4   6 C        2.919    -0.034    28.846     8.807
     5   6 C        2.917    -0.024    28.614     8.772
     6   6 C        2.920    -0.011    28.291     8.722
     7   6 C        2.916    -0.018    28.450     8.747
     8   6 C        2.927    -0.013    28.344     8.731
     9   6 C        3.739    -0.052    21.580     6.629
    10   7 N        2.824     0.049    20.379     6.705
    11   6 C        3.075     0.064    26.490     8.439
    12   7 N        2.824     0.052    20.330     6.697
    13   6 C        3.120     0.043    26.872     8.490
    14   6 C        3.128     0.043    26.841     8.483
    15   6 C        2.908    -0.027    28.676     8.781
    16   6 C        2.923     0.013    27.726     8.635
    17   6 C        2.924    -0.015    28.396     8.739
    18   6 C        2.909    -0.028    28.692     8.783
    19   7 N        2.757     0.562    13.354     5.427
    20   8 O        0.930    -0.347    20.625     6.091
    21   8 O        0.929    -0.343    20.551     6.080
    22   6 C        3.691    -0.083    22.272     6.753
    23   1 H        0.926     0.028     2.614     2.528
    24   1 H        0.926     0.054     2.266     2.354
    25   1 H        0.926     0.066     2.131     2.283
    26   1 H        0.926     0.068     2.104     2.268
    27   1 H        0.926     0.076     2.019     2.222
    28   1 H        0.924     0.114     1.661     2.015
    29   1 H        0.924     0.098     1.806     2.102
    30   1 H        0.926     0.115     1.656     2.013
    31   1 H        0.926     0.122     1.593     1.974
    32   1 H        0.926     0.122     1.596     1.975
    33   1 H        0.926     0.092     1.855     2.130
    34   1 H        0.925     0.100     1.784     2.089
    35   1 H        0.924     0.106     1.730     2.057
    36   1 H        0.924     0.108     1.715     2.048

Wiberg/Mayer (AO) data.
largest (>0.10) Wiberg bond orders for each atom

     #   Z sym  total        # sym  WBO       # sym  WBO       # sym  WBO
 ---------------------------------------------------------------------------
     1   8 O    2.127 --     2 C    1.861
     2   6 C    3.932 --     1 O    1.861     3 C    1.056     9 C    0.912
     3   6 C    3.986 --     4 C    1.364     8 C    1.361     2 C    1.056
     4   6 C    3.991 --     5 C    1.466     3 C    1.364    23 H    0.967
                             7 C    0.104
     5   6 C    3.991 --     4 C    1.466     6 C    1.422    24 H    0.969
                             8 C    0.101
     6   6 C    3.986 --     7 C    1.431     5 C    1.422    25 H    0.968
     7   6 C    3.988 --     8 C    1.459     6 C    1.431    26 H    0.966
                             4 C    0.104
     8   6 C    3.985 --     7 C    1.459     3 C    1.361    27 H    0.964
                             5 C    0.101
     9   6 C    3.931 --    10 N    0.982    29 H    0.953    28 H    0.948
                             2 C    0.912
    10   7 N    3.693 --    11 C    1.369    14 C    1.129     9 C    0.982
    11   6 C    3.948 --    10 N    1.369    12 N    1.362    30 H    0.951
    12   7 N    3.690 --    11 C    1.362    13 C    1.140    22 C    0.989
    13   6 C    3.957 --    18 C    1.334    14 C    1.268    12 N    1.140
    14   6 C    3.957 --    15 C    1.346    13 C    1.268    10 N    1.129
    15   6 C    3.978 --    16 C    1.452    14 C    1.346    31 H    0.947
                            18 C    0.118
    16   6 C    3.974 --    15 C    1.452    17 C    1.345    19 N    0.929
    17   6 C    3.976 --    18 C    1.499    16 C    1.345    32 H    0.951
    18   6 C    3.983 --    17 C    1.499    13 C    1.334    33 H    0.960
                            15 C    0.118
    19   7 N    3.920 --    21 O    1.479    20 O    1.476    16 C    0.929
    20   8 O    1.974 --    19 N    1.476    21 O    0.390
    21   8 O    1.976 --    19 N    1.479    20 O    0.390
    22   6 C    3.931 --    12 N    0.989    34 H    0.975    35 H    0.962
                            36 H    0.961
    23   1 H    0.999 --     4 C    0.967
    24   1 H    0.996 --     5 C    0.969
    25   1 H    0.995 --     6 C    0.968
    26   1 H    0.995 --     7 C    0.966
    27   1 H    0.994 --     8 C    0.964
    28   1 H    0.986 --     9 C    0.948
    29   1 H    0.990 --     9 C    0.953
    30   1 H    0.986 --    11 C    0.951
    31   1 H    0.984 --    15 C    0.947
    32   1 H    0.985 --    17 C    0.951
    33   1 H    0.990 --    18 C    0.960
    34   1 H    0.990 --    22 C    0.975
    35   1 H    0.988 --    22 C    0.962
    36   1 H    0.987 --    22 C    0.961
 ---------------------------------------------------------------------------

molecular dipole:
                 x           y           z       tot (Debye)
 q only:        9.665       2.458       2.211
   full:        9.794       2.005       2.337      26.096

           -------------------------------------------------
          | TOTAL ENERGY              -61.877520559933 Eh   |
          | GRADIENT NORM               0.000381319527 Eh/α |
          | HOMO-LUMO GAP               2.199997061431 eV   |
           -------------------------------------------------

 * finished run on 2024/12/20 at 06:44:30.366
