   * xtb version 6.7.1 (edcfbbe) compiled by 'conda@3ef47c1a292c' on 2024-11-25

   ID    Z sym.   atoms
    1    8 O      1, 25
    2    6 C      2-8, 10-16, 18, 19, 21-24, 26-31, 33-38
    3   16 S      9, 32
    4    7 N      17, 20
    5    1 H      39-65

          program call               : xtb C0438.xyz --opt --namespace C0438 --charge +1
          :  Hamiltonian                  GFN2-xTB          :
 * total energy  :  -102.3150250 Eh     change       -0.2996160E-08 Eh
 * total energy  :  -102.3280234 Eh     change       -0.1299835E-01 Eh
 * total energy  :  -102.3319350 Eh     change       -0.3911698E-02 Eh
 * total energy  :  -102.3332274 Eh     change       -0.1292358E-02 Eh
 * total energy  :  -102.3345648 Eh     change       -0.1337420E-02 Eh
 * total energy  :  -102.3356358 Eh     change       -0.1070986E-02 Eh
 * total energy  :  -102.3367118 Eh     change       -0.1075944E-02 Eh
 * total energy  :  -102.3379047 Eh     change       -0.1192945E-02 Eh
 * total energy  :  -102.3391283 Eh     change       -0.1223561E-02 Eh
 * total energy  :  -102.3403793 Eh     change       -0.1251054E-02 Eh
 * total energy  :  -102.3526583 Eh     change       -0.1287234E-04 Eh
 * total energy  :  -102.3526737 Eh     change       -0.1545816E-04 Eh
 * total energy  :  -102.3526928 Eh     change       -0.1908293E-04 Eh
 * total energy  :  -102.3527166 Eh     change       -0.2377177E-04 Eh
 * total energy  :  -102.3527456 Eh     change       -0.2902567E-04 Eh
 * total energy  :  -102.3527538 Eh     change       -0.8190217E-05 Eh
 * total energy  :  -102.3527633 Eh     change       -0.9479708E-05 Eh
 * total energy  :  -102.3527697 Eh     change       -0.6413696E-05 Eh
 * total energy  :  -102.3527732 Eh     change       -0.3440706E-05 Eh
   *** GEOMETRY OPTIMIZATION CONVERGED AFTER 125 ITERATIONS ***

 final structure:
================
65
 xtb: 6.7.1 (edcfbbe)
O            2.23835184728026       -0.63214782065111       -1.54315466233205
C            3.38986438353135       -0.99664083288346       -1.41411158794592
C            3.80454793496698       -2.32305194431865       -1.00967510846838
C            5.14569536593347       -2.72568844623417       -0.89790679744371
C            5.45515538012838       -4.00783132036739       -0.52332733147598
C            4.44409990666015       -4.93989241484474       -0.25164885750742
C            3.10716725141775       -4.54611058422942       -0.34691829370069
C            2.79977819234002       -3.26137424032065       -0.71917204254854
S            4.96000356270836       -6.53604707937392        0.22113302523590
C            3.44171417166261       -7.48350375127767        0.19263116212155
C            2.96753680302917       -8.03309884894173        1.37229645063806
C            1.81776745082692       -8.80404692444263        1.34405658786803
C            1.15475512935020       -9.02056926025036        0.14738731341638
C            1.64237920583042       -8.47282886232552       -1.02869349935173
C            2.79425438217547       -7.70687022704451       -1.01345921510580
C            4.52166538042655        0.02439954690042       -1.73059613922078
N            3.94150081224327        1.31118614344970       -1.98899777578935
C            3.90732850154156        2.34997939093462       -1.10363443389932
C            3.16056525688514        3.33141217847863       -1.66629631635934
N            2.73691802661470        2.87590662585043       -2.88344557811145
C            3.20547099498688        1.63445978895485       -3.06082584667502
C            2.97147995814006        0.75809620139635       -4.22480469413428
C            1.95978524410909        3.63783022986619       -3.82658446960699
C            2.56755416882161        3.66678273305751       -5.25279389354340
O            1.82766026021819        3.54811728648768       -6.19961776227951
C            4.02131752801935        3.78553713604453       -5.36413400197092
C            4.61499713511426        3.33017541655207       -6.55151787105157
C            5.97759926953050        3.35358099907386       -6.71200738920868
C            6.79697267525832        3.84934730194183       -5.69220240004587
C            6.21160088329484        4.36484123671572       -4.53473601981310
C            4.84502865726720        4.32893851346199       -4.37218846702978
S            8.52289887937328        3.83847594544948       -5.98071532639481
C            9.21422288541732        4.08735171469833       -4.35163438555970
C           10.13119143933578        5.10854040529655       -4.16062631015196
C           10.71995886021038        5.26952500432819       -2.91780792624412
C           10.39217644324244        4.41745021447351       -1.87658521796272
C            9.47967005349155        3.39377318712775       -2.07790600572851
C            8.89394079746865        3.21808363307895       -3.31827142667801
H            5.95190816842752       -2.04122542119605       -1.10994240087284
H            6.48460844738947       -4.31958005480627       -0.43774963886606
H            2.31795484540035       -5.24707462595232       -0.12358471394514
H            1.77020846531399       -2.94537548325205       -0.79272972862646
H            3.49475982178442       -7.85880577399964        2.29752569000692
H            1.44228674757764       -9.23544731388042        2.25893525327123
H            0.25918797308798       -9.62211245729386        0.12902647984365
H            1.13140752280838       -8.64836125101323       -1.96293927484364
H            3.18848219463938       -7.28436548288512       -1.92579117708014
H            5.19650579101237        0.10898909478083       -0.87873562806107
H            5.07564995514066       -0.32286399116873       -2.60635674163337
H            4.40600161219113        2.31569026159007       -0.15726278538679
H            2.89477808644249        4.29776544711589       -1.28981727918746
H            2.36146429702275        1.25174656203412       -4.97363094875488
H            3.91643402648085        0.46618961938526       -4.68363647426040
H            2.45452446829011       -0.14651320956739       -3.90335735430296
H            0.95082507293429        3.22169191405341       -3.91509498588688
H            1.87178323338702        4.66431869434781       -3.46315193355863
H            3.97404439112947        2.94485973060071       -7.32971616581698
H            6.43138348444264        2.99131367785626       -7.62105239474757
H            6.83016136678041        4.80855470312306       -3.76938999722143
H            4.42273121475463        4.77758022515794       -3.48603291061396
H           10.38041356952672        5.76533759107798       -4.97939393355495
H           11.43605246503086        6.06181592037965       -2.76537801809902
H           10.85307704536121        4.54448314656076       -0.90933205501734
H            9.23432145403314        2.72071280642200       -1.26978353406115
H            8.19484920053544        2.41193739461338       -3.49035483477592

          :  Hamiltonian                  GFN2-xTB          :
         :: total energy            -102.352773153029 Eh    ::
         :: gradient norm              0.000319707994 Eh/a0 ::
         :: HOMO-LUMO gap              1.809359332067 eV    ::
         :: SCC energy              -104.014173692730 Eh    ::
         :: -> dispersion             -0.080592717837 Eh    ::
         :: repulsion energy           1.661400539702 Eh    ::

    * Orbital Energies and Occupations

         #    Occupation            Energy/Eh            Energy/eV
      -------------------------------------------------------------
         1        2.0000           -0.8689013             -23.6440
       ...           ...                  ...                  ...
        82        2.0000           -0.5188113             -14.1176
        83        2.0000           -0.5157844             -14.0352
        84        2.0000           -0.5153332             -14.0229
        85        2.0000           -0.5131606             -13.9638
        86        2.0000           -0.5078325             -13.8188
        87        2.0000           -0.5071637             -13.8006
        88        2.0000           -0.5047643             -13.7353
        89        2.0000           -0.5029526             -13.6860
        90        2.0000           -0.5010266             -13.6336
        91        2.0000           -0.4913099             -13.3692
        92        2.0000           -0.4896178             -13.3232
        93        2.0000           -0.4610276             -12.5452
        94        2.0000           -0.4578479             -12.4587 (HOMO)
        95                         -0.3913551             -10.6493 (LUMO)
        96                         -0.3900524             -10.6139
        97                         -0.3765012             -10.2451
        98                         -0.3466362              -9.4325
        99                         -0.3366071              -9.1595
       100                         -0.3305128              -8.9937
       101                         -0.3297893              -8.9740
       102                         -0.3216695              -8.7531
       103                         -0.3196428              -8.6979
       104                         -0.3117720              -8.4837
       105                         -0.3082155              -8.3870
       ...                                ...                  ...
       189                          0.5847093              15.9107
      -------------------------------------------------------------
                  HL-Gap            0.0664927 Eh            1.8094 eV

     #   Z          covCN         q      C6AA      α(0)
     1   8 O        0.857    -0.384    21.360     6.196
     2   6 C        2.822     0.219    23.379     7.923
     3   6 C        2.969    -0.031    28.759     8.796
     4   6 C        2.918    -0.030    28.743     8.792
     5   6 C        2.987    -0.035    28.855     8.812
     6   6 C        2.966     0.062    26.606     8.461
     7   6 C        2.942    -0.036    28.893     8.816
     8   6 C        2.927    -0.012    28.317     8.727
     9  16 S        2.125    -0.067   143.824    20.184
    10   6 C        2.970     0.043    27.024     8.527
    11   6 C        2.957    -0.030    28.743     8.794
    12   6 C        2.922    -0.023    28.572     8.766
    13   6 C        2.919    -0.022    28.567     8.765
    14   6 C        2.922    -0.024    28.615     8.772
    15   6 C        2.954    -0.031    28.764     8.797
    16   6 C        3.742    -0.045    21.460     6.609
    17   7 N        2.878     0.050    20.372     6.704
    18   6 C        3.046    -0.009    28.193     8.709
    19   6 C        3.051    -0.009    28.193     8.708
    20   7 N        2.871     0.044    20.471     6.720
    21   6 C        3.098     0.118    25.302     8.243
    22   6 C        3.754    -0.133    23.121     6.856
    23   6 C        3.740    -0.049    21.530     6.620
    24   6 C        2.819     0.221    23.348     7.917
    25   8 O        0.858    -0.339    20.495     6.070
    26   6 C        2.969    -0.031    28.766     8.798
    27   6 C        2.926    -0.017    28.431     8.744
    28   6 C        2.980    -0.035    28.871     8.814
    29   6 C        2.966     0.058    26.694     8.475
    30   6 C        2.944    -0.041    29.013     8.834
    31   6 C        2.919    -0.036    28.884     8.813
    32  16 S        2.119    -0.079   144.352    20.222
    33   6 C        2.969     0.045    26.984     8.521
    34   6 C        2.960    -0.029    28.723     8.791
    35   6 C        2.921    -0.022    28.548     8.762
    36   6 C        2.919    -0.025    28.616     8.772
    37   6 C        2.921    -0.028    28.702     8.785
    38   6 C        2.953    -0.034    28.845     8.809
    39   1 H        0.926     0.040     2.455     2.450
    40   1 H        0.926     0.062     2.173     2.305
    41   1 H        0.926     0.056     2.245     2.343
    42   1 H        0.926     0.073     2.058     2.243
    43   1 H        0.926     0.054     2.269     2.356
    44   1 H        0.926     0.054     2.270     2.356
    45   1 H        0.926     0.053     2.278     2.360
    46   1 H        0.926     0.051     2.309     2.376
    47   1 H        0.926     0.045     2.383     2.414
    48   1 H        0.925     0.092     1.859     2.132
    49   1 H        0.924     0.088     1.903     2.157
    50   1 H        0.927     0.096     1.821     2.110
    51   1 H        0.926     0.097     1.814     2.106
    52   1 H        0.925     0.097     1.812     2.105
    53   1 H        0.924     0.087     1.911     2.162
    54   1 H        0.924     0.116     1.645     2.006
    55   1 H        0.924     0.107     1.726     2.054
    56   1 H        0.924     0.099     1.792     2.094
    57   1 H        0.926     0.074     2.041     2.234
    58   1 H        0.926     0.066     2.129     2.282
    59   1 H        0.926     0.047     2.354     2.399
    60   1 H        0.926     0.034     2.524     2.484
    61   1 H        0.926     0.058     2.220     2.330
    62   1 H        0.926     0.056     2.243     2.342
    63   1 H        0.926     0.052     2.299     2.371
    64   1 H        0.926     0.039     2.459     2.452
    65   1 H        0.926     0.030     2.585     2.514

Wiberg/Mayer (AO) data.
largest (>0.10) Wiberg bond orders for each atom

     #   Z sym  total        # sym  WBO       # sym  WBO       # sym  WBO
 ---------------------------------------------------------------------------
     1   8 O    2.033 --     2 C    1.762
     2   6 C    3.910 --     1 O    1.762     3 C    1.114    16 C    0.918
     3   6 C    3.980 --     8 C    1.321     4 C    1.317     2 C    1.114
     4   6 C    3.990 --     5 C    1.523     3 C    1.317    39 H    0.965
     5   6 C    3.989 --     4 C    1.523     6 C    1.327    40 H    0.966
     6   6 C    3.971 --     7 C    1.346     5 C    1.327     9 S    1.128
     7   6 C    3.989 --     8 C    1.503     6 C    1.346    41 H    0.962
     8   6 C    3.984 --     7 C    1.503     3 C    1.321    42 H    0.963
     9  16 S    2.395 --     6 C    1.128    10 C    0.979
    10   6 C    3.956 --    11 C    1.414    15 C    1.405     9 S    0.979
                            13 C    0.105
    11   6 C    3.988 --    12 C    1.437    10 C    1.414    43 H    0.968
                            14 C    0.109
    12   6 C    3.990 --    13 C    1.441    11 C    1.437    44 H    0.968
                            15 C    0.111
    13   6 C    3.989 --    12 C    1.441    14 C    1.434    45 H    0.969
                            10 C    0.105
    14   6 C    3.990 --    15 C    1.444    13 C    1.434    46 H    0.968
                            11 C    0.109
    15   6 C    3.988 --    14 C    1.444    10 C    1.405    47 H    0.969
                            12 C    0.111
    16   6 C    3.946 --    17 N    0.992    48 H    0.957    49 H    0.948
                             2 C    0.918
    17   7 N    3.693 --    21 C    1.317    18 C    1.201    16 C    0.992
    18   6 C    3.948 --    19 C    1.613    17 N    1.201    50 H    0.963
    19   6 C    3.948 --    18 C    1.613    20 N    1.200    51 H    0.962
    20   7 N    3.690 --    21 C    1.323    19 C    1.200    23 C    0.981
    21   6 C    3.950 --    20 N    1.323    17 N    1.317    22 C    1.048
    22   6 C    3.976 --    21 C    1.048    52 H    0.968    53 H    0.953
                            54 H    0.943
    23   6 C    3.938 --    20 N    0.981    55 H    0.950    56 H    0.949
                            24 C    0.929
    24   6 C    3.918 --    25 O    1.816    26 C    1.072    23 C    0.929
    25   8 O    2.074 --    24 C    1.816
    26   6 C    3.982 --    31 C    1.348    27 C    1.331    24 C    1.072
    27   6 C    3.985 --    28 C    1.502    26 C    1.331    57 H    0.963
    28   6 C    3.987 --    27 C    1.502    29 C    1.346    58 H    0.965
    29   6 C    3.970 --    30 C    1.354    28 C    1.346    32 S    1.104
    30   6 C    3.990 --    31 C    1.489    29 C    1.354    59 H    0.964
    31   6 C    3.991 --    30 C    1.489    26 C    1.348    60 H    0.965
    32  16 S    2.380 --    29 C    1.104    33 C    0.990
    33   6 C    3.959 --    34 C    1.412    38 C    1.400    32 S    0.990
                            36 C    0.104
    34   6 C    3.987 --    35 C    1.437    33 C    1.412    61 H    0.967
                            37 C    0.108
    35   6 C    3.990 --    36 C    1.441    34 C    1.437    62 H    0.968
                            38 C    0.111
    36   6 C    3.988 --    35 C    1.441    37 C    1.432    63 H    0.970
                            33 C    0.104
    37   6 C    3.992 --    38 C    1.447    36 C    1.432    64 H    0.969
                            34 C    0.108
    38   6 C    3.988 --    37 C    1.447    33 C    1.400    65 H    0.969
                            35 C    0.111
    39   1 H    0.998 --     4 C    0.965
    40   1 H    0.996 --     5 C    0.966
    41   1 H    0.996 --     7 C    0.962
    42   1 H    0.995 --     8 C    0.963
    43   1 H    0.997 --    11 C    0.968
    44   1 H    0.997 --    12 C    0.968
    45   1 H    0.996 --    13 C    0.969
    46   1 H    0.997 --    14 C    0.968
    47   1 H    0.998 --    15 C    0.969
    48   1 H    0.990 --    16 C    0.957
    49   1 H    0.991 --    16 C    0.948
    50   1 H    0.990 --    18 C    0.963
    51   1 H    0.991 --    19 C    0.962
    52   1 H    0.990 --    22 C    0.968
    53   1 H    0.992 --    22 C    0.953
    54   1 H    0.986 --    22 C    0.943
    55   1 H    0.988 --    23 C    0.950
    56   1 H    0.988 --    23 C    0.949
    57   1 H    0.994 --    27 C    0.963
    58   1 H    0.995 --    28 C    0.965
    59   1 H    0.997 --    30 C    0.964
    60   1 H    0.999 --    31 C    0.965
    61   1 H    0.997 --    34 C    0.967
    62   1 H    0.997 --    35 C    0.968
    63   1 H    0.997 --    36 C    0.970
    64   1 H    0.998 --    37 C    0.969
    65   1 H    0.999 --    38 C    0.969
 ---------------------------------------------------------------------------

molecular dipole:
                 x           y           z       tot (Debye)
 q only:        8.845       0.722      -3.527
   full:        8.878       0.916      -3.166      24.070

           -------------------------------------------------
          | TOTAL ENERGY             -102.352773153029 Eh   |
          | GRADIENT NORM               0.000319707994 Eh/α |
          | HOMO-LUMO GAP               1.809359332067 eV   |
           -------------------------------------------------

 * finished run on 2024/12/20 at 06:44:43.978
