   * xtb version 6.7.1 (edcfbbe) compiled by 'conda@3ef47c1a292c' on 2024-11-25

   ID    Z sym.   atoms
    1    6 C      1-12, 14-17
    2    7 N      13
    3    8 O      18, 19
    4    1 H      20-53

          program call               : xtb C0435.xyz --opt --namespace C0435 --charge +1
          :  Hamiltonian                  GFN2-xTB          :
 * total energy  :   -62.2512683 Eh     change       -0.7209522E-09 Eh
 * total energy  :   -62.2613929 Eh     change       -0.1012459E-01 Eh
 * total energy  :   -62.2640317 Eh     change       -0.2638842E-02 Eh
 * total energy  :   -62.2643535 Eh     change       -0.3217366E-03 Eh
 * total energy  :   -62.2645649 Eh     change       -0.2113962E-03 Eh
 * total energy  :   -62.2647160 Eh     change       -0.1511199E-03 Eh
 * total energy  :   -62.2648539 Eh     change       -0.1378824E-03 Eh
 * total energy  :   -62.2649535 Eh     change       -0.9964367E-04 Eh
 * total energy  :   -62.2650092 Eh     change       -0.5570328E-04 Eh
 * total energy  :   -62.2650520 Eh     change       -0.4277863E-04 Eh
 * total energy  :   -62.2670357 Eh     change       -0.1003939E-04 Eh
 * total energy  :   -62.2670423 Eh     change       -0.6579483E-05 Eh
 * total energy  :   -62.2670517 Eh     change       -0.9405779E-05 Eh
 * total energy  :   -62.2670583 Eh     change       -0.6602280E-05 Eh
 * total energy  :   -62.2670690 Eh     change       -0.1070886E-04 Eh
 * total energy  :   -62.2670773 Eh     change       -0.8365013E-05 Eh
 * total energy  :   -62.2670849 Eh     change       -0.7524455E-05 Eh
 * total energy  :   -62.2670912 Eh     change       -0.6319972E-05 Eh
 * total energy  :   -62.2670951 Eh     change       -0.3895205E-05 Eh
   *** GEOMETRY OPTIMIZATION CONVERGED AFTER 53 ITERATIONS ***

 final structure:
================
53
 xtb: 6.7.1 (edcfbbe)
C            1.40378819858297        0.48083324271983       -0.49446130010723
C            1.40118796091444       -0.57002718116747       -1.59826404952783
C            1.51850734468266       -2.00045435408648       -1.06972705376050
C            0.37168694963967       -2.44962090034482       -0.16187816327798
C           -1.01686630775097       -2.40512957993195       -0.80298382292763
C           -1.16711823727735       -3.24145894496234       -2.07539776625153
C           -0.86015386634653       -4.73100590449453       -1.90721102575496
C           -1.72480983769758       -5.45538834051936       -0.87336472554803
C           -3.23113903465800       -5.40946379143803       -1.14340952970786
C           -3.65336522072979       -5.99880857385667       -2.49127321552039
C           -3.26491631858279       -7.46438809398973       -2.70979940431021
C           -3.69816897935686       -8.49930732427015       -1.66918125484661
N           -5.15567434031234       -8.86856735740601       -1.58909049319593
C           -5.71362916940181       -9.08199585587574       -2.93888801425349
C           -5.26216394376415      -10.14292792041182       -0.84219030484697
C           -5.96643510279485       -7.82846661653130       -0.90745798573448
C           -5.56469132647796       -7.52918697299357        0.55800817106809
O           -6.29033163130739       -6.59066467068490        1.13362728964710
O           -4.67991570951927       -8.09596426841912        1.12378881275914
H            0.51096441746110        0.40843401188618        0.12116251589142
H            1.43540743154138        1.47853459876914       -0.92554380835032
H            2.27477616970324        0.35764318814959        0.14511863253626
H            0.49494872447320       -0.46626824987199       -2.19789485332054
H            2.25000711809734       -0.38566523134965       -2.26094371368937
H            1.59891471469220       -2.68211270686114       -1.91946051744475
H            2.44814233692200       -2.08406428544424       -0.50143059568258
H            0.58254512649176       -3.46613152155281        0.17826574337339
H            0.35352685473100       -1.81665984348415        0.72680582672273
H           -1.74735282781594       -2.73503989902724       -0.06008240004878
H           -1.26262934801681       -1.37089235481784       -1.04957174477554
H           -2.18558856135500       -3.11600827578953       -2.45217172109015
H           -0.49769848706054       -2.84583366154472       -2.84057909885806
H           -0.96216148569805       -5.21653736787410       -2.88120722269761
H            0.18204883343096       -4.84529345142178       -1.60734841810449
H           -1.39254971590409       -6.49436196520773       -0.80885143846714
H           -1.55183352103937       -5.00992662384812        0.10647592812169
H           -3.73728093431838       -5.92300821232558       -0.32161958176785
H           -3.56005350846906       -4.36995586240528       -1.11610626844963
H           -4.72763534204018       -5.84751768260850       -2.63751417994623
H           -3.16703993454732       -5.42480728093460       -3.28070313368236
H           -3.57498788497831       -7.76940764642795       -3.71002313765199
H           -2.17439278802366       -7.51166069625819       -2.70245156633236
H           -3.16850133900911       -9.42530418328202       -1.90081818012156
H           -3.38768134220492       -8.18017957421223       -0.67451268663080
H           -5.08503341514173       -9.77834131943498       -3.49074619032481
H           -6.71523196613004       -9.50342627023338       -2.86765927083801
H           -5.76866113720426       -8.14520951785953       -3.48864323095449
H           -4.78160012576080      -10.04815800332592        0.12991714723109
H           -6.30841006129006      -10.40640476235029       -0.69588216451281
H           -4.77864491575742      -10.94177555702905       -1.40034203038696
H           -5.88830172731642       -6.89765258681797       -1.47535704762054
H           -7.01283939141927       -8.15214000975430       -0.90767943205409
H           -6.99084339486221       -6.18220378678878        0.60636167593188

          :  Hamiltonian                  GFN2-xTB          :
         :: total energy             -62.267095087684 Eh    ::
         :: gradient norm              0.000301221640 Eh/a0 ::
         :: HOMO-LUMO gap              2.177599872854 eV    ::
         :: SCC energy               -63.086590857255 Eh    ::
         :: -> dispersion             -0.044977334075 Eh    ::
         :: repulsion energy           0.819495769571 Eh    ::

    * Orbital Energies and Occupations

         #    Occupation            Energy/Eh            Energy/eV
      -------------------------------------------------------------
         1        2.0000           -0.9040271             -24.5998
       ...           ...                  ...                  ...
        45        2.0000           -0.5502137             -14.9721
        46        2.0000           -0.5439422             -14.8014
        47        2.0000           -0.5360964             -14.5879
        48        2.0000           -0.5341219             -14.5342
        49        2.0000           -0.5221571             -14.2086
        50        2.0000           -0.5182508             -14.1023
        51        2.0000           -0.5109619             -13.9040
        52        2.0000           -0.5008725             -13.6294
        53        2.0000           -0.4962778             -13.5044
        54        2.0000           -0.4926065             -13.4045
        55        2.0000           -0.4769625             -12.9788
        56        2.0000           -0.4733067             -12.8793
        57        2.0000           -0.4707650             -12.8102 (HOMO)
        58                         -0.3907397             -10.6326 (LUMO)
        59                         -0.2444494              -6.6518
        60                         -0.1831383              -4.9834
        61                         -0.1614782              -4.3940
        62                         -0.1581768              -4.3042
        63                         -0.0962794              -2.6199
        64                         -0.0883406              -2.4039
        65                         -0.0722442              -1.9659
        66                         -0.0624854              -1.7003
        67                         -0.0405341              -1.1030
        68                         -0.0162250              -0.4415
       ...                                ...                  ...
       110                          0.5008819              13.6297
      -------------------------------------------------------------
                  HL-Gap            0.0800253 Eh            2.1776 eV

     #   Z          covCN         q      C6AA      α(0)
     1   6 C        3.751    -0.103    22.527     6.769
     2   6 C        3.799    -0.053    21.520     6.605
     3   6 C        3.800    -0.058    21.620     6.620
     4   6 C        3.800    -0.058    21.625     6.621
     5   6 C        3.800    -0.058    21.614     6.619
     6   6 C        3.800    -0.059    21.629     6.622
     7   6 C        3.800    -0.061    21.666     6.627
     8   6 C        3.800    -0.062    21.696     6.632
     9   6 C        3.800    -0.063    21.708     6.634
    10   6 C        3.799    -0.065    21.750     6.640
    11   6 C        3.799    -0.078    21.984     6.676
    12   6 C        3.754    -0.050    21.527     6.616
    13   7 N        3.620     0.140    18.856     6.449
    14   6 C        3.723    -0.096    22.456     6.767
    15   6 C        3.724    -0.105    22.620     6.791
    16   6 C        3.761    -0.079    22.052     6.694
    17   6 C        2.683     0.366    20.787     7.461
    18   8 O        1.660    -0.324    19.427     5.950
    19   8 O        0.856    -0.344    20.588     6.083
    20   1 H        0.925     0.033     2.538     2.491
    21   1 H        0.925     0.034     2.524     2.484
    22   1 H        0.925     0.036     2.500     2.473
    23   1 H        0.924     0.029     2.603     2.523
    24   1 H        0.924     0.030     2.588     2.516
    25   1 H        0.924     0.027     2.635     2.539
    26   1 H        0.924     0.032     2.551     2.498
    27   1 H        0.924     0.026     2.640     2.541
    28   1 H        0.924     0.037     2.492     2.469
    29   1 H        0.924     0.024     2.679     2.559
    30   1 H        0.924     0.037     2.487     2.466
    31   1 H        0.924     0.022     2.705     2.572
    32   1 H        0.924     0.040     2.446     2.446
    33   1 H        0.924     0.023     2.690     2.565
    34   1 H        0.924     0.045     2.389     2.417
    35   1 H        0.924     0.025     2.661     2.551
    36   1 H        0.925     0.050     2.321     2.382
    37   1 H        0.924     0.016     2.802     2.618
    38   1 H        0.924     0.050     2.317     2.380
    39   1 H        0.924     0.015     2.816     2.624
    40   1 H        0.924     0.066     2.125     2.280
    41   1 H        0.924     0.053     2.278     2.360
    42   1 H        0.924     0.085     1.928     2.171
    43   1 H        0.924     0.086     1.914     2.163
    44   1 H        0.925     0.113     1.670     2.021
    45   1 H        0.925     0.104     1.745     2.066
    46   1 H        0.925     0.095     1.828     2.114
    47   1 H        0.925     0.101     1.776     2.084
    48   1 H        0.925     0.126     1.565     1.956
    49   1 H        0.925     0.093     1.851     2.128
    50   1 H        0.925     0.101     1.780     2.086
    51   1 H        0.924     0.111     1.689     2.032
    52   1 H        0.924     0.097     1.811     2.105
    53   1 H        0.805     0.344     0.602     1.219

Wiberg/Mayer (AO) data.
largest (>0.10) Wiberg bond orders for each atom

     #   Z sym  total        # sym  WBO       # sym  WBO       # sym  WBO
 ---------------------------------------------------------------------------
     1   6 C    3.997 --     2 C    1.020    22 H    0.987    21 H    0.987
                            20 H    0.986
     2   6 C    3.998 --     1 C    1.020     3 C    1.008    24 H    0.978
                            23 H    0.976
     3   6 C    3.997 --     2 C    1.008     4 C    1.008    26 H    0.977
                            25 H    0.976
     4   6 C    3.997 --     3 C    1.008     5 C    1.008    27 H    0.975
                            28 H    0.975
     5   6 C    3.997 --     4 C    1.008     6 C    1.008    29 H    0.975
                            30 H    0.974
     6   6 C    3.997 --     5 C    1.008     7 C    1.008    31 H    0.975
                            32 H    0.974
     7   6 C    3.996 --     6 C    1.008     8 C    1.008    33 H    0.975
                            34 H    0.973
     8   6 C    3.995 --     7 C    1.008     9 C    1.006    35 H    0.975
                            36 H    0.972
     9   6 C    3.995 --    10 C    1.007     8 C    1.006    38 H    0.972
                            37 H    0.972
    10   6 C    3.992 --     9 C    1.007    11 C    1.006    40 H    0.967
                            39 H    0.965
    11   6 C    3.983 --    12 C    1.007    10 C    1.006    41 H    0.971
                            42 H    0.958
    12   6 C    3.912 --    11 C    1.007    43 H    0.967    44 H    0.955
                            13 N    0.909
    13   7 N    3.812 --    16 C    0.958    14 C    0.958    15 C    0.952
                            12 C    0.909
    14   6 C    3.928 --    46 H    0.975    45 H    0.973    47 H    0.972
                            13 N    0.958
    15   6 C    3.916 --    49 H    0.975    50 H    0.974    48 H    0.964
                            13 N    0.952
    16   6 C    3.947 --    13 N    0.958    52 H    0.953    51 H    0.939
                            17 C    0.935
    17   6 C    3.934 --    19 O    1.784    18 O    1.180    16 C    0.935
    18   8 O    2.269 --    17 C    1.180    53 H    0.858    19 O    0.177
    19   8 O    2.104 --    17 C    1.784    18 O    0.177
    20   1 H    0.999 --     1 C    0.986
    21   1 H    0.999 --     1 C    0.987
    22   1 H    0.999 --     1 C    0.987
    23   1 H    0.999 --     2 C    0.976
    24   1 H    0.999 --     2 C    0.978
    25   1 H    0.999 --     3 C    0.976
    26   1 H    0.999 --     3 C    0.977
    27   1 H    0.999 --     4 C    0.975
    28   1 H    0.999 --     4 C    0.975
    29   1 H    0.999 --     5 C    0.975
    30   1 H    0.999 --     5 C    0.974
    31   1 H    1.000 --     6 C    0.975
    32   1 H    0.998 --     6 C    0.974
    33   1 H    0.999 --     7 C    0.975
    34   1 H    0.998 --     7 C    0.973
    35   1 H    0.999 --     8 C    0.975
    36   1 H    0.997 --     8 C    0.972
    37   1 H    1.000 --     9 C    0.972
    38   1 H    0.997 --     9 C    0.972
    39   1 H    1.000 --    10 C    0.965
    40   1 H    0.995 --    10 C    0.967
    41   1 H    0.997 --    11 C    0.971
    42   1 H    0.992 --    11 C    0.958
    43   1 H    0.993 --    12 C    0.967
    44   1 H    0.987 --    12 C    0.955
    45   1 H    0.989 --    14 C    0.973
    46   1 H    0.991 --    14 C    0.975
    47   1 H    0.990 --    14 C    0.972
    48   1 H    0.984 --    15 C    0.964
    49   1 H    0.991 --    15 C    0.975
    50   1 H    0.990 --    15 C    0.974
    51   1 H    0.988 --    16 C    0.939
    52   1 H    0.991 --    16 C    0.953
    53   1 H    0.882 --    18 O    0.858
 ---------------------------------------------------------------------------

molecular dipole:
                 x           y           z       tot (Debye)
 q only:      -10.055     -15.516      -3.809
   full:      -10.445     -15.489      -4.096      48.612

           -------------------------------------------------
          | TOTAL ENERGY              -62.267095087684 Eh   |
          | GRADIENT NORM               0.000301221640 Eh/α |
          | HOMO-LUMO GAP               2.177599872854 eV   |
           -------------------------------------------------

 * finished run on 2024/12/20 at 06:44:32.823
