   * xtb version 6.7.1 (edcfbbe) compiled by 'conda@3ef47c1a292c' on 2024-11-25

   ID    Z sym.   atoms
    1    6 C      1, 3, 4, 6-8, 10-15
    2    7 N      2, 5
    3    8 O      9
    4    9 F      16
    5    1 H      17-28

          program call               : xtb C0431.xyz --opt --namespace C0431 --charge +1
          :  Hamiltonian                  GFN2-xTB          :
 * total energy  :   -46.0597841 Eh     change       -0.4390799E-09 Eh
 * total energy  :   -46.0651803 Eh     change       -0.5396158E-02 Eh
 * total energy  :   -46.0665292 Eh     change       -0.1348906E-02 Eh
 * total energy  :   -46.0667303 Eh     change       -0.2011209E-03 Eh
 * total energy  :   -46.0668492 Eh     change       -0.1188899E-03 Eh
 * total energy  :   -46.0669058 Eh     change       -0.5659425E-04 Eh
 * total energy  :   -46.0670092 Eh     change       -0.1033987E-03 Eh
 * total energy  :   -46.0671103 Eh     change       -0.1011353E-03 Eh
 * total energy  :   -46.0672231 Eh     change       -0.1127904E-03 Eh
 * total energy  :   -46.0673191 Eh     change       -0.9591276E-04 Eh
 * total energy  :   -46.0718039 Eh     change       -0.2542926E-04 Eh
 * total energy  :   -46.0718271 Eh     change       -0.2323165E-04 Eh
 * total energy  :   -46.0718397 Eh     change       -0.1261753E-04 Eh
 * total energy  :   -46.0718489 Eh     change       -0.9135052E-05 Eh
 * total energy  :   -46.0718545 Eh     change       -0.5581274E-05 Eh
 * total energy  :   -46.0718592 Eh     change       -0.4750814E-05 Eh
 * total energy  :   -46.0718631 Eh     change       -0.3920818E-05 Eh
 * total energy  :   -46.0718662 Eh     change       -0.3030339E-05 Eh
 * total energy  :   -46.0718690 Eh     change       -0.2866910E-05 Eh
   *** GEOMETRY OPTIMIZATION CONVERGED AFTER 67 ITERATIONS ***

 final structure:
================
28
 xtb: 6.7.1 (edcfbbe)
C            2.72295290295278       -0.97395617412178        0.57184642707581
N            1.58209588754253       -0.49237129284944        1.30205115752173
C            1.14874260819362        0.79955814545818        1.32617297059647
C            0.05016787089390        0.84360785005043        2.12761274228189
N           -0.16223223859427       -0.41979734336670        2.59219525761654
C            0.77133138983562       -1.21379350569790        2.06912194989238
C           -1.29526357259934       -0.88008178263500        3.34224219958667
C           -2.06158824749567       -1.92444249659579        2.49402732326685
O           -1.55853527898528       -2.31668677339345        1.46664297710147
C           -3.35488826554980       -2.39566938819215        2.99326986527373
C           -4.08858648664490       -3.25619919033461        2.16178167948532
C           -5.31094695958966       -3.75984471562277        2.55192131492466
C           -5.83690976506212       -3.42187812746845        3.79131779054655
C           -5.13552173295235       -2.57933075232660        4.63862276509628
C           -3.91421008029634       -2.07732459684541        4.23632007475658
F           -3.25344544960079       -1.26896437116971        5.08928808274855
H            2.64905003302127       -0.67491736332692       -0.47358685235799
H            2.76650020501940       -2.05914079544409        0.62854464725988
H            3.64097559368947       -0.55667611750451        0.98841789381813
H            1.63763473140745        1.58145138433364        0.78181177185853
H           -0.57506748234093        1.67055396799054        2.39603172165513
H            0.85949731539760       -2.26797811946447        2.24513874439275
H           -0.97525981313056       -1.35656989524637        4.27402209954978
H           -1.93556187578064       -0.03205213120170        3.58853776751322
H           -3.66371599260602       -3.50950522481748        1.20256097418782
H           -5.85600159310812       -4.41801103630959        1.89438582453001
H           -6.79179197991771       -3.81547314760002        4.10253673844010
H           -5.51993172369240       -2.30616700630394        5.60846409139119

          :  Hamiltonian                  GFN2-xTB          :
         :: total energy             -46.071869031666 Eh    ::
         :: gradient norm              0.000682599688 Eh/a0 ::
         :: HOMO-LUMO gap              3.091895877908 eV    ::
         :: SCC energy               -46.732667346680 Eh    ::
         :: -> dispersion             -0.024764689097 Eh    ::
         :: repulsion energy           0.660798315013 Eh    ::

    * Orbital Energies and Occupations

         #    Occupation            Energy/Eh            Energy/eV
      -------------------------------------------------------------
         1        2.0000           -0.9438963             -25.6847
       ...           ...                  ...                  ...
        29        2.0000           -0.6310068             -17.1706
        30        2.0000           -0.6298321             -17.1386
        31        2.0000           -0.6222534             -16.9324
        32        2.0000           -0.6086607             -16.5625
        33        2.0000           -0.6038891             -16.4327
        34        2.0000           -0.5987666             -16.2933
        35        2.0000           -0.5963058             -16.2263
        36        2.0000           -0.5792473             -15.7621
        37        2.0000           -0.5670737             -15.4309
        38        2.0000           -0.5531066             -15.0508
        39        2.0000           -0.5427091             -14.7679
        40        2.0000           -0.5408386             -14.7170
        41        2.0000           -0.5320652             -14.4782 (HOMO)
        42                         -0.4184402             -11.3863 (LUMO)
        43                         -0.3965739             -10.7913
        44                         -0.3634621              -9.8903
        45                         -0.3529741              -9.6049
        46                         -0.3266308              -8.8881
        47                         -0.2174062              -5.9159
        48                         -0.1744872              -4.7480
        49                         -0.1244638              -3.3868
        50                         -0.0831210              -2.2618
        51                         -0.0660983              -1.7986
        52                         -0.0436969              -1.1891
       ...                                ...                  ...
        76                          0.5331338              14.5073
      -------------------------------------------------------------
                  HL-Gap            0.1136251 Eh            3.0919 eV

     #   Z          covCN         q      C6AA      α(0)
     1   6 C        3.693    -0.086    22.338     6.763
     2   7 N        2.868     0.080    19.858     6.618
     3   6 C        3.071    -0.008    28.155     8.700
     4   6 C        3.067    -0.007    28.121     8.696
     5   7 N        2.873     0.074    19.946     6.633
     6   6 C        3.094     0.057    26.618     8.456
     7   6 C        3.743    -0.049    21.534     6.620
     8   6 C        2.821     0.235    23.089     7.873
     9   8 O        0.858    -0.355    20.799     6.115
    10   6 C        2.965    -0.033    28.831     8.807
    11   6 C        2.931    -0.011    28.294     8.723
    12   6 C        2.914    -0.022    28.566     8.764
    13   6 C        2.923    -0.006    28.179     8.705
    14   6 C        2.915    -0.038    28.942     8.822
    15   6 C        2.784     0.174    24.250     8.066
    16   9 F        0.787    -0.218    11.427     3.993
    17   1 H        0.925     0.108     1.715     2.048
    18   1 H        0.925     0.101     1.777     2.084
    19   1 H        0.924     0.105     1.743     2.064
    20   1 H        0.926     0.109     1.702     2.040
    21   1 H        0.926     0.106     1.731     2.057
    22   1 H        0.926     0.122     1.599     1.977
    23   1 H        0.924     0.115     1.658     2.013
    24   1 H        0.924     0.115     1.656     2.012
    25   1 H        0.926     0.087     1.905     2.158
    26   1 H        0.926     0.078     1.996     2.209
    27   1 H        0.926     0.082     1.961     2.190
    28   1 H        0.926     0.088     1.894     2.152

Wiberg/Mayer (AO) data.
largest (>0.10) Wiberg bond orders for each atom

     #   Z sym  total        # sym  WBO       # sym  WBO       # sym  WBO
 ---------------------------------------------------------------------------
     1   6 C    3.934 --     2 N    0.991    18 H    0.975    17 H    0.964
                            19 H    0.962
     2   7 N    3.720 --     6 C    1.364     3 C    1.222     1 C    0.991
     3   6 C    3.948 --     4 C    1.599     2 N    1.222    20 H    0.961
     4   6 C    3.948 --     3 C    1.599     5 N    1.218    21 H    0.961
     5   7 N    3.713 --     6 C    1.347     4 C    1.218     7 C    0.991
     6   6 C    3.946 --     2 N    1.364     5 N    1.347    22 H    0.952
     7   6 C    3.944 --     5 N    0.991    24 H    0.951     8 C    0.937
                            23 H    0.936
     8   6 C    3.935 --     9 O    1.807    10 C    1.076     7 C    0.937
     9   8 O    2.099 --     8 C    1.807
    10   6 C    3.981 --    11 C    1.344    15 C    1.321     8 C    1.076
    11   6 C    3.981 --    12 C    1.473    10 C    1.344    25 H    0.962
                            14 C    0.101
    12   6 C    3.987 --    11 C    1.473    13 C    1.418    26 H    0.965
    13   6 C    3.982 --    14 C    1.428    12 C    1.418    27 H    0.966
    14   6 C    3.986 --    13 C    1.428    15 C    1.420    28 H    0.962
                            11 C    0.101
    15   6 C    3.886 --    14 C    1.420    10 C    1.321    16 F    0.963
    16   9 F    1.107 --    15 C    0.963
    17   1 H    0.988 --     1 C    0.964
    18   1 H    0.989 --     1 C    0.975
    19   1 H    0.988 --     1 C    0.962
    20   1 H    0.988 --     3 C    0.961
    21   1 H    0.988 --     4 C    0.961
    22   1 H    0.985 --     6 C    0.952
    23   1 H    0.986 --     7 C    0.936
    24   1 H    0.986 --     7 C    0.951
    25   1 H    0.992 --    11 C    0.962
    26   1 H    0.993 --    12 C    0.965
    27   1 H    0.993 --    13 C    0.966
    28   1 H    0.992 --    14 C    0.962
 ---------------------------------------------------------------------------

molecular dipole:
                 x           y           z       tot (Debye)
 q only:       -0.763      -1.911       4.155
   full:       -0.787      -1.867       4.326      12.142

           -------------------------------------------------
          | TOTAL ENERGY              -46.071869031666 Eh   |
          | GRADIENT NORM               0.000682599688 Eh/α |
          | HOMO-LUMO GAP               3.091895877908 eV   |
           -------------------------------------------------

 * finished run on 2024/12/20 at 06:44:24.084
