   * xtb version 6.7.1 (edcfbbe) compiled by 'conda@3ef47c1a292c' on 2024-11-25

   ID    Z sym.   atoms
    1   35 Br     1, 9, 10
    2    6 C      2, 4-6, 8
    3    7 N      3, 7
    4    1 H      11-16

          program call               : xtb C0436.xyz --opt --namespace C0436 --charge +1
          :  Hamiltonian                  GFN2-xTB          :
 * total energy  :   -31.4455153 Eh     change       -0.6980727E-10 Eh
 * total energy  :   -31.4476726 Eh     change       -0.2157322E-02 Eh
 * total energy  :   -31.4479154 Eh     change       -0.2428027E-03 Eh
 * total energy  :   -31.4479233 Eh     change       -0.7845936E-05 Eh
 * total energy  :   -31.4479245 Eh     change       -0.1203099E-05 Eh
   *** GEOMETRY OPTIMIZATION CONVERGED AFTER 5 ITERATIONS ***

 final structure:
================
16
 xtb: 6.7.1 (edcfbbe)
Br           0.94048146841383        0.10518484180881       -0.04828817468241
C            2.79460816629219        0.08174892026569       -0.05746075127808
N            3.57958283262807        1.17019027093630       -0.06072806982952
C            3.17329904965742        2.55057419445360       -0.05741383407463
C            4.88667536267415        0.74368202888101       -0.06769617874133
C            4.86927290843185       -0.63284829181709       -0.06851727214431
N            3.55181533082580       -1.02618383005273       -0.06206940308687
C            3.11076570752271       -2.39585911534052       -0.06032512766367
Br           6.28633414022548       -1.83619912895135       -0.07650209065849
Br           6.33370527383095        1.91083210481306       -0.07436955733047
H            3.57502733443942        3.05156817840110        0.82500264499943
H            3.56132361712156        3.05199671341594       -0.94571545374677
H            2.08801196598920        2.62061463816909       -0.04901966854312
H            3.48818204066348       -2.90654692799815       -0.94790826268721
H            3.49752688106844       -2.90722590064996        0.82283805204839
H            2.02403792021544       -2.43844869633477       -0.05461685258094

          :  Hamiltonian                  GFN2-xTB          :
         :: total energy             -31.447924456539 Eh    ::
         :: gradient norm              0.000529430870 Eh/a0 ::
         :: HOMO-LUMO gap              3.113076659072 eV    ::
         :: SCC energy               -31.728433800613 Eh    ::
         :: -> dispersion             -0.018322219778 Eh    ::
         :: repulsion energy           0.280509344074 Eh    ::

    * Orbital Energies and Occupations

         #    Occupation            Energy/Eh            Energy/eV
      -------------------------------------------------------------
         1        2.0000           -1.0255469             -27.9066
       ...           ...                  ...                  ...
        16        2.0000           -0.6976293             -18.9835
        17        2.0000           -0.6871170             -18.6974
        18        2.0000           -0.6721967             -18.2914
        19        2.0000           -0.6636898             -18.0599
        20        2.0000           -0.6628146             -18.0361
        21        2.0000           -0.6592031             -17.9378
        22        2.0000           -0.6339711             -17.2512
        23        2.0000           -0.6119126             -16.6510
        24        2.0000           -0.6079524             -16.5432
        25        2.0000           -0.5961365             -16.2217
        26        2.0000           -0.5892867             -16.0353
        27        2.0000           -0.5869011             -15.9704
        28        2.0000           -0.5644451             -15.3593 (HOMO)
        29                         -0.4500416             -12.2463 (LUMO)
        30                         -0.4225537             -11.4983
        31                         -0.4081673             -11.1068
        32                         -0.3857294             -10.4962
        33                         -0.3659033              -9.9567
        34                         -0.2252675              -6.1298
        35                         -0.2074496              -5.6450
        36                         -0.1676709              -4.5626
        37                         -0.1563132              -4.2535
        38                         -0.1550958              -4.2204
        39                         -0.1529162              -4.1611
       ...                                ...                  ...
        61                          0.4297671              11.6946
      -------------------------------------------------------------
                  HL-Gap            0.1144035 Eh            3.1131 eV

     #   Z          covCN         q      C6AA      α(0)
     1  35 Br       1.020     0.020   184.440    21.897
     2   6 C        3.045     0.154    24.619     8.138
     3   7 N        2.933     0.035    20.625     6.745
     4   6 C        3.692    -0.086    22.336     6.763
     5   6 C        3.064     0.092    25.903     8.346
     6   6 C        3.064     0.092    25.903     8.346
     7   7 N        2.933     0.035    20.625     6.745
     8   6 C        3.692    -0.086    22.336     6.763
     9  35 Br       1.012     0.004   184.884    21.924
    10  35 Br       1.012     0.004   184.884    21.924
    11   1 H        0.924     0.124     1.580     1.966
    12   1 H        0.924     0.124     1.580     1.966
    13   1 H        0.925     0.120     1.613     1.986
    14   1 H        0.924     0.124     1.580     1.966
    15   1 H        0.924     0.124     1.580     1.966
    16   1 H        0.925     0.120     1.613     1.986

Wiberg/Mayer (AO) data.
largest (>0.10) Wiberg bond orders for each atom

     #   Z sym  total        # sym  WBO       # sym  WBO       # sym  WBO
 ---------------------------------------------------------------------------
     1  35 Br   1.296 --     2 C    1.085
     2   6 C    3.942 --     7 N    1.294     3 N    1.294     1 Br   1.085
     3   7 N    3.677 --     2 C    1.294     5 C    1.170     4 C    0.978
     4   6 C    3.907 --     3 N    0.978    13 H    0.964    11 H    0.954
                            12 H    0.954
     5   6 C    3.933 --     6 C    1.454     3 N    1.170    10 Br   1.081
     6   6 C    3.933 --     5 C    1.454     7 N    1.170     9 Br   1.081
     7   7 N    3.677 --     2 C    1.294     6 C    1.170     8 C    0.978
     8   6 C    3.907 --     7 N    0.978    16 H    0.964    14 H    0.954
                            15 H    0.954
     9  35 Br   1.265 --     6 C    1.081
    10  35 Br   1.265 --     5 C    1.081
    11   1 H    0.984 --     4 C    0.954
    12   1 H    0.984 --     4 C    0.954
    13   1 H    0.985 --     4 C    0.964
    14   1 H    0.984 --     8 C    0.954
    15   1 H    0.984 --     8 C    0.954
    16   1 H    0.985 --     8 C    0.964
 ---------------------------------------------------------------------------

molecular dipole:
                 x           y           z       tot (Debye)
 q only:        6.326       0.141      -0.113
   full:        6.511       0.139      -0.115      16.557

           -------------------------------------------------
          | TOTAL ENERGY              -31.447924456539 Eh   |
          | GRADIENT NORM               0.000529430870 Eh/α |
          | HOMO-LUMO GAP               3.113076659072 eV   |
           -------------------------------------------------

 * finished run on 2024/12/20 at 06:44:32.950
