   * xtb version 6.7.1 (edcfbbe) compiled by 'conda@3ef47c1a292c' on 2024-11-25

   ID    Z sym.   atoms
    1    6 C      1, 2, 4, 5, 7-10, 12, 13
    2    8 O      3, 11
    3    7 N      6
    4    1 H      14-37

          program call               : xtb C0432.xyz --opt --namespace C0432 --charge +1
          :  Hamiltonian                  GFN2-xTB          :
 * total energy  :   -44.2896522 Eh     change       -0.6045298E-10 Eh
 * total energy  :   -44.2987960 Eh     change       -0.9143867E-02 Eh
 * total energy  :   -44.3017589 Eh     change       -0.2962831E-02 Eh
 * total energy  :   -44.3022279 Eh     change       -0.4690684E-03 Eh
 * total energy  :   -44.3027341 Eh     change       -0.5061867E-03 Eh
 * total energy  :   -44.3029560 Eh     change       -0.2219421E-03 Eh
 * total energy  :   -44.3031721 Eh     change       -0.2160692E-03 Eh
 * total energy  :   -44.3033750 Eh     change       -0.2029224E-03 Eh
 * total energy  :   -44.3036437 Eh     change       -0.2686404E-03 Eh
 * total energy  :   -44.3039753 Eh     change       -0.3316638E-03 Eh
 * total energy  :   -44.3054186 Eh     change       -0.2975525E-04 Eh
 * total energy  :   -44.3054414 Eh     change       -0.2278304E-04 Eh
 * total energy  :   -44.3054545 Eh     change       -0.1313955E-04 Eh
 * total energy  :   -44.3054784 Eh     change       -0.2389413E-04 Eh
 * total energy  :   -44.3055060 Eh     change       -0.2759916E-04 Eh
 * total energy  :   -44.3055246 Eh     change       -0.1852411E-04 Eh
 * total energy  :   -44.3055352 Eh     change       -0.1061251E-04 Eh
 * total energy  :   -44.3055435 Eh     change       -0.8369288E-05 Eh
 * total energy  :   -44.3055474 Eh     change       -0.3864082E-05 Eh
   *** GEOMETRY OPTIMIZATION CONVERGED AFTER 33 ITERATIONS ***

 final structure:
================
37
 xtb: 6.7.1 (edcfbbe)
C            0.48044590291608       -1.57399275071113        1.33208891228202
C            0.27715977563954       -1.62795204247391       -0.17612869149281
O            1.00734686523026       -0.63636970771301       -0.88980740383977
C            2.40650221148481       -0.80315139899121       -0.88439581204030
C            3.04625981648963       -0.06894583761709       -2.06778499706443
N            2.68321776623758        1.37549675468218       -2.21367783094097
C            2.64654418410063        2.03978811889676       -0.89787132346239
C            3.71037086360363        2.02640341031525       -3.04749545847268
C            1.33086115084461        1.50628822473806       -2.84099274845062
C            1.27807514344091        1.32090871675407       -4.36138923130723
O            1.89033812807534        0.10925695055185       -4.73890127252781
C            1.48747598069290       -0.40367095146350       -6.00395204269514
C            1.95677622546574        0.43546437461067       -7.18486986184744
H           -0.20571017941925       -2.26829764651845        1.80666131349651
H            0.27453929191833       -0.57452373200785        1.70744881601360
H            1.49378241938458       -1.85543135617855        1.60746890189705
H            0.54163184346501       -2.62113704782158       -0.56087172239977
H           -0.76525163722463       -1.41875431879946       -0.42362133522248
H            2.83272833340016       -0.46027589084924        0.06856436327656
H            2.66288860259059       -1.86611268299579       -0.99834721297037
H            4.12857264872218       -0.14000938096632       -1.94710030883423
H            2.75552170204788       -0.55491309660482       -3.00069934296447
H            3.57676175964254        1.85770847752566       -0.36250673543338
H            2.52388448310390        3.11377876979839       -1.02655931187907
H            1.81111274421539        1.65641999040088       -0.31588742477388
H            3.83827436695469        1.47028845441408       -3.97377777751239
H            3.41280544759145        3.04854356424830       -3.27499754137096
H            4.66024563657011        2.05082119297346       -2.51626691812320
H            0.69491961816964        0.76177168266699       -2.35902228822151
H            0.94634339230066        2.50391222753563       -2.62211348746170
H            0.21467308171214        1.31227897625593       -4.64014927571779
H            1.74868572187736        2.16889515680060       -4.87792603635751
H            1.93983959081951       -1.39636111418139       -6.04359457365828
H            0.39529765665710       -0.50955154720615       -6.02199185566960
H            1.45920394839939        1.40175691513966       -7.20926139488176
H            3.03195306810561        0.59024590786002       -7.13722428121259
H            1.72482244478847       -0.08932736305637       -8.10621680815425

          :  Hamiltonian                  GFN2-xTB          :
         :: total energy             -44.305547406897 Eh    ::
         :: gradient norm              0.000420900546 Eh/a0 ::
         :: HOMO-LUMO gap              8.193910145982 eV    ::
         :: SCC energy               -44.823858401160 Eh    ::
         :: -> dispersion             -0.026629084937 Eh    ::
         :: repulsion energy           0.518310994263 Eh    ::

    * Orbital Energies and Occupations

         #    Occupation            Energy/Eh            Energy/eV
      -------------------------------------------------------------
         1        2.0000           -0.8539493             -23.2371
       ...           ...                  ...                  ...
        28        2.0000           -0.6275570             -17.0767
        29        2.0000           -0.6138855             -16.7047
        30        2.0000           -0.6054152             -16.4742
        31        2.0000           -0.6030526             -16.4099
        32        2.0000           -0.5958686             -16.2144
        33        2.0000           -0.5856682             -15.9368
        34        2.0000           -0.5818519             -15.8330
        35        2.0000           -0.5641921             -15.3524
        36        2.0000           -0.5639616             -15.3462
        37        2.0000           -0.5475532             -14.8997
        38        2.0000           -0.5458067             -14.8522
        39        2.0000           -0.5276775             -14.3588
        40        2.0000           -0.5259195             -14.3110 (HOMO)
        41                         -0.2247988              -6.1171 (LUMO)
        42                         -0.1642531              -4.4696
        43                         -0.1436319              -3.9084
        44                         -0.1422077              -3.8697
        45                         -0.1224163              -3.3311
        46                         -0.1028085              -2.7976
        47                         -0.0512706              -1.3951
        48                         -0.0356541              -0.9702
        49                         -0.0289978              -0.7891
        50                         -0.0221868              -0.6037
        51                         -0.0166433              -0.4529
       ...                                ...                  ...
        76                          0.1806953               4.9170
      -------------------------------------------------------------
                  HL-Gap            0.3011207 Eh            8.1939 eV

     #   Z          covCN         q      C6AA      α(0)
     1   6 C        3.750    -0.124    22.936     6.830
     2   6 C        3.691     0.073    19.534     6.325
     3   8 O        1.699    -0.332    19.554     5.970
     4   6 C        3.690     0.072    19.556     6.329
     5   6 C        3.760    -0.056    21.620     6.629
     6   7 N        3.621     0.142    18.837     6.446
     7   6 C        3.721    -0.099    22.504     6.775
     8   6 C        3.721    -0.099    22.504     6.775
     9   6 C        3.760    -0.056    21.620     6.629
    10   6 C        3.690     0.072    19.556     6.329
    11   8 O        1.699    -0.332    19.554     5.970
    12   6 C        3.691     0.073    19.534     6.325
    13   6 C        3.750    -0.124    22.936     6.830
    14   1 H        0.925     0.062     2.171     2.304
    15   1 H        0.925     0.053     2.280     2.361
    16   1 H        0.925     0.047     2.358     2.401
    17   1 H        0.924     0.037     2.494     2.470
    18   1 H        0.924     0.064     2.151     2.293
    19   1 H        0.923     0.047     2.354     2.399
    20   1 H        0.923     0.062     2.173     2.305
    21   1 H        0.924     0.086     1.915     2.164
    22   1 H        0.924     0.131     1.531     1.935
    23   1 H        0.925     0.096     1.823     2.111
    24   1 H        0.925     0.094     1.836     2.119
    25   1 H        0.925     0.113     1.668     2.020
    26   1 H        0.925     0.113     1.668     2.020
    27   1 H        0.925     0.096     1.823     2.111
    28   1 H        0.925     0.094     1.836     2.119
    29   1 H        0.924     0.131     1.531     1.935
    30   1 H        0.924     0.086     1.915     2.164
    31   1 H        0.923     0.062     2.173     2.305
    32   1 H        0.923     0.047     2.354     2.399
    33   1 H        0.924     0.064     2.151     2.293
    34   1 H        0.924     0.037     2.494     2.470
    35   1 H        0.925     0.047     2.358     2.401
    36   1 H        0.925     0.053     2.280     2.361
    37   1 H        0.925     0.062     2.171     2.304

Wiberg/Mayer (AO) data.
largest (>0.10) Wiberg bond orders for each atom

     #   Z sym  total        # sym  WBO       # sym  WBO       # sym  WBO
 ---------------------------------------------------------------------------
     1   6 C    3.992 --     2 C    1.015    15 H    0.986    16 H    0.986
                            14 H    0.981
     2   6 C    3.936 --     1 C    1.015    18 H    0.969    17 H    0.969
                             3 O    0.956
     3   8 O    2.072 --     4 C    0.993     2 C    0.956
     4   6 C    3.959 --     5 C    1.002     3 O    0.993    19 H    0.963
                            20 H    0.958
     5   6 C    3.928 --     4 C    1.002    21 H    0.968    22 H    0.948
                             6 N    0.931
     6   7 N    3.815 --     7 C    0.959     8 C    0.959     5 C    0.931
                             9 C    0.931
     7   6 C    3.927 --    24 H    0.975    23 H    0.975    25 H    0.971
                             6 N    0.959
     8   6 C    3.927 --    28 H    0.975    27 H    0.975    26 H    0.971
                             6 N    0.959
     9   6 C    3.928 --    10 C    1.002    30 H    0.968    29 H    0.948
                             6 N    0.931
    10   6 C    3.959 --     9 C    1.002    11 O    0.993    32 H    0.963
                            31 H    0.958
    11   8 O    2.072 --    10 C    0.993    12 C    0.956
    12   6 C    3.936 --    13 C    1.015    33 H    0.969    34 H    0.969
                            11 O    0.956
    13   6 C    3.992 --    12 C    1.015    36 H    0.986    35 H    0.986
                            37 H    0.981
    14   1 H    0.996 --     1 C    0.981
    15   1 H    0.997 --     1 C    0.986
    16   1 H    0.998 --     1 C    0.986
    17   1 H    0.999 --     2 C    0.969
    18   1 H    0.996 --     2 C    0.969
    19   1 H    0.998 --     4 C    0.963
    20   1 H    0.996 --     4 C    0.958
    21   1 H    0.993 --     5 C    0.968
    22   1 H    0.983 --     5 C    0.948
    23   1 H    0.990 --     7 C    0.975
    24   1 H    0.991 --     7 C    0.975
    25   1 H    0.987 --     7 C    0.971
    26   1 H    0.987 --     8 C    0.971
    27   1 H    0.990 --     8 C    0.975
    28   1 H    0.991 --     8 C    0.975
    29   1 H    0.983 --     9 C    0.948
    30   1 H    0.993 --     9 C    0.968
    31   1 H    0.996 --    10 C    0.958
    32   1 H    0.998 --    10 C    0.963
    33   1 H    0.996 --    12 C    0.969
    34   1 H    0.999 --    12 C    0.969
    35   1 H    0.998 --    13 C    0.986
    36   1 H    0.997 --    13 C    0.986
    37   1 H    0.996 --    13 C    0.981
 ---------------------------------------------------------------------------

molecular dipole:
                 x           y           z       tot (Debye)
 q only:        4.600       1.975      -4.412
   full:        4.596       1.970      -4.414      16.954

           -------------------------------------------------
          | TOTAL ENERGY              -44.305547406897 Eh   |
          | GRADIENT NORM               0.000420900546 Eh/α |
          | HOMO-LUMO GAP               8.193910145982 eV   |
           -------------------------------------------------

 * finished run on 2024/12/20 at 06:44:25.194
