   * xtb version 6.7.1 (edcfbbe) compiled by 'conda@3ef47c1a292c' on 2024-11-25

   ID    Z sym.   atoms
    1    6 C      1-12, 14, 15
    2    7 N      13
    3    1 H      16-45

          program call               : xtb C0447.xyz --opt --namespace C0447 --charge +1
          :  Hamiltonian                  GFN2-xTB          :
 * total energy  :   -47.8214555 Eh     change       -0.2766214E-09 Eh
 * total energy  :   -47.8246622 Eh     change       -0.3206694E-02 Eh
 * total energy  :   -47.8254482 Eh     change       -0.7859516E-03 Eh
 * total energy  :   -47.8255750 Eh     change       -0.1268277E-03 Eh
 * total energy  :   -47.8256880 Eh     change       -0.1130082E-03 Eh
 * total energy  :   -47.8257348 Eh     change       -0.4676894E-04 Eh
 * total energy  :   -47.8257699 Eh     change       -0.3513963E-04 Eh
 * total energy  :   -47.8257985 Eh     change       -0.2860804E-04 Eh
 * total energy  :   -47.8258181 Eh     change       -0.1961580E-04 Eh
 * total energy  :   -47.8258410 Eh     change       -0.2289625E-04 Eh
 * total energy  :   -47.8258540 Eh     change       -0.1299287E-04 Eh
 * total energy  :   -47.8258670 Eh     change       -0.1297069E-04 Eh
 * total energy  :   -47.8258795 Eh     change       -0.1255470E-04 Eh
 * total energy  :   -47.8258869 Eh     change       -0.7310961E-05 Eh
 * total energy  :   -47.8258915 Eh     change       -0.4633504E-05 Eh
   *** GEOMETRY OPTIMIZATION CONVERGED AFTER 15 ITERATIONS ***

 final structure:
================
45
 xtb: 6.7.1 (edcfbbe)
C           -1.26885558875920        0.32969071355868       -0.28416512751551
C           -0.19406681050678        1.39112711126130       -0.01475462888230
C            1.20779458564631        0.91049826925187       -0.37940059788145
C            1.54478416089287       -0.37487837238836        0.36910770392550
C            0.50642556581390       -1.45321076799916        0.07748632461370
C           -0.88994786739284       -0.96203136367278        0.44812670477451
C           -1.48154325397594        0.14119765022618       -1.79192797071685
C           -2.62768421555447       -0.79551559151454       -2.18198785851286
C           -4.00280968936590       -0.40721025649284       -1.63138823930734
C           -4.45338566610169        1.01226248061343       -1.98952971971881
C           -4.52825691912571        1.30912771251934       -3.49081083919471
C           -5.42888402591782        0.35642765259301       -4.27311013550893
N           -6.80235914300592        0.26927947344793       -3.70427698672627
C           -7.57678768747703        1.50229250863632       -3.92391352625399
C           -7.52912987230257       -0.90146104728220       -4.22272641696352
H           -2.20654816917625        0.70025925791636        0.14799396912789
H           -0.42798054684495        2.30441393793090       -0.56783688003606
H           -0.21141577801061        1.63726810383201        1.04932323179870
H            1.93096578962296        1.68710173155916       -0.12420855930888
H            1.27887051845642        0.73913592776105       -1.45501240991118
H            1.56152163408035       -0.17273164899833        1.44234354440460
H            2.53700460594528       -0.72479519935396        0.07973763245334
H            0.73611562437536       -2.35246247697030        0.65205998163424
H            0.54340575247548       -1.72267316982952       -0.97977095898465
H           -0.91298966996290       -0.76162767884326        1.52187085788907
H           -1.62541477385694       -1.74399480024290        0.24923013800733
H           -1.64489989858803        1.12490708233284       -2.23940723896400
H           -0.57158364610065       -0.25982236728955       -2.23628370995839
H           -2.66748074518166       -0.84696674309746       -3.27365994006069
H           -2.40089100833486       -1.80232667269315       -1.82898370725510
H           -4.73359417965332       -1.14532598405604       -1.97875666087417
H           -3.97851357284860       -0.48383864923309       -0.54393643809585
H           -5.41684476811289        1.21553785975613       -1.50769687617135
H           -3.74639979485967        1.71688618516129       -1.55282135627801
H           -4.84409897624677        2.34326514990231       -3.63582256872937
H           -3.52977721137263        1.22449150382705       -3.91903687728291
H           -5.50829358776073        0.67532659032018       -5.31388108603345
H           -4.99551362607378       -0.64464048941205       -4.25213579408256
H           -6.67429960900614        0.15271540467418       -2.69015974514571
H           -7.71330349213379        1.66324536891389       -4.99185364449763
H           -8.55501346598882        1.42166898634501       -3.45369602517434
H           -7.05848236556286        2.35927043063430       -3.50115157908511
H           -6.99065101959982       -1.81850699405242       -3.99108466472427
H           -8.52132408785113       -0.95856521742197       -3.77858030584410
H           -7.63334350469573       -0.81937160213055       -5.30350101494773

          :  Hamiltonian                  GFN2-xTB          :
         :: total energy             -47.825891492613 Eh    ::
         :: gradient norm              0.000402771844 Eh/a0 ::
         :: HOMO-LUMO gap              6.626908186722 eV    ::
         :: SCC energy               -48.515136398017 Eh    ::
         :: -> dispersion             -0.036088924945 Eh    ::
         :: repulsion energy           0.689244905404 Eh    ::

    * Orbital Energies and Occupations

         #    Occupation            Energy/Eh            Energy/eV
      -------------------------------------------------------------
         1        2.0000           -0.8755976             -23.8262
       ...           ...                  ...                  ...
        33        2.0000           -0.5629938             -15.3198
        34        2.0000           -0.5573372             -15.1659
        35        2.0000           -0.5464093             -14.8686
        36        2.0000           -0.5409788             -14.7208
        37        2.0000           -0.5400655             -14.6959
        38        2.0000           -0.5301851             -14.4271
        39        2.0000           -0.5236049             -14.2480
        40        2.0000           -0.5148945             -14.0110
        41        2.0000           -0.5050043             -13.7419
        42        2.0000           -0.5008567             -13.6290
        43        2.0000           -0.4806682             -13.0796
        44        2.0000           -0.4761401             -12.9564
        45        2.0000           -0.4760042             -12.9527 (HOMO)
        46                         -0.2324698              -6.3258 (LUMO)
        47                         -0.1482181              -4.0332
        48                         -0.1421540              -3.8682
        49                         -0.1288027              -3.5049
        50                         -0.0715064              -1.9458
        51                         -0.0491403              -1.3372
        52                         -0.0411860              -1.1207
        53                         -0.0304391              -0.8283
        54                         -0.0228725              -0.6224
        55                         -0.0185294              -0.5042
        56                         -0.0102257              -0.2783
       ...                                ...                  ...
        90                          0.2549076               6.9364
      -------------------------------------------------------------
                  HL-Gap            0.2435344 Eh            6.6269 eV

     #   Z          covCN         q      C6AA      α(0)
     1   6 C        3.851    -0.017    20.846     6.494
     2   6 C        3.808    -0.060    21.644     6.623
     3   6 C        3.804    -0.056    21.583     6.614
     4   6 C        3.806    -0.058    21.607     6.617
     5   6 C        3.804    -0.055    21.568     6.612
     6   6 C        3.807    -0.059    21.634     6.621
     7   6 C        3.802    -0.066    21.758     6.641
     8   6 C        3.800    -0.061    21.683     6.630
     9   6 C        3.799    -0.063    21.719     6.636
    10   6 C        3.800    -0.071    21.863     6.657
    11   6 C        3.800    -0.080    22.029     6.683
    12   6 C        3.745    -0.041    21.368     6.594
    13   7 N        3.577     0.062    20.163     6.669
    14   6 C        3.700    -0.096    22.506     6.784
    15   6 C        3.701    -0.096    22.504     6.784
    16   1 H        0.924     0.018     2.763     2.600
    17   1 H        0.924     0.023     2.693     2.566
    18   1 H        0.924     0.036     2.497     2.471
    19   1 H        0.924     0.033     2.542     2.493
    20   1 H        0.924     0.030     2.584     2.514
    21   1 H        0.924     0.035     2.510     2.478
    22   1 H        0.924     0.032     2.554     2.499
    23   1 H        0.924     0.031     2.566     2.505
    24   1 H        0.924     0.030     2.587     2.515
    25   1 H        0.924     0.035     2.511     2.478
    26   1 H        0.924     0.024     2.678     2.559
    27   1 H        0.924     0.026     2.641     2.541
    28   1 H        0.925     0.048     2.342     2.393
    29   1 H        0.924     0.023     2.690     2.565
    30   1 H        0.924     0.045     2.378     2.411
    31   1 H        0.924     0.010     2.885     2.656
    32   1 H        0.924     0.053     2.286     2.365
    33   1 H        0.924     0.020     2.730     2.584
    34   1 H        0.925     0.073     2.058     2.244
    35   1 H        0.924     0.056     2.249     2.345
    36   1 H        0.925     0.087     1.909     2.161
    37   1 H        0.924     0.090     1.883     2.146
    38   1 H        0.924     0.096     1.826     2.113
    39   1 H        0.859     0.238     0.932     1.512
    40   1 H        0.925     0.105     1.737     2.061
    41   1 H        0.925     0.101     1.775     2.084
    42   1 H        0.925     0.107     1.719     2.050
    43   1 H        0.925     0.102     1.771     2.081
    44   1 H        0.925     0.104     1.751     2.069
    45   1 H        0.925     0.107     1.727     2.055

Wiberg/Mayer (AO) data.
largest (>0.10) Wiberg bond orders for each atom

     #   Z sym  total        # sym  WBO       # sym  WBO       # sym  WBO
 ---------------------------------------------------------------------------
     1   6 C    3.996 --     7 C    0.997     6 C    0.997     2 C    0.995
                            16 H    0.965
     2   6 C    3.997 --     3 C    1.009     1 C    0.995    18 H    0.977
                            17 H    0.977
     3   6 C    3.998 --     2 C    1.009     4 C    1.009    19 H    0.977
                            20 H    0.975
     4   6 C    3.998 --     3 C    1.009     5 C    1.009    22 H    0.977
                            21 H    0.977
     5   6 C    3.998 --     6 C    1.009     4 C    1.009    23 H    0.977
                            24 H    0.975
     6   6 C    3.998 --     5 C    1.009     1 C    0.997    25 H    0.976
                            26 H    0.974
     7   6 C    3.995 --     8 C    1.007     1 C    0.997    27 H    0.973
                            28 H    0.969
     8   6 C    3.995 --     7 C    1.007     9 C    1.006    29 H    0.975
                            30 H    0.973
     9   6 C    3.994 --     8 C    1.006    10 C    1.006    31 H    0.975
                            32 H    0.972
    10   6 C    3.991 --     9 C    1.006    11 C    1.005    33 H    0.968
                            34 H    0.967
    11   6 C    3.983 --    12 C    1.006    10 C    1.005    35 H    0.972
                            36 H    0.961
    12   6 C    3.918 --    11 C    1.006    37 H    0.968    38 H    0.963
                            13 N    0.925
    13   7 N    3.778 --    15 C    0.964    14 C    0.962    12 C    0.925
                            39 H    0.896
    14   6 C    3.920 --    41 H    0.975    40 H    0.975    42 H    0.971
                            13 N    0.962
    15   6 C    3.921 --    45 H    0.975    43 H    0.975    44 H    0.974
                            13 N    0.964
    16   1 H    1.000 --     1 C    0.965
    17   1 H    0.999 --     2 C    0.977
    18   1 H    0.998 --     2 C    0.977
    19   1 H    0.999 --     3 C    0.977
    20   1 H    0.999 --     3 C    0.975
    21   1 H    0.999 --     4 C    0.977
    22   1 H    0.999 --     4 C    0.977
    23   1 H    0.999 --     5 C    0.977
    24   1 H    0.999 --     5 C    0.975
    25   1 H    0.999 --     6 C    0.976
    26   1 H    0.999 --     6 C    0.974
    27   1 H    0.999 --     7 C    0.973
    28   1 H    0.998 --     7 C    0.969
    29   1 H    0.999 --     8 C    0.975
    30   1 H    0.998 --     8 C    0.973
    31   1 H    1.000 --     9 C    0.975
    32   1 H    0.997 --     9 C    0.972
    33   1 H    1.000 --    10 C    0.968
    34   1 H    0.995 --    10 C    0.967
    35   1 H    0.997 --    11 C    0.972
    36   1 H    0.992 --    11 C    0.961
    37   1 H    0.992 --    12 C    0.968
    38   1 H    0.991 --    12 C    0.963
    39   1 H    0.943 --    13 N    0.896
    40   1 H    0.989 --    14 C    0.975
    41   1 H    0.990 --    14 C    0.975
    42   1 H    0.988 --    14 C    0.971
    43   1 H    0.990 --    15 C    0.975
    44   1 H    0.989 --    15 C    0.974
    45   1 H    0.989 --    15 C    0.975
 ---------------------------------------------------------------------------

molecular dipole:
                 x           y           z       tot (Debye)
 q only:      -12.020       0.628      -6.862
   full:      -12.121       0.585      -6.764      35.311

           -------------------------------------------------
          | TOTAL ENERGY              -47.825891492613 Eh   |
          | GRADIENT NORM               0.000402771844 Eh/α |
          | HOMO-LUMO GAP               6.626908186722 eV   |
           -------------------------------------------------

 * finished run on 2024/12/20 at 06:45:00.268
