   * xtb version 6.7.1 (edcfbbe) compiled by 'conda@3ef47c1a292c' on 2024-11-25

   ID    Z sym.   atoms
    1    6 C      1-4, 6, 9-16, 19
    2    7 N      5, 7, 8
    3    8 O      17, 18
    4    1 H      20-39

          program call               : xtb C0445.xyz --opt --namespace C0445 --charge +1
          :  Hamiltonian                  GFN2-xTB          :
 * total energy  :   -56.7539694 Eh     change       -0.1622197E-08 Eh
 * total energy  :   -56.7609000 Eh     change       -0.6930588E-02 Eh
 * total energy  :   -56.7621459 Eh     change       -0.1245922E-02 Eh
 * total energy  :   -56.7624662 Eh     change       -0.3203061E-03 Eh
 * total energy  :   -56.7627743 Eh     change       -0.3080907E-03 Eh
 * total energy  :   -56.7629592 Eh     change       -0.1849676E-03 Eh
 * total energy  :   -56.7631459 Eh     change       -0.1866705E-03 Eh
 * total energy  :   -56.7633581 Eh     change       -0.2121798E-03 Eh
 * total energy  :   -56.7635578 Eh     change       -0.1997355E-03 Eh
 * total energy  :   -56.7637334 Eh     change       -0.1755411E-03 Eh
 * total energy  :   -56.7640467 Eh     change       -0.5098382E-04 Eh
 * total energy  :   -56.7640626 Eh     change       -0.1592458E-04 Eh
 * total energy  :   -56.7640781 Eh     change       -0.1545122E-04 Eh
 * total energy  :   -56.7640939 Eh     change       -0.1578177E-04 Eh
 * total energy  :   -56.7641027 Eh     change       -0.8806756E-05 Eh
 * total energy  :   -56.7641193 Eh     change       -0.1660546E-04 Eh
 * total energy  :   -56.7641276 Eh     change       -0.8291246E-05 Eh
 * total energy  :   -56.7641334 Eh     change       -0.5840430E-05 Eh
 * total energy  :   -56.7641354 Eh     change       -0.1997850E-05 Eh
   *** GEOMETRY OPTIMIZATION CONVERGED AFTER 22 ITERATIONS ***

 final structure:
================
39
 xtb: 6.7.1 (edcfbbe)
C            1.73961428274395       -0.40457460616778       -0.59537789229903
C            1.04402660491375       -1.75192718330468       -0.44288003315556
C            1.25661084110398       -2.37695079665373        0.93835641124993
C            0.42255056626456       -1.71135105259920        2.03906371364762
N           -0.99121585413629       -1.99535348401165        1.89361149247396
C           -1.59179658706641       -3.14758685603954        2.23434225673978
N           -1.00898133428625       -4.18035359594284        2.84529000869134
N           -2.90751267988844       -3.09376899548889        1.93267950227383
C           -3.16373683700195       -1.85836349999285        1.34408028680306
C           -1.94635299755790       -1.16096898487275        1.32361908416938
C           -1.86302444727490        0.11918360139471        0.80166893321623
C           -3.02551077402216        0.67323315890515        0.29706886037957
C           -4.23124728910140       -0.02235189625985        0.31220374068703
C           -4.32377318904359       -1.29958904873427        0.83616300713871
C           -3.90376414142763       -4.08335612555329        2.27258346424214
C           -3.68355139943666       -5.41497155612248        1.53945765265700
O           -2.63517419118622       -6.01363770953146        1.58700305399003
O           -4.75880418206590       -5.78626181943698        0.89479141267163
C           -4.74111370014152       -7.03706757732584        0.19944605113612
H            1.39363390041412        0.31812733682590        0.13958467806643
H            1.54818513986748        0.00379854679639       -1.58368577807249
H            2.81422307893490       -0.51804617215202       -0.47746457009193
H           -0.02518312724750       -1.64492052516930       -0.64098787521648
H            1.44662743140973       -2.43425132638610       -1.19267698634274
H            1.01034423782480       -3.44043449523198        0.89259691420148
H            2.30919308844372       -2.29095096168140        1.21065588692895
H            0.74736163064903       -2.05074552912504        3.02667396712892
H            0.54535692815805       -0.62936182277507        2.00278290213237
H           -0.00912741811432       -4.17351068517055        2.96294180456101
H           -1.44753167679006       -5.09324915112612        2.73281575489893
H           -0.93602353402514        0.66662478257018        0.77779251505088
H           -2.99607852741325        1.66682111564235       -0.12001074438529
H           -5.11401939376462        0.44436302668791       -0.09390268791315
H           -5.26339337625292       -1.82722702993399        0.83894028677074
H           -3.86756211317356       -4.28619117913057        3.35014449793072
H           -4.88770089577659       -3.69172969322791        2.01697156241803
H           -3.73385663109281       -7.26234553613318       -0.15202011759925
H           -5.07906657247685       -7.82645235213898        0.87137381933293
H           -5.43119486096778       -6.93598032140274       -0.63431683651385

          :  Hamiltonian                  GFN2-xTB          :
         :: total energy             -56.764135409968 Eh    ::
         :: gradient norm              0.000308844223 Eh/a0 ::
         :: HOMO-LUMO gap              3.816561392712 eV    ::
         :: SCC energy               -57.560797292385 Eh    ::
         :: -> dispersion             -0.037213834223 Eh    ::
         :: repulsion energy           0.796661882417 Eh    ::

    * Orbital Energies and Occupations

         #    Occupation            Energy/Eh            Energy/eV
      -------------------------------------------------------------
         1        2.0000           -0.8860168             -24.1097
       ...           ...                  ...                  ...
        39        2.0000           -0.5929982             -16.1363
        40        2.0000           -0.5893575             -16.0372
        41        2.0000           -0.5817759             -15.8309
        42        2.0000           -0.5752728             -15.6540
        43        2.0000           -0.5738215             -15.6145
        44        2.0000           -0.5677765             -15.4500
        45        2.0000           -0.5613937             -15.2763
        46        2.0000           -0.5600250             -15.2391
        47        2.0000           -0.5514012             -15.0044
        48        2.0000           -0.5433669             -14.7858
        49        2.0000           -0.5380342             -14.6407
        50        2.0000           -0.5277283             -14.3602
        51        2.0000           -0.5215917             -14.1932 (HOMO)
        52                         -0.3813356             -10.3767 (LUMO)
        53                         -0.3748632             -10.2005
        54                         -0.3490159              -9.4972
        55                         -0.3372768              -9.1778
        56                         -0.2233628              -6.0780
        57                         -0.1856462              -5.0517
        58                         -0.1411064              -3.8397
        59                         -0.1230777              -3.3491
        60                         -0.1036111              -2.8194
        61                         -0.0623367              -1.6963
        62                         -0.0428893              -1.1671
       ...                                ...                  ...
        96                          0.5585598              15.1992
      -------------------------------------------------------------
                  HL-Gap            0.1402561 Eh            3.8166 eV

     #   Z          covCN         q      C6AA      α(0)
     1   6 C        3.752    -0.111    22.681     6.792
     2   6 C        3.800    -0.059    21.632     6.622
     3   6 C        3.801    -0.071    21.849     6.655
     4   6 C        3.739    -0.016    20.936     6.529
     5   7 N        2.817    -0.025    21.718     6.922
     6   6 C        2.985     0.198    23.791     8.001
     7   7 N        2.637    -0.254    26.606     7.661
     8   7 N        2.819    -0.029    21.802     6.935
     9   6 C        3.078     0.036    27.108     8.536
    10   6 C        3.084     0.041    26.996     8.518
    11   6 C        2.911    -0.035    28.878     8.812
    12   6 C        2.925    -0.023    28.590     8.769
    13   6 C        2.926    -0.023    28.569     8.765
    14   6 C        2.910    -0.038    28.943     8.822
    15   6 C        3.739    -0.046    21.480     6.613
    16   6 C        2.715     0.357    20.943     7.491
    17   8 O        0.856    -0.409    21.852     6.267
    18   8 O        1.704    -0.216    17.592     5.663
    19   6 C        3.651     0.013    20.671     6.530
    20   1 H        0.925     0.033     2.547     2.496
    21   1 H        0.925     0.051     2.306     2.375
    22   1 H        0.925     0.049     2.327     2.386
    23   1 H        0.924     0.031     2.566     2.505
    24   1 H        0.924     0.052     2.301     2.372
    25   1 H        0.924     0.039     2.461     2.453
    26   1 H        0.924     0.068     2.109     2.271
    27   1 H        0.924     0.064     2.155     2.296
    28   1 H        0.925     0.089     1.889     2.149
    29   1 H        0.860     0.218     1.021     1.583
    30   1 H        0.860     0.254     0.869     1.461
    31   1 H        0.926     0.069     2.101     2.266
    32   1 H        0.926     0.075     2.036     2.232
    33   1 H        0.926     0.074     2.040     2.234
    34   1 H        0.926     0.062     2.178     2.308
    35   1 H        0.924     0.100     1.782     2.088
    36   1 H        0.925     0.111     1.692     2.034
    37   1 H        0.924     0.087     1.907     2.159
    38   1 H        0.924     0.088     1.896     2.154
    39   1 H        0.925     0.096     1.820     2.110

Wiberg/Mayer (AO) data.
largest (>0.10) Wiberg bond orders for each atom

     #   Z sym  total        # sym  WBO       # sym  WBO       # sym  WBO
 ---------------------------------------------------------------------------
     1   6 C    3.994 --     2 C    1.021    22 H    0.986    21 H    0.985
                            20 H    0.983
     2   6 C    3.995 --     1 C    1.021     3 C    1.007    23 H    0.976
                            24 H    0.976
     3   6 C    3.988 --     2 C    1.007     4 C    0.992    25 H    0.975
                            26 H    0.969
     4   6 C    3.944 --     3 C    0.992     5 N    0.967    27 H    0.965
                            28 H    0.961
     5   7 N    3.604 --     6 C    1.273    10 C    1.088     4 C    0.967
     6   6 C    3.972 --     7 N    1.292     5 N    1.273     8 N    1.242
     7   7 N    3.355 --     6 C    1.292    29 H    0.927    30 H    0.877
     8   7 N    3.585 --     6 C    1.242     9 C    1.080    15 C    0.986
     9   6 C    3.945 --    14 C    1.370    10 C    1.286     8 N    1.080
    10   6 C    3.951 --    11 C    1.366     9 C    1.286     5 N    1.088
    11   6 C    3.985 --    12 C    1.464    10 C    1.366    31 H    0.960
                            14 C    0.113
    12   6 C    3.981 --    11 C    1.464    13 C    1.408    32 H    0.967
    13   6 C    3.980 --    14 C    1.462    12 C    1.408    33 H    0.967
    14   6 C    3.986 --    13 C    1.462     9 C    1.370    34 H    0.962
                            11 C    0.113
    15   6 C    3.956 --     8 N    0.986    36 H    0.960    35 H    0.944
                            16 C    0.936
    16   6 C    3.929 --    17 O    1.706    18 O    1.222    15 C    0.936
    17   8 O    2.059 --    16 C    1.706    18 O    0.193
    18   8 O    2.383 --    16 C    1.222    19 C    0.929    17 O    0.193
    19   6 C    3.891 --    39 H    0.976    37 H    0.976    38 H    0.970
                            18 O    0.929
    20   1 H    0.999 --     1 C    0.983
    21   1 H    0.997 --     1 C    0.985
    22   1 H    0.998 --     1 C    0.986
    23   1 H    0.999 --     2 C    0.976
    24   1 H    0.997 --     2 C    0.976
    25   1 H    0.998 --     3 C    0.975
    26   1 H    0.994 --     3 C    0.969
    27   1 H    0.995 --     4 C    0.965
    28   1 H    0.992 --     4 C    0.961
    29   1 H    0.952 --     7 N    0.927
    30   1 H    0.935 --     7 N    0.877
    31   1 H    0.995 --    11 C    0.960
    32   1 H    0.994 --    12 C    0.967
    33   1 H    0.994 --    13 C    0.967
    34   1 H    0.996 --    14 C    0.962
    35   1 H    0.989 --    15 C    0.944
    36   1 H    0.987 --    15 C    0.960
    37   1 H    0.992 --    19 C    0.976
    38   1 H    0.992 --    19 C    0.970
    39   1 H    0.991 --    19 C    0.976
 ---------------------------------------------------------------------------

molecular dipole:
                 x           y           z       tot (Debye)
 q only:       -4.050      -5.482       2.911
   full:       -4.058      -5.677       3.013      19.319

           -------------------------------------------------
          | TOTAL ENERGY              -56.764135409968 Eh   |
          | GRADIENT NORM               0.000308844223 Eh/α |
          | HOMO-LUMO GAP               3.816561392712 eV   |
           -------------------------------------------------

 * finished run on 2024/12/20 at 06:44:56.693
