   * xtb version 6.7.1 (edcfbbe) compiled by 'conda@3ef47c1a292c' on 2024-11-25

   ID    Z sym.   atoms
    1    6 C      1, 2, 5, 6, 8-15
    2    8 O      3
    3    7 N      4, 7
    4    1 H      16-28

          program call               : xtb C0443.xyz --opt --namespace C0443 --charge +1
          :  Hamiltonian                  GFN2-xTB          :
 * total energy  :   -41.8308450 Eh     change       -0.2731397E-09 Eh
 * total energy  :   -41.8387457 Eh     change       -0.7900670E-02 Eh
 * total energy  :   -41.8411275 Eh     change       -0.2381855E-02 Eh
 * total energy  :   -41.8415157 Eh     change       -0.3881672E-03 Eh
 * total energy  :   -41.8416892 Eh     change       -0.1734843E-03 Eh
 * total energy  :   -41.8417217 Eh     change       -0.3253970E-04 Eh
 * total energy  :   -41.8417413 Eh     change       -0.1961796E-04 Eh
 * total energy  :   -41.8417497 Eh     change       -0.8339117E-05 Eh
 * total energy  :   -41.8417672 Eh     change       -0.1752851E-04 Eh
 * total energy  :   -41.8417760 Eh     change       -0.8770869E-05 Eh
 * total energy  :   -41.8417882 Eh     change       -0.1223789E-04 Eh
 * total energy  :   -41.8418040 Eh     change       -0.1579918E-04 Eh
 * total energy  :   -41.8418157 Eh     change       -0.1168738E-04 Eh
 * total energy  :   -41.8418225 Eh     change       -0.6862762E-05 Eh
 * total energy  :   -41.8418273 Eh     change       -0.4782802E-05 Eh
   *** GEOMETRY OPTIMIZATION CONVERGED AFTER 15 ITERATIONS ***

 final structure:
================
28
 xtb: 6.7.1 (edcfbbe)
C            1.44557031486794        0.67282170351884       -0.17271762140373
C            0.26408323007981        1.08563136889024        0.61907634761331
O           -0.88515775870825        1.01317046288263        0.33244159057085
N            0.58943460436543        1.65543169177143        1.92844620727572
C            1.80702764053134        1.90481833440861        2.50335432612706
C            1.56630528632802        2.44785256787459        3.72551207032075
N            0.21138760151406        2.51863103276308        3.88812457110875
C           -0.35812318750019        2.04278842905650        2.79655139640932
C           -0.48109155775410        3.11119869035808        5.01670142666654
C           -0.90477881059391        4.52224203180004        4.66512763643843
C           -0.01690617186836        5.57767508666550        4.82694708843283
C           -0.39806779639269        6.86313614178023        4.48332754426002
C           -1.66328969361270        7.09832450180856        3.97144038293592
C           -2.54977467798670        6.04724616517227        3.80580588977225
C           -2.17106521077950        4.76060762261410        4.14744069865410
H            1.10558929042524        0.24333076306799       -1.11216998338263
H            2.03200739290608       -0.06917146569513        0.36709216525695
H            2.08303036410701        1.52980493742976       -0.38631753843867
H            2.73997291845985        1.68845348115812        2.02568876931644
H            2.25523925280609        2.77555005665347        4.47773043591056
H           -1.41182636156491        1.96451028203182        2.60411655501769
H           -1.35556655558817        2.50110663784251        5.25138133169960
H            0.19784572841045        3.11282456815245        5.87090217396494
H            0.96754548595522        5.40074734375829        5.23531096238118
H            0.29234036184501        7.68057439910054        4.61976535434596
H           -1.96027535993250        8.10082652595083        3.70686577515216
H           -3.53852902552483        6.22749881328313        3.41432173749728
H           -2.87105730479425        3.94625782590217        4.02912270609583

          :  Hamiltonian                  GFN2-xTB          :
         :: total energy             -41.841827331292 Eh    ::
         :: gradient norm              0.000324158514 Eh/a0 ::
         :: HOMO-LUMO gap              2.011061203753 eV    ::
         :: SCC energy               -42.518221203018 Eh    ::
         :: -> dispersion             -0.024664156697 Eh    ::
         :: repulsion energy           0.676393871726 Eh    ::

    * Orbital Energies and Occupations

         #    Occupation            Energy/Eh            Energy/eV
      -------------------------------------------------------------
         1        2.0000           -0.9060206             -24.6541
       ...           ...                  ...                  ...
        26        2.0000           -0.6327175             -17.2171
        27        2.0000           -0.6261326             -17.0379
        28        2.0000           -0.6162296             -16.7685
        29        2.0000           -0.6044179             -16.4470
        30        2.0000           -0.6011543             -16.3582
        31        2.0000           -0.5969029             -16.2426
        32        2.0000           -0.5951837             -16.1958
        33        2.0000           -0.5941300             -16.1671
        34        2.0000           -0.5890484             -16.0288
        35        2.0000           -0.5438310             -14.7984
        36        2.0000           -0.5392893             -14.6748
        37        2.0000           -0.5250332             -14.2869
        38        2.0000           -0.5241499             -14.2628 (HOMO)
        39                         -0.4502448             -12.2518 (LUMO)
        40                         -0.3941394             -10.7251
        41                         -0.3636721              -9.8960
        42                         -0.3490599              -9.4984
        43                         -0.3422080              -9.3120
        44                         -0.2221952              -6.0462
        45                         -0.1936550              -5.2696
        46                         -0.1393323              -3.7914
        47                         -0.0639447              -1.7400
        48                         -0.0524500              -1.4272
        49                         -0.0449420              -1.2229
       ...                                ...                  ...
        73                          0.5443126              14.8115
      -------------------------------------------------------------
                  HL-Gap            0.0739051 Eh            2.0111 eV

     #   Z          covCN         q      C6AA      α(0)
     1   6 C        3.754    -0.160    23.667     6.937
     2   6 C        2.749     0.293    22.039     7.687
     3   8 O        0.858    -0.280    19.423     5.909
     4   7 N        2.868     0.011    21.062     6.816
     5   6 C        3.049     0.002    27.926     8.667
     6   6 C        3.075    -0.001    27.977     8.672
     7   7 N        2.864     0.082    19.815     6.611
     8   6 C        3.088     0.070    26.338     8.412
     9   6 C        3.748    -0.032    21.214     6.569
    10   6 C        2.973    -0.004    28.113     8.697
    11   6 C        2.922    -0.036    28.892     8.815
    12   6 C        2.919    -0.021    28.536     8.760
    13   6 C        2.920    -0.019    28.475     8.751
    14   6 C        2.919    -0.021    28.522     8.758
    15   6 C        2.922    -0.037    28.922     8.819
    16   1 H        0.925     0.120     1.616     1.988
    17   1 H        0.925     0.109     1.703     2.041
    18   1 H        0.925     0.110     1.694     2.035
    19   1 H        0.927     0.114     1.666     2.018
    20   1 H        0.926     0.114     1.659     2.014
    21   1 H        0.926     0.135     1.495     1.912
    22   1 H        0.924     0.092     1.857     2.131
    23   1 H        0.924     0.095     1.831     2.116
    24   1 H        0.926     0.040     2.442     2.444
    25   1 H        0.926     0.059     2.211     2.325
    26   1 H        0.926     0.062     2.171     2.304
    27   1 H        0.926     0.060     2.195     2.317
    28   1 H        0.926     0.041     2.436     2.441

Wiberg/Mayer (AO) data.
largest (>0.10) Wiberg bond orders for each atom

     #   Z sym  total        # sym  WBO       # sym  WBO       # sym  WBO
 ---------------------------------------------------------------------------
     1   6 C    3.977 --     2 C    1.034    16 H    0.967    17 H    0.943
                            18 H    0.940
     2   6 C    3.918 --     3 O    1.897     1 C    1.034     4 N    0.921
     3   8 O    2.166 --     2 C    1.897
     4   7 N    3.686 --     8 C    1.313     5 C    1.199     2 C    0.921
     5   6 C    3.947 --     6 C    1.619     4 N    1.199    19 H    0.959
     6   6 C    3.947 --     5 C    1.619     7 N    1.205    20 H    0.959
     7   7 N    3.732 --     8 C    1.414     6 C    1.205     9 C    0.953
     8   6 C    3.943 --     7 N    1.414     4 N    1.313    21 H    0.948
     9   6 C    3.926 --    10 C    0.971    23 H    0.963    22 H    0.959
                             7 N    0.953
    10   6 C    3.973 --    11 C    1.414    15 C    1.414     9 C    0.971
                            13 C    0.109
    11   6 C    3.991 --    12 C    1.442    10 C    1.414    24 H    0.968
                            14 C    0.111
    12   6 C    3.990 --    11 C    1.442    13 C    1.439    25 H    0.968
                            15 C    0.111
    13   6 C    3.987 --    12 C    1.439    14 C    1.438    26 H    0.968
                            10 C    0.109
    14   6 C    3.989 --    15 C    1.442    13 C    1.438    27 H    0.968
                            11 C    0.111
    15   6 C    3.991 --    14 C    1.442    10 C    1.414    28 H    0.968
                            12 C    0.111
    16   1 H    0.985 --     1 C    0.967
    17   1 H    0.988 --     1 C    0.943
    18   1 H    0.988 --     1 C    0.940
    19   1 H    0.987 --     5 C    0.959
    20   1 H    0.986 --     6 C    0.959
    21   1 H    0.982 --     8 C    0.948
    22   1 H    0.991 --     9 C    0.959
    23   1 H    0.990 --     9 C    0.963
    24   1 H    0.998 --    11 C    0.968
    25   1 H    0.996 --    12 C    0.968
    26   1 H    0.995 --    13 C    0.968
    27   1 H    0.996 --    14 C    0.968
    28   1 H    0.998 --    15 C    0.968
 ---------------------------------------------------------------------------

molecular dipole:
                 x           y           z       tot (Debye)
 q only:        1.409       4.923       5.645
   full:        1.535       4.846       5.736      19.480

           -------------------------------------------------
          | TOTAL ENERGY              -41.841827331292 Eh   |
          | GRADIENT NORM               0.000324158514 Eh/α |
          | HOMO-LUMO GAP               2.011061203753 eV   |
           -------------------------------------------------

 * finished run on 2024/12/20 at 06:44:54.294
