   * xtb version 6.7.1 (edcfbbe) compiled by 'conda@3ef47c1a292c' on 2024-11-25

   ID    Z sym.   atoms
    1    6 C      1, 3-8, 10, 12-24
    2    7 N      2, 9
    3   16 S      11
    4    1 H      25-43

          program call               : xtb C0446.xyz --opt --namespace C0446 --charge +1
          :  Hamiltonian                  GFN2-xTB          :
 * total energy  :   -63.3715847 Eh     change       -0.2758171E-08 Eh
 * total energy  :   -63.3774359 Eh     change       -0.5851162E-02 Eh
 * total energy  :   -63.3786468 Eh     change       -0.1210950E-02 Eh
 * total energy  :   -63.3789837 Eh     change       -0.3368675E-03 Eh
 * total energy  :   -63.3792224 Eh     change       -0.2386627E-03 Eh
 * total energy  :   -63.3793527 Eh     change       -0.1303237E-03 Eh
 * total energy  :   -63.3794955 Eh     change       -0.1428523E-03 Eh
 * total energy  :   -63.3796567 Eh     change       -0.1611542E-03 Eh
 * total energy  :   -63.3798372 Eh     change       -0.1804625E-03 Eh
 * total energy  :   -63.3800489 Eh     change       -0.2117893E-03 Eh
 * total energy  :   -63.3822110 Eh     change       -0.7883213E-05 Eh
 * total energy  :   -63.3822162 Eh     change       -0.5246631E-05 Eh
 * total energy  :   -63.3822248 Eh     change       -0.8590649E-05 Eh
 * total energy  :   -63.3822326 Eh     change       -0.7750497E-05 Eh
 * total energy  :   -63.3822395 Eh     change       -0.6980423E-05 Eh
 * total energy  :   -63.3822467 Eh     change       -0.7173249E-05 Eh
 * total energy  :   -63.3822539 Eh     change       -0.7207278E-05 Eh
 * total energy  :   -63.3822607 Eh     change       -0.6758646E-05 Eh
 * total energy  :   -63.3822651 Eh     change       -0.4387074E-05 Eh
   *** GEOMETRY OPTIMIZATION CONVERGED AFTER 51 ITERATIONS ***

 final structure:
================
43
 xtb: 6.7.1 (edcfbbe)
C            0.20840546460007        0.20817754551837        0.20840615226323
N            0.19338833410666       -1.04448323048913        0.91278651299397
C            0.58904471405855       -2.25861649571325        0.39264892848078
C            1.07484587657510       -2.61229868661296       -0.85890893446058
C            1.37410374797367       -3.94474244769531       -1.05911690747699
C            1.19900910880124       -4.89357011026080       -0.04976700979881
C            0.71945212395860       -4.54937487104968        1.19840148351206
C            0.41804946593435       -3.21088384758948        1.41281708602984
N           -0.06004560290828       -2.53453148512562        2.52155482515983
C           -0.19109668528763       -1.23671349671495        2.18777211509942
S           -0.68091291283447        0.09684605496907        3.18051190176353
C           -2.04703136008994       -0.56970991690987        4.12515717283065
C           -2.17922630398017       -0.16524086921559        5.44346753676829
C           -3.27244910557448       -0.60026906453601        6.17317023599195
C           -4.21258468599011       -1.43470857734644        5.59022608280734
C           -4.07182168300083       -1.82564413322688        4.26817654018444
C           -2.99209777495788       -1.38549213933750        3.52138087667210
C           -0.23527573195340       -3.11964286307192        3.83311926883255
C            0.54082126830825       -2.38751858963777        4.90401403420564
C            1.80238000087875       -1.86965975714553        4.64011526723343
C            2.50869418019536       -1.21613382758518        5.63439998823300
C            1.96580128979990       -1.08669467753978        6.90155790308174
C            0.71652201385841       -1.61799494313539        7.17366560382135
C            0.00412092192594       -2.26358408545766        6.17821628781674
H            1.21301468512221        0.63489522891500        0.20608709553026
H           -0.46867727568442        0.90822622688246        0.69578225572821
H           -0.11191307609523        0.04706478761714       -0.82001126465985
H            1.21426256140272       -1.88178183216600       -1.63827953364935
H            1.75354539429395       -4.26273774795912       -2.01678671123376
H            1.44654768669835       -5.92349439060433       -0.25086323660291
H            0.59043905129633       -5.29616876233863        1.96454438850421
H           -1.43918245801708        0.48246817292383        5.88621432956331
H           -3.38643025962046       -0.28531161166819        7.19828690986381
H           -5.06144470048616       -1.77436159042424        6.16232549919740
H           -4.80849099487609       -2.46576802436577        3.80805436998215
H           -2.89581721210279       -1.66741817765886        2.48256153706355
H           -1.29958828900842       -3.14421234309179        4.09104631325830
H            0.12043817478879       -4.15109903766474        3.76850400257169
H            2.24187046832601       -1.97952266256804        3.65785775374308
H            3.48658591828152       -0.81433649958353        5.41923231925662
H            2.51853968082128       -0.57905171307305        7.67627780936737
H            0.29307372316443       -1.52994385704016        8.16202658299079
H           -0.96923974270719       -2.68007165121136        6.39266662750952

          :  Hamiltonian                  GFN2-xTB          :
         :: total energy             -63.382265061684 Eh    ::
         :: gradient norm              0.000335702713 Eh/a0 ::
         :: HOMO-LUMO gap              2.679467988125 eV    ::
         :: SCC energy               -64.486141213368 Eh    ::
         :: -> dispersion             -0.056169837858 Eh    ::
         :: repulsion energy           1.103876151684 Eh    ::

    * Orbital Energies and Occupations

         #    Occupation            Energy/Eh            Energy/eV
      -------------------------------------------------------------
         1        2.0000           -0.8743048             -23.7910
       ...           ...                  ...                  ...
        47        2.0000           -0.5727492             -15.5853
        48        2.0000           -0.5650646             -15.3762
        49        2.0000           -0.5569948             -15.1566
        50        2.0000           -0.5473196             -14.8933
        51        2.0000           -0.5458022             -14.8520
        52        2.0000           -0.5383674             -14.6497
        53        2.0000           -0.5374180             -14.6239
        54        2.0000           -0.5314805             -14.4623
        55        2.0000           -0.5303652             -14.4320
        56        2.0000           -0.5289362             -14.3931
        57        2.0000           -0.5137272             -13.9792
        58        2.0000           -0.5096807             -13.8691
        59        2.0000           -0.5070676             -13.7980 (HOMO)
        60                         -0.4085989             -11.1185 (LUMO)
        61                         -0.3636548              -9.8956
        62                         -0.3545801              -9.6486
        63                         -0.3516766              -9.5696
        64                         -0.3486281              -9.4867
        65                         -0.3342076              -9.0943
        66                         -0.3306185              -8.9966
        67                         -0.3212687              -8.7422
        68                         -0.2835940              -7.7170
        69                         -0.2287781              -6.2254
        70                         -0.2241983              -6.1007
       ...                                ...                  ...
       120                          0.5559942              15.1294
      -------------------------------------------------------------
                  HL-Gap            0.0984686 Eh            2.6795 eV

     #   Z          covCN         q      C6AA      α(0)
     1   6 C        3.691    -0.072    22.069     6.723
     2   7 N        2.857     0.007    21.138     6.828
     3   6 C        3.093     0.040    26.996     8.516
     4   6 C        2.909    -0.035    28.872     8.811
     5   6 C        2.926    -0.020    28.496     8.754
     6   6 C        2.925    -0.020    28.500     8.755
     7   6 C        2.909    -0.035    28.862     8.809
     8   6 C        3.097     0.041    26.969     8.511
     9   7 N        2.830    -0.004    21.329     6.859
    10   6 C        3.070     0.135    24.989     8.197
    11  16 S        2.078    -0.045   142.927    20.122
    12   6 C        2.971     0.041    27.073     8.535
    13   6 C        2.964    -0.027    28.665     8.782
    14   6 C        2.922    -0.018    28.465     8.749
    15   6 C        2.919    -0.020    28.508     8.756
    16   6 C        2.922    -0.023    28.577     8.766
    17   6 C        2.948    -0.036    28.887     8.815
    18   6 C        3.745    -0.013    20.869     6.517
    19   6 C        2.971    -0.002    28.067     8.690
    20   6 C        2.923    -0.035    28.870     8.811
    21   6 C        2.920    -0.023    28.579     8.767
    22   6 C        2.920    -0.022    28.559     8.764
    23   6 C        2.920    -0.022    28.564     8.764
    24   6 C        2.923    -0.035    28.875     8.812
    25   1 H        0.924     0.094     1.840     2.121
    26   1 H        0.925     0.097     1.814     2.106
    27   1 H        0.925     0.096     1.820     2.110
    28   1 H        0.926     0.070     2.080     2.255
    29   1 H        0.926     0.078     2.003     2.213
    30   1 H        0.926     0.077     2.008     2.216
    31   1 H        0.926     0.066     2.132     2.283
    32   1 H        0.926     0.059     2.208     2.323
    33   1 H        0.926     0.065     2.136     2.285
    34   1 H        0.926     0.065     2.138     2.287
    35   1 H        0.926     0.061     2.192     2.315
    36   1 H        0.926     0.037     2.483     2.464
    37   1 H        0.924     0.071     2.072     2.251
    38   1 H        0.924     0.085     1.930     2.173
    39   1 H        0.925     0.024     2.671     2.556
    40   1 H        0.926     0.051     2.302     2.373
    41   1 H        0.926     0.056     2.243     2.342
    42   1 H        0.926     0.053     2.282     2.362
    43   1 H        0.926     0.034     2.525     2.485

Wiberg/Mayer (AO) data.
largest (>0.10) Wiberg bond orders for each atom

     #   Z sym  total        # sym  WBO       # sym  WBO       # sym  WBO
 ---------------------------------------------------------------------------
     1   6 C    3.939 --     2 N    0.992    27 H    0.970    26 H    0.967
                            25 H    0.962
     2   7 N    3.648 --    10 C    1.295     3 C    1.120     1 C    0.992
     3   6 C    3.951 --     4 C    1.343     8 C    1.272     2 N    1.120
     4   6 C    3.984 --     5 C    1.486     3 C    1.343    28 H    0.963
                             7 C    0.116
     5   6 C    3.979 --     4 C    1.486     6 C    1.385    29 H    0.966
     6   6 C    3.978 --     7 C    1.484     5 C    1.385    30 H    0.966
     7   6 C    3.985 --     6 C    1.484     8 C    1.346    31 H    0.961
                             4 C    0.116
     8   6 C    3.952 --     7 C    1.346     3 C    1.272     9 N    1.114
     9   7 N    3.639 --    10 C    1.291     8 C    1.114    18 C    0.969
    10   6 C    3.955 --     2 N    1.295     9 N    1.291    11 S    1.123
    11  16 S    2.405 --    10 C    1.123    12 C    0.965
    12   6 C    3.940 --    13 C    1.405    17 C    1.399    11 S    0.965
                            15 C    0.102
    13   6 C    3.988 --    14 C    1.437    12 C    1.405    32 H    0.966
                            16 C    0.108
    14   6 C    3.988 --    15 C    1.438    13 C    1.437    33 H    0.966
                            17 C    0.109
    15   6 C    3.986 --    14 C    1.438    16 C    1.435    34 H    0.968
                            12 C    0.102
    16   6 C    3.989 --    17 C    1.438    15 C    1.435    35 H    0.966
                            13 C    0.108
    17   6 C    3.989 --    16 C    1.438    12 C    1.399    36 H    0.968
                            14 C    0.109
    18   6 C    3.943 --    19 C    0.987     9 N    0.969    38 H    0.950
                            37 H    0.949
    19   6 C    3.980 --    20 C    1.415    24 C    1.413    18 C    0.987
                            22 C    0.109
    20   6 C    3.992 --    21 C    1.443    19 C    1.415    39 H    0.970
                            23 C    0.111
    21   6 C    3.991 --    20 C    1.443    22 C    1.438    40 H    0.970
                            24 C    0.111
    22   6 C    3.990 --    23 C    1.440    21 C    1.438    41 H    0.969
                            19 C    0.109
    23   6 C    3.990 --    24 C    1.442    22 C    1.440    42 H    0.969
                            20 C    0.111
    24   6 C    3.990 --    23 C    1.442    19 C    1.413    43 H    0.968
                            21 C    0.111
    25   1 H    0.990 --     1 C    0.962
    26   1 H    0.990 --     1 C    0.967
    27   1 H    0.990 --     1 C    0.970
    28   1 H    0.994 --     4 C    0.963
    29   1 H    0.993 --     5 C    0.966
    30   1 H    0.993 --     6 C    0.966
    31   1 H    0.995 --     7 C    0.961
    32   1 H    0.996 --    13 C    0.966
    33   1 H    0.995 --    14 C    0.966
    34   1 H    0.995 --    15 C    0.968
    35   1 H    0.996 --    16 C    0.966
    36   1 H    0.999 --    17 C    0.968
    37   1 H    0.994 --    18 C    0.949
    38   1 H    0.992 --    18 C    0.950
    39   1 H    0.999 --    20 C    0.970
    40   1 H    0.997 --    21 C    0.970
    41   1 H    0.996 --    22 C    0.969
    42   1 H    0.997 --    23 C    0.969
    43   1 H    0.999 --    24 C    0.968
 ---------------------------------------------------------------------------

molecular dipole:
                 x           y           z       tot (Debye)
 q only:       -0.516      -3.592       4.477
   full:       -0.654      -3.703       4.560      15.024

           -------------------------------------------------
          | TOTAL ENERGY              -63.382265061684 Eh   |
          | GRADIENT NORM               0.000335702713 Eh/α |
          | HOMO-LUMO GAP               2.679467988125 eV   |
           -------------------------------------------------

 * finished run on 2024/12/20 at 06:44:58.978
