   * xtb version 6.7.1 (edcfbbe) compiled by 'conda@3ef47c1a292c' on 2024-11-25

   ID    Z sym.   atoms
    1    8 O      1
    2    6 C      2-9, 11, 13-15, 18-21
    3   16 S      10
    4    7 N      12, 16, 17
    5    1 H      22-37

          program call               : xtb C0442.xyz --opt --namespace C0442 --charge +1
          :  Hamiltonian                  GFN2-xTB          :
 * total energy  :   -58.0716332 Eh     change       -0.3443006E-09 Eh
 * total energy  :   -58.0804778 Eh     change       -0.8844632E-02 Eh
 * total energy  :   -58.0825780 Eh     change       -0.2100175E-02 Eh
 * total energy  :   -58.0830741 Eh     change       -0.4961531E-03 Eh
 * total energy  :   -58.0837374 Eh     change       -0.6632346E-03 Eh
 * total energy  :   -58.0840991 Eh     change       -0.3617350E-03 Eh
 * total energy  :   -58.0845633 Eh     change       -0.4642025E-03 Eh
 * total energy  :   -58.0849245 Eh     change       -0.3611961E-03 Eh
 * total energy  :   -58.0851638 Eh     change       -0.2392818E-03 Eh
 * total energy  :   -58.0853533 Eh     change       -0.1894920E-03 Eh
 * total energy  :   -58.0873216 Eh     change       -0.3443396E-04 Eh
 * total energy  :   -58.0873402 Eh     change       -0.1866783E-04 Eh
 * total energy  :   -58.0873620 Eh     change       -0.2179617E-04 Eh
 * total energy  :   -58.0873716 Eh     change       -0.9579640E-05 Eh
 * total energy  :   -58.0873925 Eh     change       -0.2093304E-04 Eh
 * total energy  :   -58.0874040 Eh     change       -0.1147135E-04 Eh
 * total energy  :   -58.0874113 Eh     change       -0.7315143E-05 Eh
 * total energy  :   -58.0874207 Eh     change       -0.9345963E-05 Eh
 * total energy  :   -58.0874254 Eh     change       -0.4759168E-05 Eh
   *** GEOMETRY OPTIMIZATION CONVERGED AFTER 29 ITERATIONS ***

 final structure:
================
37
 xtb: 6.7.1 (edcfbbe)
O            2.40729268466913        0.81008149106319        1.93145535656358
C            3.04662414412563        0.54292964696703        0.93303601545437
C            3.34790086233990        1.52168731716638       -0.11246724915818
C            4.09344760570691        1.22843464842028       -1.26006594243881
C            4.33096205527299        2.21497913912631       -2.19632994758653
C            3.83369869021191        3.49738507609147       -2.00897999805062
C            3.09171504890871        3.79779753127483       -0.87650864620358
C            2.84984910887459        2.81927124656187        0.06507988409489
C            3.61093617944738       -0.85835464122566        0.73970218350658
S            3.07242932750354       -2.01365054778308        2.05737859036207
C            3.01691102417527       -0.97656558294124        3.46142205278510
N            1.96828061751805       -0.93536049529927        4.29555886785565
C            0.69407407059750       -1.55994164409277        4.05703771605076
C            2.28854903994032       -0.10483832970079        5.34873326800632
C            3.61467313334322        0.31688008008114        5.15120328504141
N            4.04343166851883       -0.27284756010948        3.97757739573873
N            5.32515013360145       -0.15701650592558        3.49492500216217
C            4.25945324156955        1.16560943592045        6.03841360616537
C            3.53194511157243        1.58033571844438        7.13542323842701
C            2.21183402684829        1.16897800011998        7.33649838524659
C            1.56719855053240        0.32298613514893        6.45632857772437
H            4.48660691584801        0.23865280208618       -1.43125204349792
H            4.90563209210735        1.98445789443571       -3.07981450205916
H            4.02434279265026        4.26011471575994       -2.74763264674070
H            2.70208287040548        4.79300478299455       -0.73038000323428
H            2.27197088545307        3.03302475854933        0.95173779093816
H            3.21494459739594       -1.30253716670752       -0.17414432698128
H            4.69975008843874       -0.83810837784594        0.67370749007746
H            0.83560361010929       -2.57766769520923        3.69605705441442
H            0.13139993214784       -1.58636352249854        4.98612201996652
H            0.13397708926832       -0.99117568236828        3.31210471398441
H            5.58243276291453       -0.95414676497884        2.92268733760772
H            5.48807549773464        0.72300779319134        3.01403198398517
H            5.27960070564097        1.47058301596631        5.87662840263990
H            3.99082174297531        2.23814454098298        7.85599828562072
H            1.68157897442426        1.52433491323100        8.20549801499193
H            0.54702311721261        0.01994383310485        6.62355878654166

          :  Hamiltonian                  GFN2-xTB          :
         :: total energy             -58.087425437088 Eh    ::
         :: gradient norm              0.000800279933 Eh/a0 ::
         :: HOMO-LUMO gap              2.693712896438 eV    ::
         :: SCC energy               -58.975676386694 Eh    ::
         :: -> dispersion             -0.041882913995 Eh    ::
         :: repulsion energy           0.888250949606 Eh    ::

    * Orbital Energies and Occupations

         #    Occupation            Energy/Eh            Energy/eV
      -------------------------------------------------------------
         1        2.0000           -0.8745098             -23.7966
       ...           ...                  ...                  ...
        41        2.0000           -0.5947315             -16.1835
        42        2.0000           -0.5888614             -16.0237
        43        2.0000           -0.5671202             -15.4321
        44        2.0000           -0.5593989             -15.2220
        45        2.0000           -0.5580741             -15.1860
        46        2.0000           -0.5511858             -14.9985
        47        2.0000           -0.5439864             -14.8026
        48        2.0000           -0.5386262             -14.6568
        49        2.0000           -0.5326843             -14.4951
        50        2.0000           -0.5306852             -14.4407
        51        2.0000           -0.5266477             -14.3308
        52        2.0000           -0.5223964             -14.2151
        53        2.0000           -0.5124120             -13.9434 (HOMO)
        54                         -0.4134199             -11.2497 (LUMO)
        55                         -0.4039970             -10.9933
        56                         -0.3504120              -9.5352
        57                         -0.3476725              -9.4606
        58                         -0.3430811              -9.3357
        59                         -0.3315748              -9.0226
        60                         -0.3160409              -8.5999
        61                         -0.2950016              -8.0274
        62                         -0.2218679              -6.0373
        63                         -0.2062114              -5.6113
        64                         -0.1928554              -5.2479
       ...                                ...                  ...
       105                          0.5570716              15.1587
      -------------------------------------------------------------
                  HL-Gap            0.0989921 Eh            2.6937 eV

     #   Z          covCN         q      C6AA      α(0)
     1   8 O        0.858    -0.376    21.214     6.175
     2   6 C        2.846     0.231    23.170     7.889
     3   6 C        2.971    -0.020    28.513     8.759
     4   6 C        2.918    -0.026    28.661     8.779
     5   6 C        2.917    -0.019    28.475     8.750
     6   6 C        2.920    -0.006    28.181     8.705
     7   6 C        2.916    -0.018    28.468     8.749
     8   6 C        2.927    -0.011    28.285     8.722
     9   6 C        3.795    -0.048    21.433     6.593
    10  16 S        2.010    -0.067   143.843    20.186
    11   6 C        3.071     0.134    25.003     8.199
    12   7 N        2.847     0.021    20.888     6.788
    13   6 C        3.691    -0.070    22.034     6.717
    14   6 C        3.101     0.044    26.894     8.498
    15   6 C        3.096     0.036    27.069     8.527
    16   7 N        2.910     0.082    19.811     6.611
    17   7 N        2.706    -0.239    26.241     7.608
    18   6 C        2.908    -0.031    28.765     8.794
    19   6 C        2.927    -0.019    28.492     8.754
    20   6 C        2.925    -0.019    28.490     8.753
    21   6 C        2.910    -0.033    28.812     8.802
    22   1 H        0.926     0.045     2.388     2.417
    23   1 H        0.926     0.063     2.166     2.301
    24   1 H        0.926     0.068     2.108     2.271
    25   1 H        0.926     0.065     2.144     2.290
    26   1 H        0.926     0.069     2.095     2.263
    27   1 H        0.925     0.101     1.772     2.082
    28   1 H        0.924     0.078     2.001     2.212
    29   1 H        0.925     0.094     1.844     2.124
    30   1 H        0.925     0.097     1.813     2.106
    31   1 H        0.924     0.098     1.802     2.099
    32   1 H        0.860     0.189     1.164     1.690
    33   1 H        0.860     0.186     1.180     1.702
    34   1 H        0.926     0.077     2.012     2.218
    35   1 H        0.926     0.078     2.001     2.212
    36   1 H        0.926     0.078     2.001     2.212
    37   1 H        0.926     0.070     2.080     2.256

Wiberg/Mayer (AO) data.
largest (>0.10) Wiberg bond orders for each atom

     #   Z sym  total        # sym  WBO       # sym  WBO       # sym  WBO
 ---------------------------------------------------------------------------
     1   8 O    2.097 --     2 C    1.768
     2   6 C    3.929 --     1 O    1.768     3 C    1.071     9 C    0.975
     3   6 C    3.983 --     4 C    1.353     8 C    1.350     2 C    1.071
     4   6 C    3.990 --     5 C    1.472     3 C    1.353    22 H    0.966
                             7 C    0.102
     5   6 C    3.990 --     4 C    1.472     6 C    1.418    23 H    0.968
     6   6 C    3.985 --     7 C    1.426     5 C    1.418    24 H    0.968
     7   6 C    3.988 --     8 C    1.465     6 C    1.426    25 H    0.967
                             4 C    0.102
     8   6 C    3.986 --     7 C    1.465     3 C    1.350    26 H    0.965
     9   6 C    3.963 --     2 C    0.975    10 S    0.968    28 H    0.953
                            27 H    0.944
    10  16 S    2.259 --    11 C    1.072     9 C    0.968
    11   6 C    3.951 --    12 N    1.303    16 N    1.275    10 S    1.072
    12   7 N    3.655 --    11 C    1.303    14 C    1.123    13 C    0.988
    13   6 C    3.938 --    12 N    0.988    30 H    0.972    29 H    0.970
                            31 H    0.962
    14   6 C    3.952 --    21 C    1.340    15 C    1.269    12 N    1.123
    15   6 C    3.946 --    18 C    1.345    14 C    1.269    16 N    1.100
    16   7 N    3.653 --    11 C    1.275    15 C    1.100    17 N    1.043
    17   7 N    3.054 --    16 N    1.043    32 H    0.943    33 H    0.938
    18   6 C    3.983 --    19 C    1.486    15 C    1.345    34 H    0.963
                            21 C    0.117
    19   6 C    3.980 --    18 C    1.486    20 C    1.383    35 H    0.966
    20   6 C    3.980 --    21 C    1.488    19 C    1.383    36 H    0.966
    21   6 C    3.984 --    20 C    1.488    14 C    1.340    37 H    0.962
                            18 C    0.117
    22   1 H    0.998 --     4 C    0.966
    23   1 H    0.996 --     5 C    0.968
    24   1 H    0.995 --     6 C    0.968
    25   1 H    0.995 --     7 C    0.967
    26   1 H    0.995 --     8 C    0.965
    27   1 H    0.989 --     9 C    0.944
    28   1 H    0.994 --     9 C    0.953
    29   1 H    0.990 --    13 C    0.970
    30   1 H    0.990 --    13 C    0.972
    31   1 H    0.989 --    13 C    0.962
    32   1 H    0.964 --    17 N    0.943
    33   1 H    0.965 --    17 N    0.938
    34   1 H    0.993 --    18 C    0.963
    35   1 H    0.993 --    19 C    0.966
    36   1 H    0.993 --    20 C    0.966
    37   1 H    0.994 --    21 C    0.962
 ---------------------------------------------------------------------------

molecular dipole:
                 x           y           z       tot (Debye)
 q only:        6.268       0.505       5.617
   full:        6.315       0.550       4.938      20.424

           -------------------------------------------------
          | TOTAL ENERGY              -58.087425437088 Eh   |
          | GRADIENT NORM               0.000800279933 Eh/α |
          | HOMO-LUMO GAP               2.693712896438 eV   |
           -------------------------------------------------

 * finished run on 2024/12/20 at 06:44:53.558
