   * xtb version 6.7.1 (edcfbbe) compiled by 'conda@3ef47c1a292c' on 2024-11-25

   ID    Z sym.   atoms
    1    6 C      1-5, 7-16, 19, 20
    2    7 N      6
    3    8 O      17, 18
    4    1 H      21-48

          program call               : xtb C0440.xyz --opt --namespace C0440 --charge +1
          :  Hamiltonian                  GFN2-xTB          :
 * total energy  :   -61.3270571 Eh     change       -0.1037463E-08 Eh
 * total energy  :   -61.3397197 Eh     change       -0.1266265E-01 Eh
 * total energy  :   -61.3435143 Eh     change       -0.3794618E-02 Eh
 * total energy  :   -61.3444323 Eh     change       -0.9179852E-03 Eh
 * total energy  :   -61.3449615 Eh     change       -0.5291930E-03 Eh
 * total energy  :   -61.3453913 Eh     change       -0.4298048E-03 Eh
 * total energy  :   -61.3457646 Eh     change       -0.3732875E-03 Eh
 * total energy  :   -61.3461672 Eh     change       -0.4026003E-03 Eh
 * total energy  :   -61.3465721 Eh     change       -0.4048608E-03 Eh
 * total energy  :   -61.3469164 Eh     change       -0.3443575E-03 Eh
 * total energy  :   -61.3508004 Eh     change       -0.1554067E-04 Eh
 * total energy  :   -61.3508208 Eh     change       -0.2038155E-04 Eh
 * total energy  :   -61.3508464 Eh     change       -0.2554640E-04 Eh
 * total energy  :   -61.3508695 Eh     change       -0.2313740E-04 Eh
 * total energy  :   -61.3508848 Eh     change       -0.1526141E-04 Eh
 * total energy  :   -61.3508954 Eh     change       -0.1060172E-04 Eh
 * total energy  :   -61.3509039 Eh     change       -0.8539188E-05 Eh
 * total energy  :   -61.3509099 Eh     change       -0.5978244E-05 Eh
 * total energy  :   -61.3509132 Eh     change       -0.3352935E-05 Eh
   *** GEOMETRY OPTIMIZATION CONVERGED AFTER 58 ITERATIONS ***

 final structure:
================
48
 xtb: 6.7.1 (edcfbbe)
C            2.13481880895779        1.75936828845814       -0.58271882427342
C            1.08402839404685        1.00159069922882        0.22012504189361
C            0.96738986928841        1.49170637569462        1.66577996771919
C            0.35934471316006        2.89407803191649        1.79670347527270
C           -1.13721653318118        2.93460581317100        1.43879888675744
N           -2.04294889223083        3.15941620555342        2.62487484400763
C           -1.84889569538380        4.50947527271542        3.26054425411949
C           -2.00580282942219        5.67892633258554        2.32756967746665
C           -0.88617672405487        6.24291423877050        1.72467481654152
C           -1.02221299681107        7.31846483111905        0.86424358086609
C           -2.27641840674293        7.84252879647497        0.60113649105833
C           -3.39211826296090        7.30506372661778        1.22085320265776
C           -3.25800446055392        6.23405675359188        2.08545497029355
C           -3.46095462147498        2.99137989839549        2.23761523364784
C           -1.76880624179192        2.12929531715232        3.65084791125345
C           -1.45167022759338        3.86644069518588        0.23030166298264
O           -2.56867504318605        4.14248510301888       -0.11969998978817
O           -0.35902659661627        4.19965966551675       -0.41847632849383
C           -0.50778688678789        4.93876905970142       -1.64639524626623
C           -0.79036991483371        4.01090247926953       -2.81522606464247
H            1.85942020044327        2.80262465577937       -0.71357173911073
H            2.24203769848089        1.31291813483362       -1.56755892223544
H            3.09976862310045        1.71375851049615       -0.08398553925725
H            0.11918488555666        1.07618500463251       -0.28807522411456
H            1.35690109917763       -0.05472268335273        0.24392181589244
H            0.38264442149904        0.77125771587446        2.24253892752018
H            1.96849056924715        1.51643037799874        2.09915693117618
H            0.53250157663291        3.26208000683380        2.80684887249943
H            0.90458056638708        3.55929883316717        1.13077685404952
H           -1.41555585827206        1.94301034017915        1.05532958944533
H           -2.58023708753907        4.58409734227553        4.06841722722242
H           -0.85113337758932        4.53450551959158        3.70146422587461
H            0.09818302954807        5.85194882033797        1.93711713476220
H           -0.14606900851208        7.74942976590678        0.40483117063815
H           -2.38266424208319        8.67708506719538       -0.07398905351704
H           -4.36875680190808        7.72314864976795        1.03544620711131
H           -4.13278933728653        5.84147783850883        2.58214729352686
H           -3.61449559024532        1.99992758576685        1.81559018789943
H           -4.09292784587624        3.09918191316354        3.11675519999542
H           -3.74359845143091        3.72982609550549        1.49136736213083
H           -1.92965681984009        1.13710563157457        3.23331813501488
H           -0.75018025348555        2.19155148622488        4.02293025797017
H           -2.44786556666393        2.26405401553597        4.49097794746370
H           -1.31492999650690        5.66551729949559       -1.52002749615853
H            0.44620696845990        5.45302748422773       -1.77037576208675
H           -1.74971716902214        3.51676825094013       -2.68380296701190
H           -0.82269912769628        4.59247582678966       -3.73117643658283
H           -0.00913055635720        3.26003292660925       -2.90307976323004

          :  Hamiltonian                  GFN2-xTB          :
         :: total energy             -61.350913241728 Eh    ::
         :: gradient norm              0.000560712595 Eh/a0 ::
         :: HOMO-LUMO gap              4.150000177635 eV    ::
         :: SCC energy               -62.225687411027 Eh    ::
         :: -> dispersion             -0.049560875152 Eh    ::
         :: repulsion energy           0.874774169299 Eh    ::

    * Orbital Energies and Occupations

         #    Occupation            Energy/Eh            Energy/eV
      -------------------------------------------------------------
         1        2.0000           -0.8792541             -23.9257
       ...           ...                  ...                  ...
        44        2.0000           -0.5810821             -15.8120
        45        2.0000           -0.5752642             -15.6537
        46        2.0000           -0.5702170             -15.5164
        47        2.0000           -0.5658602             -15.3978
        48        2.0000           -0.5552901             -15.1102
        49        2.0000           -0.5474908             -14.8980
        50        2.0000           -0.5450599             -14.8318
        51        2.0000           -0.5436777             -14.7942
        52        2.0000           -0.5391851             -14.6720
        53        2.0000           -0.5379694             -14.6389
        54        2.0000           -0.5318055             -14.4712
        55        2.0000           -0.5232989             -14.2397
        56        2.0000           -0.5227397             -14.2245 (HOMO)
        57                         -0.3702300             -10.0745 (LUMO)
        58                         -0.3506782              -9.5424
        59                         -0.3391570              -9.2289
        60                         -0.2353935              -6.4054
        61                         -0.2133192              -5.8047
        62                         -0.1665079              -4.5309
        63                         -0.1532326              -4.1697
        64                         -0.1385375              -3.7698
        65                         -0.1174780              -3.1967
        66                         -0.0833044              -2.2668
        67                         -0.0553543              -1.5063
       ...                                ...                  ...
       108                          0.5452193              14.8362
      -------------------------------------------------------------
                  HL-Gap            0.1525097 Eh            4.1500 eV

     #   Z          covCN         q      C6AA      α(0)
     1   6 C        3.752    -0.112    22.705     6.795
     2   6 C        3.800    -0.058    21.621     6.621
     3   6 C        3.801    -0.069    21.823     6.651
     4   6 C        3.800    -0.080    22.022     6.681
     5   6 C        3.794    -0.016    20.873     6.506
     6   7 N        3.618     0.124    19.122     6.495
     7   6 C        3.762    -0.036    21.265     6.573
     8   6 C        2.968    -0.005    28.151     8.703
     9   6 C        2.923    -0.038    28.948     8.823
    10   6 C        2.919    -0.024    28.611     8.771
    11   6 C        2.920    -0.019    28.475     8.751
    12   6 C        2.919    -0.018    28.451     8.747
    13   6 C        2.923    -0.032    28.799     8.800
    14   6 C        3.722    -0.100    22.521     6.777
    15   6 C        3.729    -0.092    22.354     6.750
    16   6 C        2.711     0.359    20.903     7.484
    17   8 O        0.856    -0.407    21.825     6.264
    18   8 O        1.702    -0.238    17.940     5.719
    19   6 C        3.699     0.073    19.524     6.319
    20   6 C        3.751    -0.121    22.886     6.823
    21   1 H        0.925     0.039     2.456     2.451
    22   1 H        0.925     0.047     2.354     2.400
    23   1 H        0.925     0.046     2.369     2.407
    24   1 H        0.924     0.025     2.658     2.550
    25   1 H        0.924     0.049     2.332     2.388
    26   1 H        0.924     0.033     2.545     2.495
    27   1 H        0.924     0.060     2.199     2.319
    28   1 H        0.925     0.050     2.317     2.381
    29   1 H        0.925     0.092     1.860     2.133
    30   1 H        0.923     0.099     1.794     2.095
    31   1 H        0.924     0.084     1.939     2.177
    32   1 H        0.924     0.081     1.969     2.194
    33   1 H        0.926     0.038     2.471     2.458
    34   1 H        0.926     0.053     2.281     2.362
    35   1 H        0.926     0.060     2.201     2.320
    36   1 H        0.926     0.061     2.190     2.314
    37   1 H        0.926     0.045     2.386     2.415
    38   1 H        0.925     0.090     1.877     2.142
    39   1 H        0.925     0.090     1.881     2.145
    40   1 H        0.925     0.132     1.517     1.926
    41   1 H        0.925     0.095     1.829     2.115
    42   1 H        0.925     0.099     1.792     2.094
    43   1 H        0.925     0.096     1.823     2.111
    44   1 H        0.924     0.067     2.119     2.276
    45   1 H        0.924     0.075     2.030     2.228
    46   1 H        0.925     0.064     2.149     2.292
    47   1 H        0.925     0.072     2.069     2.249
    48   1 H        0.925     0.066     2.131     2.283

Wiberg/Mayer (AO) data.
largest (>0.10) Wiberg bond orders for each atom

     #   Z sym  total        # sym  WBO       # sym  WBO       # sym  WBO
 ---------------------------------------------------------------------------
     1   6 C    3.994 --     2 C    1.021    23 H    0.986    22 H    0.986
                            21 H    0.983
     2   6 C    3.996 --     1 C    1.021     3 C    1.008    25 H    0.976
                            24 H    0.975
     3   6 C    3.992 --     2 C    1.008     4 C    1.003    26 H    0.976
                            27 H    0.973
     4   6 C    3.978 --     3 C    1.003     5 C    0.992    28 H    0.962
                            29 H    0.955
     5   6 C    3.933 --     4 C    0.992    30 H    0.933    16 C    0.923
                             6 N    0.920
     6   7 N    3.806 --    15 C    0.959    14 C    0.953     5 C    0.920
                             7 C    0.912
     7   6 C    3.930 --     8 C    1.006    31 H    0.963    32 H    0.962
                             6 N    0.912
     8   6 C    3.979 --    13 C    1.408     9 C    1.404     7 C    1.006
                            11 C    0.108
     9   6 C    3.991 --    10 C    1.441     8 C    1.404    33 H    0.967
                            12 C    0.108
    10   6 C    3.991 --     9 C    1.441    11 C    1.440    34 H    0.969
                            13 C    0.109
    11   6 C    3.989 --    10 C    1.440    12 C    1.435    35 H    0.969
                             8 C    0.108
    12   6 C    3.989 --    13 C    1.446    11 C    1.435    36 H    0.968
                             9 C    0.108
    13   6 C    3.991 --    12 C    1.446     8 C    1.408    37 H    0.967
                            10 C    0.109
    14   6 C    3.914 --    38 H    0.975    39 H    0.975    40 H    0.954
                             6 N    0.953
    15   6 C    3.929 --    41 H    0.974    43 H    0.974    42 H    0.970
                             6 N    0.959
    16   6 C    3.932 --    17 O    1.729    18 O    1.197     5 C    0.923
    17   8 O    2.054 --    16 C    1.729    18 O    0.184
    18   8 O    2.359 --    16 C    1.197    19 C    0.905    17 O    0.184
    19   6 C    3.900 --    20 C    1.014    45 H    0.970    44 H    0.968
                            18 O    0.905
    20   6 C    3.985 --    19 C    1.014    46 H    0.984    48 H    0.984
                            47 H    0.978
    21   1 H    0.998 --     1 C    0.983
    22   1 H    0.998 --     1 C    0.986
    23   1 H    0.998 --     1 C    0.986
    24   1 H    0.999 --     2 C    0.975
    25   1 H    0.998 --     2 C    0.976
    26   1 H    0.999 --     3 C    0.976
    27   1 H    0.996 --     3 C    0.973
    28   1 H    0.997 --     4 C    0.962
    29   1 H    0.991 --     4 C    0.955
    30   1 H    0.990 --     5 C    0.933
    31   1 H    0.993 --     7 C    0.963
    32   1 H    0.993 --     7 C    0.962
    33   1 H    0.999 --     9 C    0.967
    34   1 H    0.997 --    10 C    0.969
    35   1 H    0.996 --    11 C    0.969
    36   1 H    0.996 --    12 C    0.968
    37   1 H    0.998 --    13 C    0.967
    38   1 H    0.992 --    14 C    0.975
    39   1 H    0.992 --    14 C    0.975
    40   1 H    0.982 --    14 C    0.954
    41   1 H    0.990 --    15 C    0.974
    42   1 H    0.990 --    15 C    0.970
    43   1 H    0.990 --    15 C    0.974
    44   1 H    0.995 --    19 C    0.968
    45   1 H    0.994 --    19 C    0.970
    46   1 H    0.996 --    20 C    0.984
    47   1 H    0.994 --    20 C    0.978
    48   1 H    0.996 --    20 C    0.984
 ---------------------------------------------------------------------------

molecular dipole:
                 x           y           z       tot (Debye)
 q only:       -2.669       6.654       3.678
   full:       -2.662       6.573       3.881      20.548

           -------------------------------------------------
          | TOTAL ENERGY              -61.350913241728 Eh   |
          | GRADIENT NORM               0.000560712595 Eh/α |
          | HOMO-LUMO GAP               4.150000177635 eV   |
           -------------------------------------------------

 * finished run on 2024/12/20 at 06:44:47.031
