   * xtb version 6.7.1 (edcfbbe) compiled by 'conda@3ef47c1a292c' on 2024-11-25

   ID    Z sym.   atoms
    1    7 N      1-3, 5, 7
    2    6 C      4, 6
    3    1 H      8-13

          program call               : xtb C0448.xyz --opt --namespace C0448 --charge +1
          :  Hamiltonian                  GFN2-xTB          :
 * total energy  :   -21.3922524 Eh     change       -0.3928946E-10 Eh
 * total energy  :   -21.4207094 Eh     change       -0.2845699E-01 Eh
 * total energy  :   -21.4346932 Eh     change       -0.1398377E-01 Eh
 * total energy  :   -21.4381431 Eh     change       -0.3449902E-02 Eh
 * total energy  :   -21.4398004 Eh     change       -0.1657274E-02 Eh
 * total energy  :   -21.4405031 Eh     change       -0.7026779E-03 Eh
 * total energy  :   -21.4408456 Eh     change       -0.3425136E-03 Eh
 * total energy  :   -21.4410123 Eh     change       -0.1667110E-03 Eh
 * total energy  :   -21.4411252 Eh     change       -0.1129122E-03 Eh
 * total energy  :   -21.4411846 Eh     change       -0.5942549E-04 Eh
 * total energy  :   -21.4412088 Eh     change       -0.2421982E-04 Eh
 * total energy  :   -21.4412270 Eh     change       -0.1813221E-04 Eh
 * total energy  :   -21.4412438 Eh     change       -0.1686412E-04 Eh
 * total energy  :   -21.4412501 Eh     change       -0.6283609E-05 Eh
 * total energy  :   -21.4412559 Eh     change       -0.5821176E-05 Eh
 * total energy  :   -21.4412580 Eh     change       -0.2060513E-05 Eh
   *** GEOMETRY OPTIMIZATION CONVERGED AFTER 16 ITERATIONS ***

 final structure:
================
13
 xtb: 6.7.1 (edcfbbe)
N            1.10295640238983       -0.02162273140523       -0.03412378210802
N            0.85248381413159        1.17848831495829       -0.70432031417201
N           -0.49227113178831        1.50030926518830       -1.02625879315773
C           -0.73034588634777        2.65339707194111       -0.52528969906895
N            0.30114888930807        3.24308568007625        0.16350232292974
C            1.28987046634411        2.44874106050839        0.13785480759078
N            2.49251273771586        2.48164165607906        0.64123165024047
H            0.52230467610056       -0.09129013590626        0.80045624332868
H            0.90885273129452       -0.82874977663035       -0.62305756896710
H            1.39157176732337        1.16675146909134       -1.58630315013288
H           -1.68309810337601        3.14052244804629       -0.62416203810983
H            3.11147282153674        1.68472003689615        0.59615425491907
H            2.77037081536747        3.28784564115659        1.18669606670778

          :  Hamiltonian                  GFN2-xTB          :
         :: total energy             -21.441257998236 Eh    ::
         :: gradient norm              0.000684041539 Eh/a0 ::
         :: HOMO-LUMO gap              3.471614782550 eV    ::
         :: SCC energy               -21.701343822077 Eh    ::
         :: -> dispersion             -0.007921084427 Eh    ::
         :: repulsion energy           0.260085823841 Eh    ::

    * Orbital Energies and Occupations

         #    Occupation            Energy/Eh            Energy/eV
      -------------------------------------------------------------
         1        2.0000           -0.9341672             -25.4200
       ...           ...                  ...                  ...
         7        2.0000           -0.8150270             -22.1780
         8        2.0000           -0.7877515             -21.4358
         9        2.0000           -0.7719260             -21.0052
        10        2.0000           -0.7537890             -20.5116
        11        2.0000           -0.7411756             -20.1684
        12        2.0000           -0.7328377             -19.9415
        13        2.0000           -0.7085379             -19.2803
        14        2.0000           -0.6834128             -18.5966
        15        2.0000           -0.6767916             -18.4164
        16        2.0000           -0.6325530             -17.2126
        17        2.0000           -0.6128119             -16.6755
        18        2.0000           -0.6066863             -16.5088
        19        2.0000           -0.5993964             -16.3104 (HOMO)
        20                         -0.4718169             -12.8388 (LUMO)
        21                         -0.3784793             -10.2989
        22                         -0.3140990              -8.5471
        23                         -0.2605413              -7.0897
        24                         -0.2038667              -5.5475
        25                         -0.1681318              -4.5751
        26                         -0.1513767              -4.1192
        27                         -0.0760392              -2.0691
        28                         -0.0344684              -0.9379
        29                          0.0024304               0.0661
        30                          0.0243268               0.6620
       ...                                ...                  ...
        34                          0.4178742              11.3709
      -------------------------------------------------------------
                  HL-Gap            0.1275795 Eh            3.4716 eV

     #   Z          covCN         q      C6AA      α(0)
     1   7 N        2.701    -0.274    27.081     7.729
     2   7 N        3.813     0.196    17.997     6.301
     3   7 N        1.927    -0.217    26.556     7.641
     4   6 C        3.078     0.158    24.512     8.117
     5   7 N        1.855    -0.209    26.386     7.613
     6   6 C        2.958     0.201    23.733     7.991
     7   7 N        2.635    -0.184    24.996     7.425
     8   1 H        0.860     0.214     1.037     1.595
     9   1 H        0.860     0.224     0.989     1.558
    10   1 H        0.859     0.232     0.959     1.534
    11   1 H        0.926     0.139     1.467     1.894
    12   1 H        0.860     0.251     0.880     1.470
    13   1 H        0.860     0.269     0.813     1.412

Wiberg/Mayer (AO) data.
largest (>0.10) Wiberg bond orders for each atom

     #   Z sym  total        # sym  WBO       # sym  WBO       # sym  WBO
 ---------------------------------------------------------------------------
     1   7 N    2.990 --     2 N    1.022     8 H    0.938     9 H    0.931
     2   7 N    3.814 --     1 N    1.022     3 N    0.982    10 H    0.896
                             6 C    0.765
     3   7 N    2.983 --     4 C    1.726     2 N    0.982
     4   6 C    3.937 --     3 N    1.726     5 N    1.161    11 H    0.943
     5   7 N    3.134 --     6 C    1.627     4 C    1.161     7 N    0.159
     6   6 C    3.959 --     5 N    1.627     7 N    1.405     2 N    0.765
     7   7 N    3.490 --     6 C    1.405    12 H    0.914    13 H    0.900
                             5 N    0.159
     8   1 H    0.954 --     1 N    0.938
     9   1 H    0.950 --     1 N    0.931
    10   1 H    0.946 --     2 N    0.896
    11   1 H    0.981 --     4 C    0.943
    12   1 H    0.937 --     7 N    0.914
    13   1 H    0.928 --     7 N    0.900
 ---------------------------------------------------------------------------

molecular dipole:
                 x           y           z       tot (Debye)
 q only:        2.880       2.829      -0.127
   full:        2.928       2.636      -0.241      10.032

           -------------------------------------------------
          | TOTAL ENERGY              -21.441257998236 Eh   |
          | GRADIENT NORM               0.000684041539 Eh/α |
          | HOMO-LUMO GAP               3.471614782550 eV   |
           -------------------------------------------------

 * finished run on 2024/12/20 at 06:45:00.565
