   * xtb version 6.7.1 (edcfbbe) compiled by 'conda@3ef47c1a292c' on 2024-11-25

   ID    Z sym.   atoms
    1    6 C      1-4, 6-11
    2   15 P      5
    3    1 H      12-35

          program call               : xtb C0444.xyz --opt --namespace C0444 --charge +1
          :  Hamiltonian                  GFN2-xTB          :
 * total energy  :   -35.7792770 Eh     change       -0.1211262E-09 Eh
 * total energy  :   -35.7840817 Eh     change       -0.4804668E-02 Eh
 * total energy  :   -35.7853721 Eh     change       -0.1290454E-02 Eh
 * total energy  :   -35.7855009 Eh     change       -0.1287616E-03 Eh
 * total energy  :   -35.7855463 Eh     change       -0.4538227E-04 Eh
 * total energy  :   -35.7855950 Eh     change       -0.4872710E-04 Eh
 * total energy  :   -35.7856277 Eh     change       -0.3267163E-04 Eh
 * total energy  :   -35.7856766 Eh     change       -0.4895430E-04 Eh
 * total energy  :   -35.7856973 Eh     change       -0.2066414E-04 Eh
 * total energy  :   -35.7857202 Eh     change       -0.2293803E-04 Eh
 * total energy  :   -35.7860459 Eh     change       -0.1346227E-04 Eh
 * total energy  :   -35.7860554 Eh     change       -0.9448004E-05 Eh
 * total energy  :   -35.7860710 Eh     change       -0.1567807E-04 Eh
 * total energy  :   -35.7860850 Eh     change       -0.1392946E-04 Eh
 * total energy  :   -35.7860971 Eh     change       -0.1213808E-04 Eh
 * total energy  :   -35.7861057 Eh     change       -0.8536677E-05 Eh
 * total energy  :   -35.7861126 Eh     change       -0.6976101E-05 Eh
 * total energy  :   -35.7861183 Eh     change       -0.5641664E-05 Eh
 * total energy  :   -35.7861213 Eh     change       -0.3033978E-05 Eh
   *** GEOMETRY OPTIMIZATION CONVERGED AFTER 40 ITERATIONS ***

 final structure:
================
35
 xtb: 6.7.1 (edcfbbe)
C            2.15949229856132       -0.24067421503273       -0.20775603184919
C            1.00366938232602       -1.04253308339823       -0.79654885487008
C            0.82357821743678       -2.40843555581687       -0.12915574494777
C            0.30867109269442       -2.32447859881947        1.31506826756572
P           -1.50074097814052       -2.48056532471089        1.46877365970684
C           -2.07196527038058       -4.07219793821206        0.77385133794250
C           -1.20533273444419       -5.25499913873514        1.19410629225567
C           -1.96810588291832       -2.45183325018904        3.23942308248389
C           -1.08072645733555       -1.57164657123251        4.11568983098997
C           -2.40991708695701       -1.17957196264030        0.56389375865704
C           -2.21244627223839        0.22005142293064        1.13676665753154
H            1.99248093203044        0.01341177449525        0.83716002397450
H            2.28365420765290        0.68782488577404       -0.75829226194262
H            3.08785143320375       -0.80225897652787       -0.27801749734177
H            0.08267132904792       -0.46071054095170       -0.72574060713838
H            1.20399986580053       -1.21046025114017       -1.85611715155483
H            0.14741084604912       -3.01818368742466       -0.73398865744177
H            1.79227193393347       -2.91086186532927       -0.12357948708962
H            0.72331667436634       -3.13283608303615        1.92560310371198
H            0.60939337144375       -1.38124719173504        1.77543730080706
H           -3.10194201686311       -4.20950162688274        1.11883344987970
H           -2.09838462146620       -3.98238583914006       -0.31563696038014
H           -1.11366243584670       -5.31955250233722        2.27644094470827
H           -1.65760937265223       -6.17932964612377        0.84372352990674
H           -0.20946691313488       -5.18709821437702        0.76345814067918
H           -3.00853748067746       -2.11543650780024        3.28401517983346
H           -1.93931133700090       -3.48354014600858        3.60103102819357
H           -1.04118812993119       -0.54802919576446        3.75250726183927
H           -1.48261354072607       -1.55213550825279        5.12579380046914
H           -0.06809488998175       -1.96299445503693        4.17007732487535
H           -2.08554684792634       -1.22195934540114       -0.47977918373808
H           -3.46813765773002       -1.45827180696400        0.59454026839549
H           -1.16051078647828        0.49600218609291        1.16329877943008
H           -2.73133134696437        0.94365907572132        0.51310712803311
H           -2.62098952474981        0.29515968400700        2.14140228642594

          :  Hamiltonian                  GFN2-xTB          :
         :: total energy             -35.786121303852 Eh    ::
         :: gradient norm              0.000691432666 Eh/a0 ::
         :: HOMO-LUMO gap              6.922236298365 eV    ::
         :: SCC energy               -36.317490887873 Eh    ::
         :: -> dispersion             -0.027761692009 Eh    ::
         :: repulsion energy           0.531369584021 Eh    ::

    * Orbital Energies and Occupations

         #    Occupation            Energy/Eh            Energy/eV
      -------------------------------------------------------------
         1        2.0000           -0.8528319             -23.2067
       ...           ...                  ...                  ...
        22        2.0000           -0.6164344             -16.7740
        23        2.0000           -0.6148680             -16.7314
        24        2.0000           -0.6029574             -16.4073
        25        2.0000           -0.5989071             -16.2971
        26        2.0000           -0.5930279             -16.1371
        27        2.0000           -0.5913496             -16.0914
        28        2.0000           -0.5898576             -16.0508
        29        2.0000           -0.5818761             -15.8337
        30        2.0000           -0.5780541             -15.7297
        31        2.0000           -0.5746826             -15.6379
        32        2.0000           -0.5589301             -15.2093
        33        2.0000           -0.5526527             -15.0384
        34        2.0000           -0.5456520             -14.8479 (HOMO)
        35                         -0.2912645              -7.9257 (LUMO)
        36                         -0.2815075              -7.6602
        37                         -0.2753725              -7.4933
        38                         -0.1950335              -5.3071
        39                         -0.1252121              -3.4072
        40                         -0.0790383              -2.1507
        41                         -0.0469606              -1.2779
        42                         -0.0386350              -1.0513
        43                         -0.0354039              -0.9634
        44                         -0.0274371              -0.7466
        45                         -0.0254006              -0.6912
       ...                                ...                  ...
        73                          0.7501398              20.4123
      -------------------------------------------------------------
                  HL-Gap            0.2543875 Eh            6.9222 eV

     #   Z          covCN         q      C6AA      α(0)
     1   6 C        3.751    -0.112    22.706     6.795
     2   6 C        3.800    -0.061    21.683     6.630
     3   6 C        3.858    -0.064    21.694     6.624
     4   6 C        3.750    -0.071    21.925     6.678
     5  15 P        3.972     0.179   152.535    22.186
     6   6 C        3.749    -0.073    21.955     6.683
     7   6 C        3.818    -0.117    22.719     6.784
     8   6 C        3.749    -0.070    21.910     6.676
     9   6 C        3.804    -0.118    22.756     6.791
    10   6 C        3.749    -0.069    21.885     6.672
    11   6 C        3.813    -0.115    22.681     6.779
    12   1 H        0.925     0.032     2.552     2.498
    13   1 H        0.925     0.054     2.266     2.354
    14   1 H        0.925     0.050     2.322     2.383
    15   1 H        0.924     0.037     2.487     2.466
    16   1 H        0.924     0.054     2.267     2.354
    17   1 H        0.924     0.049     2.339     2.391
    18   1 H        0.924     0.068     2.112     2.273
    19   1 H        0.928     0.093     1.846     2.124
    20   1 H        0.927     0.103     1.761     2.075
    21   1 H        0.927     0.090     1.880     2.144
    22   1 H        0.926     0.089     1.893     2.151
    23   1 H        0.925     0.060     2.200     2.320
    24   1 H        0.925     0.078     1.999     2.211
    25   1 H        0.925     0.066     2.131     2.283
    26   1 H        0.927     0.091     1.871     2.139
    27   1 H        0.926     0.091     1.873     2.140
    28   1 H        0.925     0.063     2.159     2.298
    29   1 H        0.925     0.077     2.010     2.217
    30   1 H        0.925     0.063     2.168     2.303
    31   1 H        0.927     0.093     1.847     2.125
    32   1 H        0.927     0.089     1.886     2.148
    33   1 H        0.925     0.063     2.162     2.299
    34   1 H        0.925     0.076     2.021     2.223
    35   1 H        0.925     0.063     2.160     2.298

Wiberg/Mayer (AO) data.
largest (>0.10) Wiberg bond orders for each atom

     #   Z sym  total        # sym  WBO       # sym  WBO       # sym  WBO
 ---------------------------------------------------------------------------
     1   6 C    3.993 --     2 C    1.021    14 H    0.986    13 H    0.985
                            12 H    0.983
     2   6 C    3.994 --     1 C    1.021     3 C    1.007    16 H    0.975
                            15 H    0.970
     3   6 C    3.987 --     2 C    1.007     4 C    0.982    18 H    0.971
                            17 H    0.964
     4   6 C    3.985 --     5 P    1.015     3 C    0.982    19 H    0.928
                            20 H    0.926
     5  15 P    4.573 --     4 C    1.015     6 C    1.010    10 C    1.008
                             8 C    1.006
     6   6 C    3.990 --     5 P    1.010     7 C    1.003    22 H    0.937
                            21 H    0.934
     7   6 C    3.983 --     6 C    1.003    25 H    0.980    24 H    0.977
                            23 H    0.977
     8   6 C    3.989 --     5 P    1.006     9 C    1.002    27 H    0.936
                            26 H    0.935
     9   6 C    3.985 --     8 C    1.002    30 H    0.981    28 H    0.978
                            29 H    0.978
    10   6 C    3.989 --     5 P    1.008    11 C    1.002    32 H    0.934
                            31 H    0.932
    11   6 C    3.984 --    10 C    1.002    35 H    0.979    34 H    0.978
                            33 H    0.977
    12   1 H    0.999 --     1 C    0.983
    13   1 H    0.997 --     1 C    0.985
    14   1 H    0.997 --     1 C    0.986
    15   1 H    0.999 --     2 C    0.970
    16   1 H    0.997 --     2 C    0.975
    17   1 H    0.998 --     3 C    0.964
    18   1 H    0.995 --     3 C    0.971
    19   1 H    0.991 --     4 C    0.928
    20   1 H    0.989 --     4 C    0.926
    21   1 H    0.992 --     6 C    0.934
    22   1 H    0.992 --     6 C    0.937
    23   1 H    0.996 --     7 C    0.977
    24   1 H    0.993 --     7 C    0.977
    25   1 H    0.996 --     7 C    0.980
    26   1 H    0.992 --     8 C    0.935
    27   1 H    0.992 --     8 C    0.936
    28   1 H    0.996 --     9 C    0.978
    29   1 H    0.994 --     9 C    0.978
    30   1 H    0.996 --     9 C    0.981
    31   1 H    0.991 --    10 C    0.932
    32   1 H    0.992 --    10 C    0.934
    33   1 H    0.996 --    11 C    0.977
    34   1 H    0.994 --    11 C    0.978
    35   1 H    0.996 --    11 C    0.979
 ---------------------------------------------------------------------------

molecular dipole:
                 x           y           z       tot (Debye)
 q only:       -2.379      -4.443       2.708
   full:       -2.509      -4.526       2.710      14.847

           -------------------------------------------------
          | TOTAL ENERGY              -35.786121303852 Eh   |
          | GRADIENT NORM               0.000691432666 Eh/α |
          | HOMO-LUMO GAP               6.922236298365 eV   |
           -------------------------------------------------

 * finished run on 2024/12/20 at 06:44:55.468
