   * xtb version 6.7.1 (edcfbbe) compiled by 'conda@3ef47c1a292c' on 2024-11-25

   ID    Z sym.   atoms
    1    6 C      1-8, 10-21
    2   15 P      9
    3    1 H      22-65

          program call               : xtb C0441.xyz --opt --namespace C0441 --charge +1
          :  Hamiltonian                  GFN2-xTB          :
 * total energy  :   -67.4141617 Eh     change       -0.2402629E-09 Eh
 * total energy  :   -67.4199065 Eh     change       -0.5744889E-02 Eh
 * total energy  :   -67.4215069 Eh     change       -0.1600328E-02 Eh
 * total energy  :   -67.4217780 Eh     change       -0.2711157E-03 Eh
 * total energy  :   -67.4219759 Eh     change       -0.1979233E-03 Eh
 * total energy  :   -67.4221619 Eh     change       -0.1859920E-03 Eh
 * total energy  :   -67.4224265 Eh     change       -0.2645875E-03 Eh
 * total energy  :   -67.4227859 Eh     change       -0.3594253E-03 Eh
 * total energy  :   -67.4231607 Eh     change       -0.3748136E-03 Eh
 * total energy  :   -67.4235033 Eh     change       -0.3425384E-03 Eh
 * total energy  :   -67.4274070 Eh     change       -0.1251493E-04 Eh
 * total energy  :   -67.4274184 Eh     change       -0.1135180E-04 Eh
 * total energy  :   -67.4274284 Eh     change       -0.1005663E-04 Eh
 * total energy  :   -67.4274377 Eh     change       -0.9237408E-05 Eh
 * total energy  :   -67.4274465 Eh     change       -0.8817547E-05 Eh
 * total energy  :   -67.4274553 Eh     change       -0.8871966E-05 Eh
 * total energy  :   -67.4274643 Eh     change       -0.8955516E-05 Eh
 * total energy  :   -67.4274733 Eh     change       -0.8962039E-05 Eh
 * total energy  :   -67.4274763 Eh     change       -0.3011047E-05 Eh
   *** GEOMETRY OPTIMIZATION CONVERGED AFTER 94 ITERATIONS ***

 final structure:
================
65
 xtb: 6.7.1 (edcfbbe)
C            2.89290886459621       -1.00611896606218       -0.24602496136694
C            2.10558000683947       -2.21598144597583       -0.73457520131160
C            2.06212094839568       -3.35955248698227        0.28067711153648
C            1.41040568689924       -3.00921166708406        1.62052514898336
C           -0.01725039033108       -2.46729451617684        1.52446924470913
C           -1.01718021899135       -3.39957241591329        0.83726520332673
C           -1.28398471582414       -4.71356490920888        1.57298719599970
C           -1.99951076817397       -4.55095726966192        2.92263971786648
P           -3.82275829915610       -4.70003438499281        2.84632215734643
C           -4.24151874327304       -6.30031974707508        2.05365696321717
C           -3.36428988446494       -7.50279603338306        2.41116567276680
C           -3.43187942741477       -7.93736815785089        3.87506596856378
C           -4.78245048140851       -8.52381074628707        4.26945328304266
C           -4.59169839136838       -4.66240190651715        4.51913655037950
C           -3.68685454702678       -4.21533319614090        5.66953333325969
C           -3.43240315991554       -2.70732440836456        5.69335167021401
C           -4.60528396049240       -1.92171345411061        6.26874705455769
C           -4.69413466009850       -3.49891136438427        1.76186458213641
C           -4.94044843480758       -2.08908687602669        2.30502155369325
C           -3.75754271213622       -1.13239305435931        2.14285881316354
C           -3.63795666146579       -0.58373229753238        0.72565806515836
H            2.40352758466728       -0.52899126122249        0.59951286483813
H            2.98105459795894       -0.27092494775438       -1.04202145977041
H            3.89444841143919       -1.30166875159679        0.05717870123794
H            1.09159225138987       -1.90865921695373       -0.99893616132458
H            2.57427395362541       -2.59503129786565       -1.64524149150171
H            1.54412198718052       -4.20987099636488       -0.16955940116398
H            3.08587842307025       -3.68091730654501        0.48382825125755
H            1.42573634172652       -3.89941967957562        2.25434727930040
H            2.01902631527794       -2.25602810785272        2.12246102444966
H           -0.35730791922756       -2.22607303850853        2.53567834211514
H           -0.00157413350828       -1.52969327074599        0.96807800460172
H           -1.95560377844092       -2.86269761001079        0.70085052363759
H           -0.63899287097968       -3.64303438271276       -0.15574254556038
H           -1.86354228878450       -5.36605115066718        0.91569319323685
H           -0.32830268577989       -5.20721057469415        1.75263855210329
H           -1.68625306718793       -5.34442826684811        3.60819774606426
H           -1.73599464575091       -3.60022186968944        3.38713268150250
H           -5.28724391616194       -6.50475508684898        2.30101934392739
H           -4.19453796188843       -6.13096881914670        0.97282280426442
H           -3.68558408831200       -8.33944759718840        1.78691198480808
H           -2.32634493294579       -7.28918865363828        2.15145253043512
H           -2.66959033835941       -8.70237299536158        4.03171481622913
H           -3.18151495720377       -7.09454182008421        4.52551234793706
H           -5.01505841904414       -9.38349135600536        3.64641972289902
H           -4.75803218559675       -8.85493671005524        5.30403956562859
H           -5.59190147365938       -7.80367789382405        4.16683099040750
H           -5.46757200908904       -4.01197785589262        4.45603245931628
H           -4.95550246399034       -5.67375751557167        4.71145474673152
H           -4.16862674599523       -4.50119024683264        6.60662289767848
H           -2.73688030782166       -4.75116519671264        5.62350341595020
H           -2.55243816309163       -2.50969649482683        6.30706159658379
H           -3.21733424574855       -2.35605051512789        4.68092731227097
H           -4.77785822271946       -2.20475482316111        7.30377677186651
H           -4.39309082675360       -0.85653855880275        6.24096027652557
H           -5.52463165865943       -2.09642057813787        5.71388967899258
H           -4.15525352358499       -3.45913110465672        0.81243717181538
H           -5.65896390013643       -3.98326410085734        1.56855221592019
H           -5.79316644555226       -1.66894435187048        1.76780190282086
H           -5.22344733463942       -2.14177131949286        3.35677688704448
H           -3.89560119307810       -0.29246707456953        2.82540078282601
H           -2.83053987296798       -1.63508493070374        2.42508728227287
H           -4.51403508099686        0.00904128817327        0.47589062174485
H           -2.76291360975441        0.05492884979980        0.64331361557582
H           -3.54753464915674       -1.37750350494402       -0.01281897467627

          :  Hamiltonian                  GFN2-xTB          :
         :: total energy             -67.427476275405 Eh    ::
         :: gradient norm              0.000158977534 Eh/a0 ::
         :: HOMO-LUMO gap              5.298068929973 eV    ::
         :: SCC energy               -68.424435705402 Eh    ::
         :: -> dispersion             -0.059893580150 Eh    ::
         :: repulsion energy           0.996959429996 Eh    ::

    * Orbital Energies and Occupations

         #    Occupation            Energy/Eh            Energy/eV
      -------------------------------------------------------------
         1        2.0000           -0.8401734             -22.8623
       ...           ...                  ...                  ...
        52        2.0000           -0.5503404             -14.9755
        53        2.0000           -0.5494975             -14.9526
        54        2.0000           -0.5474239             -14.8962
        55        2.0000           -0.5452152             -14.8361
        56        2.0000           -0.5433201             -14.7845
        57        2.0000           -0.5419646             -14.7476
        58        2.0000           -0.5395842             -14.6828
        59        2.0000           -0.5308949             -14.4464
        60        2.0000           -0.5249941             -14.2858
        61        2.0000           -0.5203002             -14.1581
        62        2.0000           -0.5000697             -13.6076
        63        2.0000           -0.4965901             -13.5129
        64        2.0000           -0.4928876             -13.4122 (HOMO)
        65                         -0.2981871              -8.1141 (LUMO)
        66                         -0.2810678              -7.6482
        67                         -0.2661158              -7.2414
        68                         -0.1940059              -5.2792
        69                         -0.1132221              -3.0809
        70                         -0.0738063              -2.0084
        71                         -0.0540723              -1.4714
        72                         -0.0487902              -1.3276
        73                         -0.0456043              -1.2410
        74                         -0.0399355              -1.0867
        75                         -0.0354082              -0.9635
       ...                                ...                  ...
       133                          0.8041959              21.8833
      -------------------------------------------------------------
                  HL-Gap            0.1947005 Eh            5.2981 eV

     #   Z          covCN         q      C6AA      α(0)
     1   6 C        3.751    -0.105    22.564     6.774
     2   6 C        3.799    -0.054    21.546     6.609
     3   6 C        3.800    -0.060    21.657     6.626
     4   6 C        3.800    -0.061    21.670     6.628
     5   6 C        3.800    -0.059    21.641     6.623
     6   6 C        3.801    -0.067    21.790     6.646
     7   6 C        3.849    -0.062    21.655     6.619
     8   6 C        3.749    -0.067    21.851     6.667
     9  15 P        3.885     0.178   152.564    22.188
    10   6 C        3.749    -0.078    22.061     6.699
    11   6 C        3.837    -0.066    21.736     6.633
    12   6 C        3.799    -0.060    21.657     6.626
    13   6 C        3.751    -0.111    22.680     6.791
    14   6 C        3.750    -0.077    22.026     6.693
    15   6 C        3.839    -0.064    21.704     6.628
    16   6 C        3.800    -0.061    21.668     6.628
    17   6 C        3.752    -0.110    22.669     6.790
    18   6 C        3.749    -0.074    21.978     6.686
    19   6 C        3.832    -0.065    21.726     6.632
    20   6 C        3.800    -0.058    21.622     6.621
    21   6 C        3.752    -0.110    22.665     6.789
    22   1 H        0.925     0.033     2.544     2.494
    23   1 H        0.925     0.038     2.475     2.460
    24   1 H        0.925     0.039     2.458     2.452
    25   1 H        0.924     0.027     2.624     2.533
    26   1 H        0.924     0.034     2.524     2.484
    27   1 H        0.924     0.025     2.659     2.550
    28   1 H        0.924     0.039     2.466     2.456
    29   1 H        0.924     0.024     2.666     2.554
    30   1 H        0.924     0.044     2.397     2.421
    31   1 H        0.924     0.019     2.745     2.591
    32   1 H        0.924     0.049     2.338     2.391
    33   1 H        0.925     0.037     2.485     2.465
    34   1 H        0.925     0.055     2.256     2.349
    35   1 H        0.924     0.045     2.378     2.412
    36   1 H        0.924     0.066     2.134     2.284
    37   1 H        0.928     0.088     1.894     2.152
    38   1 H        0.926     0.097     1.813     2.105
    39   1 H        0.927     0.086     1.917     2.165
    40   1 H        0.927     0.080     1.979     2.200
    41   1 H        0.924     0.066     2.131     2.283
    42   1 H        0.924     0.052     2.297     2.370
    43   1 H        0.924     0.055     2.263     2.353
    44   1 H        0.924     0.033     2.547     2.496
    45   1 H        0.925     0.052     2.298     2.370
    46   1 H        0.925     0.051     2.302     2.373
    47   1 H        0.925     0.029     2.600     2.522
    48   1 H        0.926     0.089     1.888     2.148
    49   1 H        0.927     0.093     1.850     2.127
    50   1 H        0.924     0.068     2.108     2.270
    51   1 H        0.924     0.046     2.374     2.409
    52   1 H        0.924     0.051     2.305     2.374
    53   1 H        0.924     0.037     2.490     2.468
    54   1 H        0.925     0.050     2.315     2.379
    55   1 H        0.925     0.051     2.312     2.378
    56   1 H        0.925     0.032     2.554     2.499
    57   1 H        0.926     0.092     1.858     2.131
    58   1 H        0.929     0.082     1.955     2.186
    59   1 H        0.924     0.065     2.145     2.290
    60   1 H        0.924     0.053     2.286     2.365
    61   1 H        0.924     0.050     2.318     2.381
    62   1 H        0.924     0.036     2.502     2.474
    63   1 H        0.925     0.048     2.341     2.393
    64   1 H        0.925     0.050     2.316     2.380
    65   1 H        0.925     0.033     2.541     2.493

Wiberg/Mayer (AO) data.
largest (>0.10) Wiberg bond orders for each atom

     #   Z sym  total        # sym  WBO       # sym  WBO       # sym  WBO
 ---------------------------------------------------------------------------
     1   6 C    3.996 --     2 C    1.020    24 H    0.987    23 H    0.987
                            22 H    0.986
     2   6 C    3.998 --     1 C    1.020     3 C    1.008    26 H    0.978
                            25 H    0.976
     3   6 C    3.997 --     2 C    1.008     4 C    1.007    28 H    0.976
                            27 H    0.976
     4   6 C    3.996 --     3 C    1.007     5 C    1.007    29 H    0.975
                            30 H    0.974
     5   6 C    3.996 --     6 C    1.007     4 C    1.007    32 H    0.972
                            31 H    0.971
     6   6 C    3.993 --     5 C    1.007     7 C    1.006    34 H    0.970
                            33 H    0.965
     7   6 C    3.987 --     6 C    1.006     8 C    0.981    36 H    0.967
                            35 H    0.964
     8   6 C    3.984 --     9 P    1.002     7 C    0.981    38 H    0.928
                            37 H    0.926
     9  15 P    4.551 --    10 C    1.009    18 C    1.003     8 C    1.002
                            14 C    0.992
    10   6 C    3.989 --     9 P    1.009    11 C    0.991    40 H    0.936
                            39 H    0.933
    11   6 C    3.986 --    12 C    1.008    10 C    0.991    42 H    0.969
                            41 H    0.968
    12   6 C    3.995 --    13 C    1.021    11 C    1.008    43 H    0.975
                            44 H    0.963
    13   6 C    3.994 --    12 C    1.021    45 H    0.985    46 H    0.985
                            47 H    0.981
    14   6 C    3.985 --     9 P    0.992    15 C    0.991    49 H    0.931
                            48 H    0.931
    15   6 C    3.989 --    16 C    1.007    14 C    0.991    51 H    0.968
                            50 H    0.968
    16   6 C    3.995 --    17 C    1.021    15 C    1.007    52 H    0.976
                            53 H    0.961
    17   6 C    3.994 --    16 C    1.021    54 H    0.986    55 H    0.985
                            56 H    0.982
    18   6 C    3.986 --     9 P    1.003    19 C    0.992    57 H    0.931
                            58 H    0.930
    19   6 C    3.986 --    20 C    1.006    18 C    0.992    59 H    0.968
                            60 H    0.962
    20   6 C    3.995 --    21 C    1.020    19 C    1.006    61 H    0.976
                            62 H    0.965
    21   6 C    3.993 --    20 C    1.020    63 H    0.986    64 H    0.985
                            65 H    0.982
    22   1 H    0.999 --     1 C    0.986
    23   1 H    0.999 --     1 C    0.987
    24   1 H    0.998 --     1 C    0.987
    25   1 H    0.999 --     2 C    0.976
    26   1 H    0.999 --     2 C    0.978
    27   1 H    0.999 --     3 C    0.976
    28   1 H    0.998 --     3 C    0.976
    29   1 H    0.999 --     4 C    0.975
    30   1 H    0.998 --     4 C    0.974
    31   1 H    1.000 --     5 C    0.971
    32   1 H    0.998 --     5 C    0.972
    33   1 H    0.999 --     6 C    0.965
    34   1 H    0.997 --     6 C    0.970
    35   1 H    0.998 --     7 C    0.964
    36   1 H    0.995 --     7 C    0.967
    37   1 H    0.992 --     8 C    0.926
    38   1 H    0.991 --     8 C    0.928
    39   1 H    0.992 --    10 C    0.933
    40   1 H    0.993 --    10 C    0.936
    41   1 H    0.995 --    11 C    0.968
    42   1 H    0.997 --    11 C    0.969
    43   1 H    0.997 --    12 C    0.975
    44   1 H    0.999 --    12 C    0.963
    45   1 H    0.997 --    13 C    0.985
    46   1 H    0.997 --    13 C    0.985
    47   1 H    0.999 --    13 C    0.981
    48   1 H    0.992 --    14 C    0.931
    49   1 H    0.991 --    14 C    0.931
    50   1 H    0.995 --    15 C    0.968
    51   1 H    0.998 --    15 C    0.968
    52   1 H    0.997 --    16 C    0.976
    53   1 H    0.999 --    16 C    0.961
    54   1 H    0.997 --    17 C    0.986
    55   1 H    0.997 --    17 C    0.985
    56   1 H    0.999 --    17 C    0.982
    57   1 H    0.991 --    18 C    0.931
    58   1 H    0.993 --    18 C    0.930
    59   1 H    0.995 --    19 C    0.968
    60   1 H    0.997 --    19 C    0.962
    61   1 H    0.997 --    20 C    0.976
    62   1 H    0.999 --    20 C    0.965
    63   1 H    0.997 --    21 C    0.986
    64   1 H    0.997 --    21 C    0.985
    65   1 H    0.999 --    21 C    0.982
 ---------------------------------------------------------------------------

molecular dipole:
                 x           y           z       tot (Debye)
 q only:       -6.658      -8.492       5.441
   full:       -6.803      -8.624       5.397      31.108

           -------------------------------------------------
          | TOTAL ENERGY              -67.427476275405 Eh   |
          | GRADIENT NORM               0.000158977534 Eh/α |
          | HOMO-LUMO GAP               5.298068929973 eV   |
           -------------------------------------------------

 * finished run on 2024/12/20 at 06:44:52.025
