   * xtb version 6.7.1 (edcfbbe) compiled by 'conda@3ef47c1a292c' on 2024-11-25

   ID    Z sym.   atoms
    1    6 C      1, 2, 4, 6, 8-12, 14-19, 22-28, 31, 32
    2    8 O      3, 5, 13, 29, 30
    3    7 N      7, 21
    4   17 Cl     20
    5    1 H      33-54

          program call               : xtb C0449.xyz --opt --namespace C0449 --charge +1
          :  Hamiltonian                  GFN2-xTB          :
 * total energy  :   -93.0040892 Eh     change       -0.9824959E-09 Eh
 * total energy  :   -93.0185356 Eh     change       -0.1444646E-01 Eh
 * total energy  :   -93.0220840 Eh     change       -0.3548359E-02 Eh
 * total energy  :   -93.0226768 Eh     change       -0.5928361E-03 Eh
 * total energy  :   -93.0231209 Eh     change       -0.4440554E-03 Eh
 * total energy  :   -93.0233659 Eh     change       -0.2450571E-03 Eh
 * total energy  :   -93.0236650 Eh     change       -0.2991280E-03 Eh
 * total energy  :   -93.0239651 Eh     change       -0.3000434E-03 Eh
 * total energy  :   -93.0241926 Eh     change       -0.2275241E-03 Eh
 * total energy  :   -93.0243658 Eh     change       -0.1731384E-03 Eh
 * total energy  :   -93.0391672 Eh     change       -0.3076915E-04 Eh
 * total energy  :   -93.0391904 Eh     change       -0.2316483E-04 Eh
 * total energy  :   -93.0392080 Eh     change       -0.1761742E-04 Eh
 * total energy  :   -93.0392197 Eh     change       -0.1174781E-04 Eh
 * total energy  :   -93.0392283 Eh     change       -0.8545343E-05 Eh
 * total energy  :   -93.0392361 Eh     change       -0.7882485E-05 Eh
 * total energy  :   -93.0392421 Eh     change       -0.5935852E-05 Eh
 * total energy  :   -93.0392473 Eh     change       -0.5266342E-05 Eh
 * total energy  :   -93.0392496 Eh     change       -0.2250176E-05 Eh
   *** GEOMETRY OPTIMIZATION CONVERGED AFTER 122 ITERATIONS ***

 final structure:
================
54
 xtb: 6.7.1 (edcfbbe)
C           -0.82148751567171       -0.94801039506113        0.05520234021639
C           -0.56653171119030       -2.44287363955507       -0.04877369088266
O            0.54656073619705       -2.83811579073824        0.77365267384109
C            1.75614477939793       -2.69616595021475        0.25575336492681
O            2.01749588664871       -2.29525838390997       -0.84048742040157
C            2.84368478699436       -3.13209453268894        1.25358357184978
N            2.33454152417991       -3.30064631836293        2.58312159234568
C            1.88856963440902       -2.32375619444532        3.40819487419647
C            1.93469989255196       -0.93254460713894        3.12571603679783
C            1.74341894662781        0.18967049585191        3.92496599453668
C            1.91721549739736        1.30127212518357        3.10560627200724
C            2.20671710065245        0.82541230891215        1.83440287421805
O            2.22374924247774       -0.51972097488208        1.85626451039128
C            2.46925811459713        1.53810355538411        0.60888564932206
C            2.76727558577457        0.85338200334350       -0.57666351767063
C            3.01413511441289        1.54331043151600       -1.74366170938011
C            2.97148083221028        2.93357831530086       -1.74841838274250
C            2.67816637284178        3.62979697180632       -0.57895464757915
C            2.42949509983864        2.93909315280366        0.58597674810235
Cl           3.28062744061770        3.79498463862491       -3.19904813910454
N            1.40692876470055       -2.88469904306129        4.54297553280896
C            1.54719786784342       -4.25280131478828        4.44783428278371
C            2.12321475371835       -4.51900861930212        3.19256374143239
C            2.38480511189740       -5.81434054709505        2.78238994729426
C            2.06273861719450       -6.83778469973882        3.66265648433301
C            1.49686774512584       -6.57264886457155        4.91601982440977
C            1.23111322993534       -5.28250399050247        5.32628988051867
C            2.35239053114633       -8.23446316894217        3.20759939324447
O            2.82045079676202       -8.48219200100578        2.12598930476171
O            2.03655133217133       -9.14399982035241        4.12225748984927
C            2.28458878780793      -10.50223181454590        3.76912598952363
C            0.79127477704856       -2.21173692889056        5.65450477911434
H           -0.99794909469147       -0.65967636699066        1.08934992269809
H           -1.69801437528010       -0.69427959210155       -0.53259777504223
H            0.02858677005682       -0.39036911530209       -0.33139766120352
H           -1.41092360889680       -3.01989165271590        0.33071578330675
H           -0.35474247990784       -2.72322658900786       -1.08401851362672
H            3.25384957444263       -4.08380721621303        0.90844919116248
H            3.64422121645870       -2.38728073383224        1.22725380416783
H            1.54033543881370        0.22159560455850        4.97373467932765
H            1.84369489218845        2.32384820781623        3.40925988054898
H            2.79977328265346       -0.22430936731812       -0.58903035362444
H            3.23975608681848        1.00743058898839       -2.65139746770970
H            2.64658051524337        4.70741428709627       -0.59132492059809
H            2.20172742437711        3.48804523556249        1.48489613878391
H            2.81819808890406       -6.06713411758575        1.82770121541972
H            1.26864818210047       -7.40201632877155        5.56523276541777
H            0.80047830367664       -5.09482455382707        6.29603203019945
H            1.76724611079201      -10.75169727378553        2.84134052702970
H            3.35459350418261      -10.66556283769096        3.63045426762359
H            1.90941932826852      -11.10260691240649        4.59312608175982
H            1.54220908687686       -1.73594981685571        6.28776182564849
H            0.08514307850334       -1.46315724743147        5.29659181458853
H            0.25006899812085       -2.94447060113424        6.24842111906110

          :  Hamiltonian                  GFN2-xTB          :
         :: total energy             -93.039249598241 Eh    ::
         :: gradient norm              0.000398821071 Eh/a0 ::
         :: HOMO-LUMO gap              1.685974159530 eV    ::
         :: SCC energy               -94.283970795050 Eh    ::
         :: -> dispersion             -0.064125236142 Eh    ::
         :: repulsion energy           1.244721196809 Eh    ::

    * Orbital Energies and Occupations

         #    Occupation            Energy/Eh            Energy/eV
      -------------------------------------------------------------
         1        2.0000           -1.1343635             -30.8676
       ...           ...                  ...                  ...
        70        2.0000           -0.5554766             -15.1153
        71        2.0000           -0.5536870             -15.0666
        72        2.0000           -0.5463425             -14.8667
        73        2.0000           -0.5447567             -14.8236
        74        2.0000           -0.5442037             -14.8085
        75        2.0000           -0.5329872             -14.5033
        76        2.0000           -0.5326609             -14.4944
        77        2.0000           -0.5298320             -14.4175
        78        2.0000           -0.5170293             -14.0691
        79        2.0000           -0.5165727             -14.0567
        80        2.0000           -0.5127294             -13.9521
        81        2.0000           -0.4991530             -13.5826
        82        2.0000           -0.4837663             -13.1640 (HOMO)
        83                         -0.4218079             -11.4780 (LUMO)
        84                         -0.3799167             -10.3381
        85                         -0.3641812              -9.9099
        86                         -0.3495732              -9.5124
        87                         -0.3480563              -9.4711
        88                         -0.3326870              -9.0529
        89                         -0.2976463              -8.0994
        90                         -0.2944022              -8.0111
        91                         -0.2769354              -7.5358
        92                         -0.2133997              -5.8069
        93                         -0.2128250              -5.7913
       ...                                ...                  ...
       155                          0.5982393              16.2789
      -------------------------------------------------------------
                  HL-Gap            0.0619584 Eh            1.6860 eV

     #   Z          covCN         q      C6AA      α(0)
     1   6 C        3.750    -0.116    22.786     6.808
     2   6 C        3.700     0.073    19.518     6.318
     3   8 O        1.703    -0.261    18.322     5.779
     4   6 C        2.714     0.365    20.809     7.467
     5   8 O        0.856    -0.375    21.195     6.172
     6   6 C        3.741    -0.045    21.457     6.609
     7   7 N        2.823     0.016    20.972     6.802
     8   6 C        3.053     0.106    25.603     8.298
     9   6 C        3.066     0.092    25.900     8.345
    10   6 C        3.003    -0.049    29.212     8.866
    11   6 C        3.004    -0.059    29.459     8.903
    12   6 C        3.075     0.142    24.844     8.172
    13   8 O        1.727    -0.188    17.135     5.589
    14   6 C        2.969    -0.002    28.076     8.691
    15   6 C        2.924    -0.025    28.632     8.775
    16   6 C        2.953    -0.033    28.812     8.804
    17   6 C        2.887     0.112    25.527     8.283
    18   6 C        2.953    -0.033    28.813     8.804
    19   6 C        2.925    -0.026    28.661     8.780
    20  17 Cl       0.969    -0.114   102.715    15.505
    21   7 N        2.820     0.008    21.107     6.823
    22   6 C        3.084     0.045    26.899     8.502
    23   6 C        3.083     0.044    26.921     8.506
    24   6 C        2.916    -0.031    28.768     8.795
    25   6 C        2.977    -0.008    28.218     8.713
    26   6 C        2.925    -0.019    28.487     8.753
    27   6 C        2.909    -0.036    28.890     8.814
    28   6 C        2.733     0.354    20.991     7.501
    29   8 O        0.857    -0.394    21.566     6.226
    30   8 O        1.704    -0.244    18.050     5.736
    31   6 C        3.658     0.024    20.447     6.490
    32   6 C        3.690    -0.074    22.103     6.728
    33   1 H        0.925     0.048     2.344     2.394
    34   1 H        0.925     0.069     2.094     2.263
    35   1 H        0.925     0.061     2.189     2.314
    36   1 H        0.924     0.071     2.076     2.253
    37   1 H        0.924     0.074     2.042     2.235
    38   1 H        0.924     0.113     1.670     2.021
    39   1 H        0.924     0.109     1.702     2.040
    40   1 H        0.927     0.069     2.097     2.264
    41   1 H        0.927     0.073     2.054     2.241
    42   1 H        0.926     0.077     2.013     2.218
    43   1 H        0.926     0.081     1.964     2.192
    44   1 H        0.926     0.079     1.988     2.205
    45   1 H        0.926     0.063     2.168     2.302
    46   1 H        0.926     0.091     1.871     2.139
    47   1 H        0.926     0.092     1.861     2.134
    48   1 H        0.926     0.071     2.071     2.250
    49   1 H        0.924     0.076     2.018     2.222
    50   1 H        0.924     0.075     2.030     2.228
    51   1 H        0.925     0.083     1.953     2.185
    52   1 H        0.924     0.088     1.896     2.153
    53   1 H        0.925     0.089     1.892     2.151
    54   1 H        0.925     0.099     1.791     2.093

Wiberg/Mayer (AO) data.
largest (>0.10) Wiberg bond orders for each atom

     #   Z sym  total        # sym  WBO       # sym  WBO       # sym  WBO
 ---------------------------------------------------------------------------
     1   6 C    3.990 --     2 C    1.015    33 H    0.986    35 H    0.983
                            34 H    0.979
     2   6 C    3.907 --     1 C    1.015    36 H    0.971    37 H    0.969
                             3 O    0.914
     3   8 O    2.325 --     4 C    1.168     2 C    0.914     5 O    0.184
     4   6 C    3.931 --     5 O    1.764     3 O    1.168     6 C    0.927
     5   8 O    2.075 --     4 C    1.764     3 O    0.184
     6   6 C    3.952 --     7 N    0.996    39 H    0.945    38 H    0.942
                             4 C    0.927
     7   7 N    3.634 --     8 C    1.254    23 C    1.124     6 C    0.996
     8   6 C    3.947 --    21 N    1.257     7 N    1.254     9 C    1.181
     9   6 C    3.888 --    10 C    1.399     8 C    1.181    13 O    1.069
    10   6 C    3.967 --    11 C    1.416     9 C    1.399    40 H    0.967
    11   6 C    3.973 --    10 C    1.416    12 C    1.414    41 H    0.968
    12   6 C    3.890 --    11 C    1.414    13 O    1.131    14 C    1.123
    13   8 O    2.424 --    12 C    1.131     9 C    1.069
    14   6 C    3.982 --    15 C    1.343    19 C    1.336    12 C    1.123
    15   6 C    3.980 --    16 C    1.477    14 C    1.343    42 H    0.957
    16   6 C    3.983 --    15 C    1.477    17 C    1.376    43 H    0.964
    17   6 C    3.904 --    16 C    1.376    18 C    1.369    20 Cl   1.024
    18   6 C    3.984 --    19 C    1.486    17 C    1.369    44 H    0.964
    19   6 C    3.975 --    18 C    1.486    14 C    1.336    45 H    0.964
    20  17 Cl   1.173 --    17 C    1.024
    21   7 N    3.623 --     8 C    1.257    22 C    1.132    32 C    0.994
    22   6 C    3.951 --    27 C    1.342    23 C    1.263    21 N    1.132
    23   6 C    3.951 --    24 C    1.360    22 C    1.263     7 N    1.124
    24   6 C    3.973 --    25 C    1.433    23 C    1.360    46 H    0.954
                            27 C    0.110
    25   6 C    3.975 --    24 C    1.433    26 C    1.351    28 C    0.978
    26   6 C    3.973 --    27 C    1.490    25 C    1.351    47 H    0.961
    27   6 C    3.977 --    26 C    1.490    22 C    1.342    48 H    0.961
                            24 C    0.110
    28   6 C    3.929 --    29 O    1.733    30 O    1.154    25 C    0.978
    29   8 O    2.045 --    28 C    1.733    30 O    0.184
    30   8 O    2.332 --    28 C    1.154    31 C    0.946    29 O    0.184
    31   6 C    3.909 --    51 H    0.980    49 H    0.975    50 H    0.974
                            30 O    0.946
    32   6 C    3.943 --    21 N    0.994    54 H    0.970    53 H    0.967
                            52 H    0.964
    33   1 H    0.998 --     1 C    0.986
    34   1 H    0.995 --     1 C    0.979
    35   1 H    0.996 --     1 C    0.983
    36   1 H    0.995 --     2 C    0.971
    37   1 H    0.994 --     2 C    0.969
    38   1 H    0.986 --     6 C    0.942
    39   1 H    0.986 --     6 C    0.945
    40   1 H    0.995 --    10 C    0.967
    41   1 H    0.994 --    11 C    0.968
    42   1 H    0.994 --    15 C    0.957
    43   1 H    0.993 --    16 C    0.964
    44   1 H    0.993 --    18 C    0.964
    45   1 H    0.996 --    19 C    0.964
    46   1 H    0.991 --    24 C    0.954
    47   1 H    0.991 --    26 C    0.961
    48   1 H    0.994 --    27 C    0.961
    49   1 H    0.994 --    31 C    0.975
    50   1 H    0.994 --    31 C    0.974
    51   1 H    0.993 --    31 C    0.980
    52   1 H    0.991 --    32 C    0.964
    53   1 H    0.991 --    32 C    0.967
    54   1 H    0.989 --    32 C    0.970
 ---------------------------------------------------------------------------

molecular dipole:
                 x           y           z       tot (Debye)
 q only:        2.514      -4.433       7.074
   full:        2.580      -4.273       6.995      21.843

           -------------------------------------------------
          | TOTAL ENERGY              -93.039249598241 Eh   |
          | GRADIENT NORM               0.000398821071 Eh/α |
          | HOMO-LUMO GAP               1.685974159530 eV   |
           -------------------------------------------------

 * finished run on 2024/12/20 at 06:45:06.769
