   * xtb version 6.7.1 (edcfbbe) compiled by 'conda@3ef47c1a292c' on 2024-11-25

   ID    Z sym.   atoms
    1    8 O      1
    2    6 C      2, 3, 5, 6, 8-11
    3    7 N      4, 7
    4    1 H      12-26

          program call               : xtb C0454.xyz --opt --namespace C0454 --charge +1
          :  Hamiltonian                  GFN2-xTB          :
 * total energy  :   -34.3204336 Eh     change       -0.9011316E-09 Eh
 * total energy  :   -34.3250281 Eh     change       -0.4594433E-02 Eh
 * total energy  :   -34.3260591 Eh     change       -0.1031020E-02 Eh
 * total energy  :   -34.3262236 Eh     change       -0.1645523E-03 Eh
 * total energy  :   -34.3263273 Eh     change       -0.1036442E-03 Eh
 * total energy  :   -34.3263654 Eh     change       -0.3806085E-04 Eh
 * total energy  :   -34.3264076 Eh     change       -0.4226717E-04 Eh
 * total energy  :   -34.3264359 Eh     change       -0.2831852E-04 Eh
 * total energy  :   -34.3264659 Eh     change       -0.2996353E-04 Eh
 * total energy  :   -34.3264901 Eh     change       -0.2422171E-04 Eh
 * total energy  :   -34.3265015 Eh     change       -0.1141400E-04 Eh
 * total energy  :   -34.3265091 Eh     change       -0.7556091E-05 Eh
 * total energy  :   -34.3265169 Eh     change       -0.7756949E-05 Eh
 * total energy  :   -34.3265264 Eh     change       -0.9573661E-05 Eh
 * total energy  :   -34.3265361 Eh     change       -0.9687672E-05 Eh
 * total energy  :   -34.3265569 Eh     change       -0.2077460E-04 Eh
 * total energy  :   -34.3265695 Eh     change       -0.1262513E-04 Eh
 * total energy  :   -34.3265730 Eh     change       -0.3501989E-05 Eh
   *** GEOMETRY OPTIMIZATION CONVERGED AFTER 18 ITERATIONS ***

 final structure:
================
26
 xtb: 6.7.1 (edcfbbe)
O            1.06488488271705        0.23403531888732        0.24826294664547
C            0.44100106457451       -0.38809262254753        1.34228405567518
C            1.02590165396791       -1.78875496114113        1.61738616487172
N            2.48148146475444       -1.73497949602950        1.57895686946775
C            3.28915810106802       -2.81396228994826        1.37790139125751
C            4.57519668230261       -2.37087784034051        1.41386052039032
N            4.53277416321041       -1.02950877924380        1.63962734246101
C            3.25759887589629       -0.66686283827141        1.73458439048033
C            5.67260835048366       -0.13847759908543        1.67427381902094
C            5.98969101854829        0.38313801983279        0.27659953137944
C            0.55998516732925       -2.32854001858876        2.96666985287322
H            0.61238715817352        0.01118971245865       -0.57187509791672
H            0.60690752305440        0.25534565658974        2.21158451018113
H           -0.63882208914721       -0.48459186273380        1.20237089775663
H            0.72160351048049       -2.47577775375515        0.81900821195528
H            2.90603233231312       -3.80170254037593        1.22323158494392
H            5.49370074447893       -2.90929922571718        1.29939871347076
H            2.91668885574631        0.33840732571235        1.87985331140664
H            5.44296620334553        0.69233912063189        2.34363470537054
H            6.52510995222458       -0.68963560581866        2.07473227744978
H            5.14792550311331        0.93967178322220       -0.12660419907992
H            6.84881919151000        1.04480091961759        0.32478705823239
H            6.22472413516052       -0.43550956204980       -0.39816786058556
H           -0.52412844414474       -2.38678621087672        2.98234929631751
H            0.95744076704510       -3.32414875250899        3.14511423951162
H            0.88028323179405       -1.67383989792031        3.77345546646308

          :  Hamiltonian                  GFN2-xTB          :
         :: total energy             -34.326573013994 Eh    ::
         :: gradient norm              0.000662161943 Eh/a0 ::
         :: HOMO-LUMO gap              4.309888991802 eV    ::
         :: SCC energy               -34.796600467098 Eh    ::
         :: -> dispersion             -0.018893684153 Eh    ::
         :: repulsion energy           0.470027453104 Eh    ::

    * Orbital Energies and Occupations

         #    Occupation            Energy/Eh            Energy/eV
      -------------------------------------------------------------
         1        2.0000           -0.8877224             -24.1562
       ...           ...                  ...                  ...
        19        2.0000           -0.6638416             -18.0640
        20        2.0000           -0.6561646             -17.8551
        21        2.0000           -0.6503744             -17.6976
        22        2.0000           -0.6456844             -17.5700
        23        2.0000           -0.6227259             -16.9452
        24        2.0000           -0.6108782             -16.6228
        25        2.0000           -0.6045208             -16.4498
        26        2.0000           -0.5979686             -16.2716
        27        2.0000           -0.5968404             -16.2409
        28        2.0000           -0.5879611             -15.9992
        29        2.0000           -0.5866607             -15.9639
        30        2.0000           -0.5799355             -15.7808
        31        2.0000           -0.5574619             -15.1693 (HOMO)
        32                         -0.3990764             -10.8594 (LUMO)
        33                         -0.3653631              -9.9420
        34                         -0.1885617              -5.1310
        35                         -0.1360960              -3.7034
        36                         -0.1034213              -2.8142
        37                         -0.0744545              -2.0260
        38                         -0.0464609              -1.2643
        39                         -0.0408993              -1.1129
        40                         -0.0308545              -0.8396
        41                         -0.0231083              -0.6288
        42                         -0.0109996              -0.2993
       ...                                ...                  ...
        59                          0.4694227              12.7736
      -------------------------------------------------------------
                  HL-Gap            0.1583855 Eh            4.3099 eV

     #   Z          covCN         q      C6AA      α(0)
     1   8 O        1.656    -0.437    21.578     6.271
     2   6 C        3.677     0.063    19.742     6.366
     3   6 C        3.787     0.014    20.354     6.426
     4   7 N        2.873     0.065    20.102     6.659
     5   6 C        3.076    -0.008    28.147     8.698
     6   6 C        3.071    -0.006    28.104     8.692
     7   7 N        2.874     0.066    20.091     6.657
     8   6 C        3.097     0.055    26.661     8.462
     9   6 C        3.741    -0.023    21.054     6.546
    10   6 C        3.753    -0.125    22.958     6.833
    11   6 C        3.755    -0.132    23.085     6.851
    12   1 H        0.805     0.310     0.692     1.307
    13   1 H        0.924     0.068     2.108     2.271
    14   1 H        0.924     0.061     2.191     2.315
    15   1 H        0.924     0.080     1.978     2.199
    16   1 H        0.926     0.103     1.758     2.073
    17   1 H        0.926     0.106     1.729     2.056
    18   1 H        0.926     0.129     1.543     1.943
    19   1 H        0.924     0.086     1.923     2.168
    20   1 H        0.924     0.091     1.872     2.140
    21   1 H        0.925     0.066     2.127     2.281
    22   1 H        0.925     0.084     1.936     2.176
    23   1 H        0.925     0.066     2.129     2.282
    24   1 H        0.925     0.082     1.956     2.187
    25   1 H        0.925     0.071     2.072     2.251
    26   1 H        0.925     0.065     2.137     2.286

Wiberg/Mayer (AO) data.
largest (>0.10) Wiberg bond orders for each atom

     #   Z sym  total        # sym  WBO       # sym  WBO       # sym  WBO
 ---------------------------------------------------------------------------
     1   8 O    1.971 --     2 C    1.013    12 H    0.891
     2   6 C    3.955 --     1 O    1.013     3 C    0.974    14 H    0.969
                            13 H    0.966
     3   6 C    3.945 --    11 C    0.993     2 C    0.974    15 H    0.955
                             4 N    0.952
     4   7 N    3.714 --     8 C    1.367     5 C    1.225     3 C    0.952
     5   6 C    3.950 --     6 C    1.595     4 N    1.225    16 H    0.962
     6   6 C    3.950 --     5 C    1.595     7 N    1.227    17 H    0.961
     7   7 N    3.716 --     8 C    1.365     6 C    1.227     9 C    0.966
     8   6 C    3.945 --     4 N    1.367     7 N    1.365    18 H    0.949
     9   6 C    3.939 --    10 C    1.001    19 H    0.966     7 N    0.966
                            20 H    0.965
    10   6 C    3.981 --     9 C    1.001    23 H    0.984    21 H    0.984
                            22 H    0.976
    11   6 C    3.981 --     3 C    0.993    26 H    0.983    25 H    0.981
                            24 H    0.977
    12   1 H    0.904 --     1 O    0.891
    13   1 H    0.995 --     2 C    0.966
    14   1 H    0.996 --     2 C    0.969
    15   1 H    0.993 --     3 C    0.955
    16   1 H    0.989 --     5 C    0.962
    17   1 H    0.988 --     6 C    0.961
    18   1 H    0.983 --     8 C    0.949
    19   1 H    0.993 --     9 C    0.966
    20   1 H    0.991 --     9 C    0.965
    21   1 H    0.996 --    10 C    0.984
    22   1 H    0.992 --    10 C    0.976
    23   1 H    0.996 --    10 C    0.984
    24   1 H    0.992 --    11 C    0.977
    25   1 H    0.995 --    11 C    0.981
    26   1 H    0.996 --    11 C    0.983
 ---------------------------------------------------------------------------

molecular dipole:
                 x           y           z       tot (Debye)
 q only:        6.021      -2.564       2.903
   full:        5.825      -2.681       2.831      17.818

           -------------------------------------------------
          | TOTAL ENERGY              -34.326573013994 Eh   |
          | GRADIENT NORM               0.000662161943 Eh/α |
          | HOMO-LUMO GAP               4.309888991802 eV   |
           -------------------------------------------------

 * finished run on 2024/12/20 at 06:45:14.010
