   * xtb version 6.7.1 (edcfbbe) compiled by 'conda@3ef47c1a292c' on 2024-11-25

   ID    Z sym.   atoms
    1    6 C      1-4, 6-10
    2    7 N      5
    3    1 H      11-28

          program call               : xtb C0457.xyz --opt --namespace C0457 --charge +1
          :  Hamiltonian                  GFN2-xTB          :
 * total energy  :   -30.9524235 Eh     change       -0.7540280E-10 Eh
 * total energy  :   -30.9559967 Eh     change       -0.3573225E-02 Eh
 * total energy  :   -30.9569317 Eh     change       -0.9350065E-03 Eh
 * total energy  :   -30.9571810 Eh     change       -0.2493259E-03 Eh
 * total energy  :   -30.9572696 Eh     change       -0.8855747E-04 Eh
 * total energy  :   -30.9572923 Eh     change       -0.2274966E-04 Eh
 * total energy  :   -30.9573133 Eh     change       -0.2099968E-04 Eh
 * total energy  :   -30.9573243 Eh     change       -0.1095003E-04 Eh
 * total energy  :   -30.9573339 Eh     change       -0.9611210E-05 Eh
 * total energy  :   -30.9573399 Eh     change       -0.6037030E-05 Eh
 * total energy  :   -30.9573447 Eh     change       -0.4812340E-05 Eh
   *** GEOMETRY OPTIMIZATION CONVERGED AFTER 11 ITERATIONS ***

 final structure:
================
28
 xtb: 6.7.1 (edcfbbe)
C            1.38759022532155        0.09169352662114        0.71149208267923
C            0.33921928321778        1.08714328385661        1.19522737905237
C            0.52697871574654        2.49039353606812        0.61030210878531
C            0.29456199805634        2.61843544905878       -0.89411032166249
N           -1.13601557779613        2.79507712734368       -1.30623814976404
C           -1.79257579467034        4.01525274027563       -0.73678696231797
C           -2.82241016750213        3.50369977545577        0.28058621755126
C           -2.94018505171771        2.05658639987485       -0.06970834857230
C           -2.02749310088266        1.66784097954602       -0.94364165584360
C           -1.81102321558199        0.36842962992353       -1.62196462893238
H            1.33229993871754       -0.08335692126721       -0.36129851351980
H            1.24703010533214       -0.86335709043758        1.20945310296776
H            2.38734405310085        0.44928623860004        0.94391681546431
H           -0.66198632036066        0.71097393558733        0.98493486135731
H            0.42804481805728        1.17349584686507        2.27882561621048
H           -0.10635649753933        3.19339791465773        1.15003608008136
H            1.56083307868930        2.78949214153583        0.79316767619919
H            0.83240100888696        3.49055894077901       -1.27258170856194
H            0.68227949327777        1.73568078886667       -1.40394314441815
H           -1.11115498998373        2.86558896947279       -2.32766394380029
H           -1.04507959050202        4.67153572229447       -0.29566538264989
H           -2.29330759678060        4.55244019707329       -1.54237301467352
H           -2.49686900397222        3.62609723092558        1.31519802343249
H           -3.77932969519287        4.01440842990316        0.18005875111863
H           -3.69300253747489        1.42522573321919        0.36213799673960
H           -0.87422016683839       -0.09965261157250       -1.32336689646403
H           -2.61943817442093       -0.31035656514569       -1.36653178313773
H           -1.79775523718784        0.49353865061859       -2.70493225732103

          :  Hamiltonian                  GFN2-xTB          :
         :: total energy             -30.957344732073 Eh    ::
         :: gradient norm              0.000626956212 Eh/a0 ::
         :: HOMO-LUMO gap              4.665758674250 eV    ::
         :: SCC energy               -31.430179019376 Eh    ::
         :: -> dispersion             -0.021071331683 Eh    ::
         :: repulsion energy           0.472834287303 Eh    ::

    * Orbital Energies and Occupations

         #    Occupation            Energy/Eh            Energy/eV
      -------------------------------------------------------------
         1        2.0000           -0.8671324             -23.5959
       ...           ...                  ...                  ...
        17        2.0000           -0.6493841             -17.6706
        18        2.0000           -0.6445560             -17.5393
        19        2.0000           -0.6285470             -17.1036
        20        2.0000           -0.6271955             -17.0669
        21        2.0000           -0.6232983             -16.9608
        22        2.0000           -0.6216172             -16.9151
        23        2.0000           -0.6137998             -16.7023
        24        2.0000           -0.6059141             -16.4878
        25        2.0000           -0.5955308             -16.2052
        26        2.0000           -0.5723929             -15.5756
        27        2.0000           -0.5617133             -15.2850
        28        2.0000           -0.5603047             -15.2467
        29        2.0000           -0.5492002             -14.9445 (HOMO)
        30                         -0.3777368             -10.2787 (LUMO)
        31                         -0.2373901              -6.4597
        32                         -0.1757302              -4.7819
        33                         -0.1478848              -4.0242
        34                         -0.1221774              -3.3246
        35                         -0.0763384              -2.0773
        36                         -0.0690275              -1.8783
        37                         -0.0619948              -1.6870
        38                         -0.0414906              -1.1290
        39                         -0.0294987              -0.8027
        40                         -0.0142105              -0.3867
       ...                                ...                  ...
        58                          0.4856462              13.2151
      -------------------------------------------------------------
                  HL-Gap            0.1714635 Eh            4.6658 eV

     #   Z          covCN         q      C6AA      α(0)
     1   6 C        3.751    -0.113    22.728     6.799
     2   6 C        3.799    -0.066    21.770     6.643
     3   6 C        3.800    -0.074    21.916     6.665
     4   6 C        3.735    -0.029    21.178     6.568
     5   7 N        3.600     0.033    20.667     6.752
     6   6 C        3.781    -0.029    21.111     6.545
     7   6 C        3.838    -0.070    21.808     6.644
     8   6 C        2.934    -0.037    28.921     8.820
     9   6 C        2.925     0.047    26.942     8.512
    10   6 C        3.754    -0.134    23.133     6.858
    11   1 H        0.925     0.029     2.605     2.524
    12   1 H        0.925     0.057     2.239     2.340
    13   1 H        0.925     0.052     2.301     2.372
    14   1 H        0.925     0.040     2.454     2.450
    15   1 H        0.924     0.058     2.222     2.331
    16   1 H        0.925     0.056     2.244     2.342
    17   1 H        0.924     0.076     2.021     2.223
    18   1 H        0.924     0.078     2.000     2.211
    19   1 H        0.924     0.093     1.851     2.128
    20   1 H        0.859     0.219     1.015     1.579
    21   1 H        0.925     0.098     1.805     2.101
    22   1 H        0.925     0.087     1.905     2.158
    23   1 H        0.924     0.089     1.886     2.147
    24   1 H        0.925     0.093     1.848     2.126
    25   1 H        0.926     0.096     1.825     2.113
    26   1 H        0.925     0.088     1.896     2.153
    27   1 H        0.925     0.091     1.865     2.135
    28   1 H        0.924     0.073     2.056     2.243

Wiberg/Mayer (AO) data.
largest (>0.10) Wiberg bond orders for each atom

     #   Z sym  total        # sym  WBO       # sym  WBO       # sym  WBO
 ---------------------------------------------------------------------------
     1   6 C    3.993 --     2 C    1.021    13 H    0.986    12 H    0.984
                            11 H    0.981
     2   6 C    3.993 --     1 C    1.021     3 C    1.006    15 H    0.974
                            14 H    0.973
     3   6 C    3.984 --     4 C    1.009     2 C    1.006    16 H    0.968
                            17 H    0.965
     4   6 C    3.921 --     3 C    1.009    18 H    0.970    19 H    0.961
                             5 N    0.918
     5   7 N    3.763 --     6 C    0.936    20 H    0.919     4 C    0.918
                             9 C    0.908
     6   6 C    3.929 --     7 C    1.003    22 H    0.975    21 H    0.968
                             5 N    0.936
     7   6 C    3.987 --     8 C    1.028     6 C    1.003    24 H    0.956
                            23 H    0.951
     8   6 C    3.985 --     9 C    1.868     7 C    1.028    25 H    0.959
     9   6 C    3.919 --     8 C    1.868    10 C    1.042     5 N    0.908
    10   6 C    3.984 --     9 C    1.042    27 H    0.971    28 H    0.963
                            26 H    0.953
    11   1 H    0.999 --     1 C    0.981
    12   1 H    0.997 --     1 C    0.984
    13   1 H    0.997 --     1 C    0.986
    14   1 H    0.998 --     2 C    0.973
    15   1 H    0.997 --     2 C    0.974
    16   1 H    0.997 --     3 C    0.968
    17   1 H    0.994 --     3 C    0.965
    18   1 H    0.994 --     4 C    0.970
    19   1 H    0.991 --     4 C    0.961
    20   1 H    0.952 --     5 N    0.919
    21   1 H    0.990 --     6 C    0.968
    22   1 H    0.992 --     6 C    0.975
    23   1 H    0.992 --     7 C    0.951
    24   1 H    0.991 --     7 C    0.956
    25   1 H    0.991 --     8 C    0.959
    26   1 H    0.992 --    10 C    0.953
    27   1 H    0.991 --    10 C    0.971
    28   1 H    0.995 --    10 C    0.963
 ---------------------------------------------------------------------------

molecular dipole:
                 x           y           z       tot (Debye)
 q only:       -2.286       4.818      -1.538
   full:       -2.232       4.945      -1.846      14.565

           -------------------------------------------------
          | TOTAL ENERGY              -30.957344732073 Eh   |
          | GRADIENT NORM               0.000626956212 Eh/α |
          | HOMO-LUMO GAP               4.665758674250 eV   |
           -------------------------------------------------

 * finished run on 2024/12/20 at 06:45:16.991
