   * xtb version 6.7.1 (edcfbbe) compiled by 'conda@3ef47c1a292c' on 2024-11-25

   ID    Z sym.   atoms
    1    8 O      1, 3
    2    7 N      2, 6, 8
    3    6 C      4, 5, 7, 9, 10
    4    1 H      11-18

          program call               : xtb C0451.xyz --opt --namespace C0451 --charge +1
          :  Hamiltonian                  GFN2-xTB          :
 * total energy  :   -31.1775744 Eh     change       -0.3774048E-09 Eh
 * total energy  :   -31.1840967 Eh     change       -0.6522316E-02 Eh
 * total energy  :   -31.1855113 Eh     change       -0.1414583E-02 Eh
 * total energy  :   -31.1856685 Eh     change       -0.1572844E-03 Eh
 * total energy  :   -31.1856948 Eh     change       -0.2625367E-04 Eh
 * total energy  :   -31.1857417 Eh     change       -0.4686062E-04 Eh
 * total energy  :   -31.1857455 Eh     change       -0.3808316E-05 Eh
   *** GEOMETRY OPTIMIZATION CONVERGED AFTER 7 ITERATIONS ***

 final structure:
================
18
 xtb: 6.7.1 (edcfbbe)
O            1.43776824493754        0.65873882285800        0.50104325150147
N            2.43399887493135        0.08167395820867        0.16657203609250
O            2.86595055387446       -0.95915443301291        0.58526524016625
C            3.20254669727164        0.73475306560601       -0.87548011690916
C            2.92942903569123        1.94394015101256       -1.46707240038502
N            3.90267046633448        2.16714332574650       -2.37811016398818
C            4.74531188105547        1.12992847034400       -2.34744630575570
N            4.34852613375374        0.24145950498318       -1.44428022647458
C            5.00940109761187       -0.99828169358613       -1.13606496718723
C            4.01830386591765        3.32047498085647       -3.23165222991846
H            2.11374759788551        2.61541101382030       -1.27575424442555
H            5.61809315814929        1.03059706955620       -2.96631884103166
H            5.87479268169724       -1.11873534516580       -1.78330247326337
H            5.32662651759764       -1.00987818366301       -0.09196232467926
H            4.32658404423179       -1.83775466937040       -1.27433670310179
H            4.94066544068331        3.86102078206828       -3.01596613120229
H            4.03036268145655        3.01749233048848       -4.27892880242683
H            3.17291102691923        3.98369084924959       -3.06433459701113

          :  Hamiltonian                  GFN2-xTB          :
         :: total energy             -31.185745463461 Eh    ::
         :: gradient norm              0.000656743199 Eh/a0 ::
         :: HOMO-LUMO gap              3.255063782204 eV    ::
         :: SCC energy               -31.535976233915 Eh    ::
         :: -> dispersion             -0.012808983729 Eh    ::
         :: repulsion energy           0.350230770454 Eh    ::

    * Orbital Energies and Occupations

         #    Occupation            Energy/Eh            Energy/eV
      -------------------------------------------------------------
         1        2.0000           -0.9437928             -25.6819
       ...           ...                  ...                  ...
        15        2.0000           -0.7367355             -20.0476
        16        2.0000           -0.7322207             -19.9247
        17        2.0000           -0.7222203             -19.6526
        18        2.0000           -0.7214126             -19.6306
        19        2.0000           -0.7038434             -19.1526
        20        2.0000           -0.6688444             -18.2002
        21        2.0000           -0.6673034             -18.1582
        22        2.0000           -0.6627761             -18.0351
        23        2.0000           -0.6336928             -17.2437
        24        2.0000           -0.6313168             -17.1790
        25        2.0000           -0.6265152             -17.0483
        26        2.0000           -0.6114419             -16.6382
        27        2.0000           -0.6006531             -16.3446 (HOMO)
        28                         -0.4810317             -13.0895 (LUMO)
        29                         -0.4450809             -12.1113
        30                         -0.3858734             -10.5002
        31                         -0.2230066              -6.0683
        32                         -0.2188362              -5.9548
        33                         -0.1313773              -3.5750
        34                         -0.0902697              -2.4564
        35                         -0.0757040              -2.0600
        36                         -0.0343172              -0.9338
        37                         -0.0142315              -0.3873
        38                         -0.0131032              -0.3566
       ...                                ...                  ...
        48                          0.3935349              10.7086
      -------------------------------------------------------------
                  HL-Gap            0.1196214 Eh            3.2551 eV

     #   Z          covCN         q      C6AA      α(0)
     1   8 O        0.933    -0.323    20.172     6.024
     2   7 N        2.754     0.576    13.210     5.398
     3   8 O        0.931    -0.337    20.422     6.061
     4   6 C        3.082     0.029    27.270     8.561
     5   6 C        3.058     0.003    27.894     8.661
     6   7 N        2.861     0.094    19.616     6.578
     7   6 C        3.113     0.045    26.828     8.485
     8   7 N        2.842     0.092    19.656     6.585
     9   6 C        3.691    -0.095    22.512     6.790
    10   6 C        3.692    -0.096    22.534     6.792
    11   1 H        0.926     0.145     1.423     1.865
    12   1 H        0.926     0.136     1.494     1.911
    13   1 H        0.925     0.108     1.711     2.046
    14   1 H        0.924     0.134     1.502     1.916
    15   1 H        0.924     0.134     1.503     1.917
    16   1 H        0.924     0.118     1.631     1.997
    17   1 H        0.924     0.117     1.635     1.999
    18   1 H        0.925     0.120     1.615     1.988

Wiberg/Mayer (AO) data.
largest (>0.10) Wiberg bond orders for each atom

     #   Z sym  total        # sym  WBO       # sym  WBO       # sym  WBO
 ---------------------------------------------------------------------------
     1   8 O    1.996 --     2 N    1.480     3 O    0.397
     2   7 N    3.929 --     1 O    1.480     3 O    1.462     4 C    0.955
     3   8 O    1.979 --     2 N    1.462     1 O    0.397
     4   6 C    3.945 --     5 C    1.505     8 N    1.197     2 N    0.955
     5   6 C    3.948 --     4 C    1.505     6 N    1.270    11 H    0.951
     6   7 N    3.734 --     7 C    1.338     5 C    1.270    10 C    0.984
     7   6 C    3.941 --     8 N    1.384     6 N    1.338    12 H    0.948
     8   7 N    3.734 --     7 C    1.384     4 C    1.197     9 C    0.986
     9   6 C    3.911 --     8 N    0.986    13 H    0.972    15 H    0.948
                            14 H    0.947
    10   6 C    3.917 --     6 N    0.984    18 H    0.971    17 H    0.959
                            16 H    0.957
    11   1 H    0.978 --     5 C    0.951
    12   1 H    0.981 --     7 C    0.948
    13   1 H    0.988 --     9 C    0.972
    14   1 H    0.981 --     9 C    0.947
    15   1 H    0.981 --     9 C    0.948
    16   1 H    0.985 --    10 C    0.957
    17   1 H    0.985 --    10 C    0.959
    18   1 H    0.985 --    10 C    0.971
 ---------------------------------------------------------------------------

molecular dipole:
                 x           y           z       tot (Debye)
 q only:        8.743       2.908      -4.770
   full:        8.835       2.969      -4.881      26.743

           -------------------------------------------------
          | TOTAL ENERGY              -31.185745463461 Eh   |
          | GRADIENT NORM               0.000656743199 Eh/α |
          | HOMO-LUMO GAP               3.255063782204 eV   |
           -------------------------------------------------

 * finished run on 2024/12/20 at 06:45:09.597
