   * xtb version 6.7.1 (edcfbbe) compiled by 'conda@3ef47c1a292c' on 2024-11-25

   ID    Z sym.   atoms
    1    6 C      1-4, 6-17
    2   15 P      5
    3    1 H      18-53

          program call               : xtb C0450.xyz --opt --namespace C0450 --charge +1
          :  Hamiltonian                  GFN2-xTB          :
 * total energy  :   -54.7552559 Eh     change       -0.2470983E-09 Eh
 * total energy  :   -54.7607943 Eh     change       -0.5538469E-02 Eh
 * total energy  :   -54.7623675 Eh     change       -0.1573162E-02 Eh
 * total energy  :   -54.7626002 Eh     change       -0.2326845E-03 Eh
 * total energy  :   -54.7627802 Eh     change       -0.1800162E-03 Eh
 * total energy  :   -54.7629863 Eh     change       -0.2061184E-03 Eh
 * total energy  :   -54.7632919 Eh     change       -0.3055639E-03 Eh
 * total energy  :   -54.7636865 Eh     change       -0.3946107E-03 Eh
 * total energy  :   -54.7641504 Eh     change       -0.4638618E-03 Eh
 * total energy  :   -54.7646654 Eh     change       -0.5150411E-03 Eh
 * total energy  :   -54.7712128 Eh     change       -0.9197658E-05 Eh
 * total energy  :   -54.7712212 Eh     change       -0.8389623E-05 Eh
 * total energy  :   -54.7712284 Eh     change       -0.7226875E-05 Eh
 * total energy  :   -54.7712348 Eh     change       -0.6418351E-05 Eh
 * total energy  :   -54.7712409 Eh     change       -0.6098233E-05 Eh
 * total energy  :   -54.7712473 Eh     change       -0.6381356E-05 Eh
 * total energy  :   -54.7712538 Eh     change       -0.6453412E-05 Eh
 * total energy  :   -54.7712592 Eh     change       -0.5456318E-05 Eh
 * total energy  :   -54.7712633 Eh     change       -0.4064377E-05 Eh
   *** GEOMETRY OPTIMIZATION CONVERGED AFTER 53 ITERATIONS ***

 final structure:
================
53
 xtb: 6.7.1 (edcfbbe)
C            0.67430435498529        0.48915768569002       -0.77885005654614
C           -0.42666701657563        1.07842283480728        0.10830045988164
C           -0.01711717524114        2.44050155939145        0.67539162113417
C            0.13772499771063        3.51528304321765       -0.39457567889152
P            0.33632880569364       -1.20085549830528       -1.38758448610311
C            0.93908603384254       -2.44405747446815       -0.18528915536999
C            0.30345931438828       -2.49813911744212        1.20704915648595
C           -0.99498108245844       -3.30297626795009        1.28890731951226
C           -0.79648152415385       -4.79164585272816        1.02689262123842
C           -1.45037050829606       -1.39436890187487       -1.71387590026752
C           -2.01592482902312       -0.46640841138460       -2.79985954892101
C           -2.04280799652865       -1.09645121763168       -4.19421582016499
C           -3.10244968649788       -2.18388030312856       -4.32948662943610
C            1.32962647076487       -1.58134921213691       -2.88098661417309
C            1.52802771691177       -0.42930467194791       -3.87388734398959
C            2.82354706655720        0.34777062467310       -3.62175015715811
C            4.05945847107439       -0.40989903655708       -4.09317294496732
H            1.61870388075357        0.44635835618733       -0.22670392901430
H            0.82255521532892        1.13122147419745       -1.64962274802635
H           -1.34380547905718        1.20256674410458       -0.47021316301108
H           -0.64285416804847        0.40523986553521        0.94004541050809
H           -0.78764179551128        2.75530150088970        1.38058525899646
H            0.91643706115622        2.33996701721430        1.23230885396531
H           -0.75856379015444        3.57954043761206       -1.00752374355090
H            0.29278516910107        4.48178854330073        0.07566459366391
H            0.99121613136249        3.32240965975291       -1.03996410481083
H            0.86341862893765       -3.42053192032427       -0.67214433150773
H            2.00642557951567       -2.21379848404344       -0.08472125944255
H            1.02714031711974       -2.96507960028526        1.87876123036769
H            0.13238112789950       -1.48633099473356        1.57840022522756
H           -1.39526275306368       -3.18048609803901        2.29665767441119
H           -1.73638898696765       -2.90760115126726        0.59341927326152
H           -0.04260089179131       -5.19986413456690        1.69507621848022
H           -1.72674796697967       -5.32436467032898        1.20210780372326
H           -0.49139445192458       -4.98836216756692        0.00141912471219
H           -1.62596510432937       -2.44153095305928       -1.97319733647257
H           -1.94568619836874       -1.20035573939555       -0.75849924803320
H           -3.04062352582778       -0.20416488628970       -2.52981593736072
H           -1.44445546208136        0.46435885906828       -2.83087747612081
H           -2.26121441126994       -0.30915420923943       -4.91746251020548
H           -1.06321561672293       -1.50692298844051       -4.44285635306293
H           -4.08851811682242       -1.78526035858951       -4.10492377891895
H           -3.11547126536842       -2.56412880948684       -5.34693914128581
H           -2.91280107005315       -3.02232439886284       -3.66290383171771
H            2.30358980600589       -1.93715456797247       -2.53436518779805
H            0.82907158940993       -2.43100638779044       -3.35540826883294
H            1.56977601661096       -0.83913497631867       -4.88435782482701
H            0.67510961767947        0.25121987122381       -3.84238901327651
H            2.77110330723845        1.29464140517611       -4.16106332729364
H            2.92372354667564        0.57555418304638       -2.55786309158291
H            3.99986276932281       -0.60733264986639       -5.16032953434999
H            4.95202826854199        0.18083943991474       -3.90779928666014
H            4.17313960853379       -1.36010699298490       -3.57617808240685

          :  Hamiltonian                  GFN2-xTB          :
         :: total energy             -54.771263285125 Eh    ::
         :: gradient norm              0.000304472447 Eh/a0 ::
         :: HOMO-LUMO gap              6.687444812023 eV    ::
         :: SCC energy               -55.582442531846 Eh    ::
         :: -> dispersion             -0.045011279255 Eh    ::
         :: repulsion energy           0.811179246722 Eh    ::

    * Orbital Energies and Occupations

         #    Occupation            Energy/Eh            Energy/eV
      -------------------------------------------------------------
         1        2.0000           -0.8437594             -22.9599
       ...           ...                  ...                  ...
        40        2.0000           -0.5723170             -15.5735
        41        2.0000           -0.5597322             -15.2311
        42        2.0000           -0.5568885             -15.1537
        43        2.0000           -0.5516022             -15.0099
        44        2.0000           -0.5504355             -14.9781
        45        2.0000           -0.5491898             -14.9442
        46        2.0000           -0.5485246             -14.9261
        47        2.0000           -0.5472470             -14.8913
        48        2.0000           -0.5448279             -14.8255
        49        2.0000           -0.5423549             -14.7582
        50        2.0000           -0.5413712             -14.7315
        51        2.0000           -0.5400149             -14.6946
        52        2.0000           -0.5378318             -14.6351 (HOMO)
        53                         -0.2920728              -7.9477 (LUMO)
        54                         -0.2735798              -7.4445
        55                         -0.2700605              -7.3487
        56                         -0.1959406              -5.3318
        57                         -0.1159871              -3.1562
        58                         -0.0798349              -2.1724
        59                         -0.0586746              -1.5966
        60                         -0.0477570              -1.2995
        61                         -0.0471082              -1.2819
        62                         -0.0354128              -0.9636
        63                         -0.0313282              -0.8525
       ...                                ...                  ...
       109                          0.7937512              21.5991
      -------------------------------------------------------------
                  HL-Gap            0.2457591 Eh            6.6874 eV

     #   Z          covCN         q      C6AA      α(0)
     1   6 C        3.751    -0.071    21.916     6.676
     2   6 C        3.854    -0.061    21.628     6.614
     3   6 C        3.801    -0.060    21.656     6.626
     4   6 C        3.751    -0.112    22.703     6.795
     5  15 P        3.904     0.170   152.915    22.213
     6   6 C        3.749    -0.076    22.027     6.694
     7   6 C        3.828    -0.063    21.693     6.627
     8   6 C        3.800    -0.061    21.683     6.630
     9   6 C        3.751    -0.112    22.697     6.794
    10   6 C        3.750    -0.070    21.906     6.675
    11   6 C        3.849    -0.062    21.647     6.618
    12   6 C        3.800    -0.061    21.679     6.629
    13   6 C        3.752    -0.112    22.700     6.794
    14   6 C        3.750    -0.076    22.017     6.692
    15   6 C        3.841    -0.064    21.696     6.626
    16   6 C        3.800    -0.061    21.670     6.628
    17   6 C        3.752    -0.112    22.704     6.795
    18   1 H        0.927     0.088     1.899     2.155
    19   1 H        0.927     0.097     1.814     2.106
    20   1 H        0.924     0.055     2.259     2.351
    21   1 H        0.924     0.046     2.375     2.410
    22   1 H        0.924     0.054     2.265     2.354
    23   1 H        0.924     0.043     2.403     2.424
    24   1 H        0.925     0.042     2.421     2.433
    25   1 H        0.925     0.055     2.253     2.347
    26   1 H        0.925     0.035     2.514     2.480
    27   1 H        0.927     0.092     1.856     2.130
    28   1 H        0.929     0.085     1.931     2.173
    29   1 H        0.924     0.066     2.126     2.280
    30   1 H        0.924     0.047     2.353     2.399
    31   1 H        0.924     0.054     2.269     2.355
    32   1 H        0.924     0.033     2.539     2.492
    33   1 H        0.925     0.049     2.330     2.387
    34   1 H        0.925     0.054     2.275     2.358
    35   1 H        0.925     0.031     2.566     2.505
    36   1 H        0.927     0.095     1.830     2.116
    37   1 H        0.928     0.091     1.873     2.140
    38   1 H        0.924     0.064     2.147     2.291
    39   1 H        0.924     0.047     2.364     2.404
    40   1 H        0.924     0.052     2.291     2.367
    41   1 H        0.924     0.037     2.489     2.467
    42   1 H        0.925     0.049     2.335     2.389
    43   1 H        0.925     0.053     2.284     2.363
    44   1 H        0.925     0.034     2.534     2.489
    45   1 H        0.927     0.091     1.868     2.137
    46   1 H        0.928     0.086     1.921     2.168
    47   1 H        0.924     0.066     2.127     2.281
    48   1 H        0.924     0.049     2.331     2.387
    49   1 H        0.924     0.052     2.300     2.372
    50   1 H        0.924     0.033     2.540     2.492
    51   1 H        0.925     0.049     2.326     2.385
    52   1 H        0.925     0.053     2.282     2.362
    53   1 H        0.925     0.035     2.520     2.482

Wiberg/Mayer (AO) data.
largest (>0.10) Wiberg bond orders for each atom

     #   Z sym  total        # sym  WBO       # sym  WBO       # sym  WBO
 ---------------------------------------------------------------------------
     1   6 C    3.986 --     5 P    1.007     2 C    0.985    18 H    0.933
                            19 H    0.929
     2   6 C    3.989 --     3 C    1.001     1 C    0.985    20 H    0.969
                            21 H    0.966
     3   6 C    3.991 --     4 C    1.020     2 C    1.001    23 H    0.977
                            22 H    0.974
     4   6 C    3.994 --     3 C    1.020    24 H    0.987    26 H    0.986
                            25 H    0.984
     5  15 P    4.575 --     6 C    1.013    10 C    1.010    14 C    1.007
                             1 C    1.007
     6   6 C    3.987 --     5 P    1.013     7 C    0.989    28 H    0.930
                            27 H    0.929
     7   6 C    3.986 --     8 C    1.007     6 C    0.989    29 H    0.969
                            30 H    0.965
     8   6 C    3.995 --     9 C    1.021     7 C    1.007    31 H    0.975
                            32 H    0.970
     9   6 C    3.994 --     8 C    1.021    33 H    0.986    34 H    0.985
                            35 H    0.984
    10   6 C    3.986 --     5 P    1.010    11 C    0.982    36 H    0.930
                            37 H    0.928
    11   6 C    3.988 --    12 C    1.006    10 C    0.982    38 H    0.971
                            39 H    0.963
    12   6 C    3.994 --    13 C    1.021    11 C    1.006    40 H    0.975
                            41 H    0.972
    13   6 C    3.993 --    12 C    1.021    42 H    0.986    43 H    0.985
                            44 H    0.984
    14   6 C    3.985 --     5 P    1.007    15 C    0.987    46 H    0.933
                            45 H    0.932
    15   6 C    3.986 --    16 C    1.006    14 C    0.987    47 H    0.970
                            48 H    0.964
    16   6 C    3.995 --    17 C    1.021    15 C    1.006    49 H    0.976
                            50 H    0.972
    17   6 C    3.993 --    16 C    1.021    51 H    0.986    52 H    0.985
                            53 H    0.984
    18   1 H    0.992 --     1 C    0.933
    19   1 H    0.991 --     1 C    0.929
    20   1 H    0.997 --     2 C    0.969
    21   1 H    0.998 --     2 C    0.966
    22   1 H    0.996 --     3 C    0.974
    23   1 H    0.998 --     3 C    0.977
    24   1 H    0.998 --     4 C    0.987
    25   1 H    0.997 --     4 C    0.984
    26   1 H    0.999 --     4 C    0.986
    27   1 H    0.991 --     6 C    0.929
    28   1 H    0.993 --     6 C    0.930
    29   1 H    0.995 --     7 C    0.969
    30   1 H    0.998 --     7 C    0.965
    31   1 H    0.997 --     8 C    0.975
    32   1 H    0.999 --     8 C    0.970
    33   1 H    0.997 --     9 C    0.986
    34   1 H    0.997 --     9 C    0.985
    35   1 H    0.999 --     9 C    0.984
    36   1 H    0.991 --    10 C    0.930
    37   1 H    0.992 --    10 C    0.928
    38   1 H    0.996 --    11 C    0.971
    39   1 H    0.998 --    11 C    0.963
    40   1 H    0.997 --    12 C    0.975
    41   1 H    0.999 --    12 C    0.972
    42   1 H    0.997 --    13 C    0.986
    43   1 H    0.997 --    13 C    0.985
    44   1 H    0.999 --    13 C    0.984
    45   1 H    0.992 --    14 C    0.932
    46   1 H    0.992 --    14 C    0.933
    47   1 H    0.995 --    15 C    0.970
    48   1 H    0.997 --    15 C    0.964
    49   1 H    0.997 --    16 C    0.976
    50   1 H    0.999 --    16 C    0.972
    51   1 H    0.997 --    17 C    0.986
    52   1 H    0.997 --    17 C    0.985
    53   1 H    0.999 --    17 C    0.984
 ---------------------------------------------------------------------------

molecular dipole:
                 x           y           z       tot (Debye)
 q only:        0.411      -1.940      -2.729
   full:        0.483      -2.031      -2.695       8.666

           -------------------------------------------------
          | TOTAL ENERGY              -54.771263285125 Eh   |
          | GRADIENT NORM               0.000304472447 Eh/α |
          | HOMO-LUMO GAP               6.687444812023 eV   |
           -------------------------------------------------

 * finished run on 2024/12/20 at 06:45:09.266
