   * xtb version 6.7.1 (edcfbbe) compiled by 'conda@3ef47c1a292c' on 2024-11-25

   ID    Z sym.   atoms
    1    6 C      1, 3, 5, 7-16
    2    8 O      2, 4
    3    7 N      6
    4    1 H      17-36

          program call               : xtb C0455.xyz --opt --namespace C0455 --charge +1
          :  Hamiltonian                  GFN2-xTB          :
 * total energy  :   -48.6460545 Eh     change       -0.8049597E-09 Eh
 * total energy  :   -48.6576805 Eh     change       -0.1162599E-01 Eh
 * total energy  :   -48.6610382 Eh     change       -0.3357706E-02 Eh
 * total energy  :   -48.6618384 Eh     change       -0.8001451E-03 Eh
 * total energy  :   -48.6624216 Eh     change       -0.5832303E-03 Eh
 * total energy  :   -48.6628805 Eh     change       -0.4588518E-03 Eh
 * total energy  :   -48.6634307 Eh     change       -0.5502516E-03 Eh
 * total energy  :   -48.6641405 Eh     change       -0.7097995E-03 Eh
 * total energy  :   -48.6649804 Eh     change       -0.8399097E-03 Eh
 * total energy  :   -48.6659434 Eh     change       -0.9630217E-03 Eh
 * total energy  :   -48.6899226 Eh     change       -0.1051993E-04 Eh
 * total energy  :   -48.6899360 Eh     change       -0.1335694E-04 Eh
 * total energy  :   -48.6899488 Eh     change       -0.1286092E-04 Eh
 * total energy  :   -48.6899654 Eh     change       -0.1661613E-04 Eh
 * total energy  :   -48.6899804 Eh     change       -0.1498534E-04 Eh
 * total energy  :   -48.6899852 Eh     change       -0.4729739E-05 Eh
 * total energy  :   -48.6899970 Eh     change       -0.1188663E-04 Eh
 * total energy  :   -48.6900047 Eh     change       -0.7636600E-05 Eh
 * total energy  :   -48.6900094 Eh     change       -0.4720448E-05 Eh
   *** GEOMETRY OPTIMIZATION CONVERGED AFTER 80 ITERATIONS ***

 final structure:
================
36
 xtb: 6.7.1 (edcfbbe)
C           -0.90720969568808       -0.62981330333605       -0.44555339459138
O           -0.50397994338981       -1.82316490434734        0.23679659571842
C            0.49630723071679       -2.50238785943528       -0.29865862035849
O            1.06975241893667       -2.21996394052611       -1.30991923981193
C            0.79565021855909       -3.83985543219149        0.41262647099197
N            0.91369529281580       -3.88804885116334        1.88890120472960
C            2.07448721474784       -3.05798169102806        2.37782463660444
C            2.08184103334384       -1.62097265717861        1.92745217774396
C            1.31450516025957       -0.70360333652781        2.64933765542705
C            1.27615774718661        0.63115556096195        2.30351286077467
C            2.02921866600540        1.07479616329742        1.22724026759677
C            2.83091202199254        0.18520609765535        0.54141717865380
C            2.88869039592867       -1.16717701920914        0.87702576652257
C            3.82075275315928       -2.03076781317545        0.08283810186924
C           -0.34347569976480       -3.47440157806057        2.53823924011944
C            1.17940937985897       -5.29237810008496        2.26808964914611
H           -1.90502344695630       -0.39767045094357       -0.08206906538280
H           -0.91407412992834       -0.79855971831394       -1.52308074492023
H           -0.21380922649168        0.17857401753715       -0.20969504220984
H           -0.00808413439861       -4.51876928259537        0.10904776603547
H            1.72871215959080       -4.19985528733146       -0.02798058930631
H            2.98476891415593       -3.55747252615028        2.04531574235148
H            2.04384647302958       -3.09246263951660        3.46936305415233
H            0.75946044137120       -1.03464309517040        3.51502718646598
H            0.67578144451231        1.32101585057619        2.87500137723331
H            2.00926181595073        2.11498521241320        0.94199542402749
H            3.44043226409119        0.53934750405971       -0.27545029879929
H            4.67862174602506       -1.43999580272326       -0.22792296560191
H            4.19498948849112       -2.88953234438830        0.63473781016867
H            3.32529862164622       -2.37736847399178       -0.82470398461938
H           -1.16702738494174       -4.08598105721376        2.17408303209430
H           -0.26101259797524       -3.60388363874212        3.61591040392323
H           -0.55955332435813       -2.43393167888969        2.31309206037042
H            0.34245451079558       -5.92684673968319        1.98112395092183
H            2.07854819270417       -5.66103742176594        1.77745997122156
H            1.31660397798404       -5.36710376280020        3.34557436072245

          :  Hamiltonian                  GFN2-xTB          :
         :: total energy             -48.690009399722 Eh    ::
         :: gradient norm              0.000979568589 Eh/a0 ::
         :: HOMO-LUMO gap              3.679271508515 eV    ::
         :: SCC energy               -49.377477454476 Eh    ::
         :: -> dispersion             -0.036668156857 Eh    ::
         :: repulsion energy           0.687468054755 Eh    ::

    * Orbital Energies and Occupations

         #    Occupation            Energy/Eh            Energy/eV
      -------------------------------------------------------------
         1        2.0000           -0.8929479             -24.2983
       ...           ...                  ...                  ...
        32        2.0000           -0.6100871             -16.6013
        33        2.0000           -0.6083169             -16.5531
        34        2.0000           -0.5998571             -16.3229
        35        2.0000           -0.5988422             -16.2953
        36        2.0000           -0.5922508             -16.1160
        37        2.0000           -0.5834122             -15.8755
        38        2.0000           -0.5793003             -15.7636
        39        2.0000           -0.5747504             -15.6398
        40        2.0000           -0.5669621             -15.4278
        41        2.0000           -0.5428999             -14.7731
        42        2.0000           -0.5417640             -14.7421
        43        2.0000           -0.5260327             -14.3141
        44        2.0000           -0.5150397             -14.0149 (HOMO)
        45                         -0.3798290             -10.3357 (LUMO)
        46                         -0.3530490              -9.6070
        47                         -0.3414258              -9.2907
        48                         -0.2390134              -6.5039
        49                         -0.2109159              -5.7393
        50                         -0.1711842              -4.6582
        51                         -0.1526288              -4.1532
        52                         -0.1468700              -3.9965
        53                         -0.1325977              -3.6082
        54                         -0.0570643              -1.5528
        55                         -0.0351275              -0.9559
       ...                                ...                  ...
        84                          0.5340232              14.5315
      -------------------------------------------------------------
                  HL-Gap            0.1352107 Eh            3.6793 eV

     #   Z          covCN         q      C6AA      α(0)
     1   6 C        3.654     0.015    20.628     6.521
     2   8 O        1.703    -0.247    18.098     5.744
     3   6 C        2.716     0.360    20.890     7.482
     4   8 O        0.857    -0.367    21.032     6.149
     5   6 C        3.763    -0.066    21.814     6.657
     6   7 N        3.620     0.137    18.914     6.459
     7   6 C        3.763    -0.041    21.360     6.588
     8   6 C        2.968    -0.021    28.532     8.762
     9   6 C        2.924    -0.042    29.054     8.839
    10   6 C        2.917    -0.031    28.762     8.795
    11   6 C        2.918    -0.024    28.599     8.770
    12   6 C        2.928    -0.032    28.801     8.801
    13   6 C        2.964     0.018    27.599     8.617
    14   6 C        3.759    -0.125    22.957     6.831
    15   6 C        3.717    -0.100    22.542     6.782
    16   6 C        3.734    -0.097    22.448     6.762
    17   1 H        0.925     0.092     1.858     2.132
    18   1 H        0.924     0.090     1.880     2.144
    19   1 H        0.924     0.079     1.994     2.208
    20   1 H        0.924     0.107     1.723     2.053
    21   1 H        0.924     0.114     1.661     2.015
    22   1 H        0.924     0.087     1.912     2.162
    23   1 H        0.924     0.085     1.927     2.171
    24   1 H        0.926     0.038     2.477     2.461
    25   1 H        0.926     0.054     2.268     2.355
    26   1 H        0.926     0.058     2.220     2.330
    27   1 H        0.926     0.061     2.182     2.310
    28   1 H        0.925     0.071     2.077     2.254
    29   1 H        0.925     0.039     2.463     2.454
    30   1 H        0.924     0.077     2.008     2.216
    31   1 H        0.925     0.095     1.828     2.114
    32   1 H        0.925     0.096     1.818     2.109
    33   1 H        0.925     0.121     1.603     1.980
    34   1 H        0.925     0.100     1.789     2.092
    35   1 H        0.925     0.098     1.804     2.100
    36   1 H        0.925     0.103     1.761     2.075

Wiberg/Mayer (AO) data.
largest (>0.10) Wiberg bond orders for each atom

     #   Z sym  total        # sym  WBO       # sym  WBO       # sym  WBO
 ---------------------------------------------------------------------------
     1   6 C    3.895 --    17 H    0.977    18 H    0.975    19 H    0.972
                             2 O    0.930
     2   8 O    2.335 --     3 C    1.167     1 C    0.930     4 O    0.186
     3   6 C    3.939 --     4 O    1.768     2 O    1.167     5 C    0.936
     4   8 O    2.084 --     3 C    1.768     2 O    0.186
     5   6 C    3.939 --    21 H    0.961     6 N    0.950    20 H    0.948
                             3 C    0.936
     6   7 N    3.811 --    15 C    0.956    16 C    0.956     5 C    0.950
                             7 C    0.901
     7   6 C    3.921 --     8 C    1.008    23 H    0.963    22 H    0.957
                             6 N    0.901
     8   6 C    3.973 --     9 C    1.390    13 C    1.384     7 C    1.008
                            11 C    0.102
     9   6 C    3.991 --    10 C    1.461     8 C    1.390    24 H    0.966
                            12 C    0.111
    10   6 C    3.991 --     9 C    1.461    11 C    1.415    25 H    0.969
                            13 C    0.103
    11   6 C    3.989 --    12 C    1.463    10 C    1.415    26 H    0.969
                             8 C    0.102
    12   6 C    3.989 --    11 C    1.463    13 C    1.393    27 H    0.966
                             9 C    0.111
    13   6 C    3.987 --    12 C    1.393     8 C    1.384    14 C    1.033
                            10 C    0.103
    14   6 C    3.992 --    13 C    1.033    28 H    0.974    29 H    0.973
                            30 H    0.953
    15   6 C    3.919 --    32 H    0.975    31 H    0.975    33 H    0.960
                             6 N    0.956
    16   6 C    3.926 --    35 H    0.975    34 H    0.974    36 H    0.974
                             6 N    0.956
    17   1 H    0.991 --     1 C    0.977
    18   1 H    0.992 --     1 C    0.975
    19   1 H    0.994 --     1 C    0.972
    20   1 H    0.988 --     5 C    0.948
    21   1 H    0.987 --     5 C    0.961
    22   1 H    0.992 --     7 C    0.957
    23   1 H    0.993 --     7 C    0.963
    24   1 H    0.998 --     9 C    0.966
    25   1 H    0.996 --    10 C    0.969
    26   1 H    0.996 --    11 C    0.969
    27   1 H    0.996 --    12 C    0.966
    28   1 H    0.995 --    14 C    0.974
    29   1 H    0.998 --    14 C    0.973
    30   1 H    0.994 --    14 C    0.953
    31   1 H    0.991 --    15 C    0.975
    32   1 H    0.991 --    15 C    0.975
    33   1 H    0.985 --    15 C    0.960
    34   1 H    0.989 --    16 C    0.974
    35   1 H    0.990 --    16 C    0.975
    36   1 H    0.989 --    16 C    0.974
 ---------------------------------------------------------------------------

molecular dipole:
                 x           y           z       tot (Debye)
 q only:        1.448      -6.144       3.484
   full:        1.427      -6.321       3.610      18.853

           -------------------------------------------------
          | TOTAL ENERGY              -48.690009399722 Eh   |
          | GRADIENT NORM               0.000979568589 Eh/α |
          | HOMO-LUMO GAP               3.679271508515 eV   |
           -------------------------------------------------

 * finished run on 2024/12/20 at 06:45:15.987
