   * xtb version 6.7.1 (edcfbbe) compiled by 'conda@3ef47c1a292c' on 2024-11-25

   ID    Z sym.   atoms
    1    6 C      1, 2, 4-9
    2    7 N      3
    3    1 H      10-19

          program call               : xtb C0456.xyz --opt --namespace C0456 --charge +1
          :  Hamiltonian                  GFN2-xTB          :
 * total energy  :   -24.7127613 Eh     change       -0.3092460E-09 Eh
 * total energy  :   -24.7156166 Eh     change       -0.2855303E-02 Eh
 * total energy  :   -24.7160987 Eh     change       -0.4821047E-03 Eh
 * total energy  :   -24.7161249 Eh     change       -0.2619002E-04 Eh
 * total energy  :   -24.7161310 Eh     change       -0.6119334E-05 Eh
 * total energy  :   -24.7161312 Eh     change       -0.1691925E-06 Eh
   *** GEOMETRY OPTIMIZATION CONVERGED AFTER 6 ITERATIONS ***

 final structure:
================
19
 xtb: 6.7.1 (edcfbbe)
C            1.15212412108788        0.45905449850760       -0.03930665036851
C            0.31528979113807        0.39444343201211       -1.06261989769214
N           -1.09604612308779        0.34803789753479       -0.99668859320654
C           -1.76669572841532        0.37376247930750        0.17158493850369
C           -3.13633974063835        0.32402495233127        0.21453456498736
C           -3.88636317629615        0.24469368834201       -0.96635703560454
C           -3.16258436966098        0.22200434562073       -2.16298414496273
C           -1.79084757776735        0.27413221179348       -2.14832425848990
C           -5.36279476396070        0.19741648330961       -0.93706325810760
H            0.86389744053279        0.48640231011084        0.99692592644450
H            2.21076239699935        0.49120994004330       -0.22733401495930
H            0.68707636885715        0.37179199366557       -2.07687096471426
H           -1.18570891862875        0.43451612168834        1.07737621498469
H           -3.63418491944815        0.34601575968992        1.17148561577906
H           -3.67606950958472        0.16226067692746       -3.10977401011932
H           -1.22324153692386        0.25566102293167       -3.06735264496834
H           -5.70789253547230       -0.55854184792731       -0.23298276115213
H           -5.75454032450290        1.15313154768000       -0.58534698270732
H           -5.77903089422791       -0.00622751356891       -1.91905204364667

          :  Hamiltonian                  GFN2-xTB          :
         :: total energy             -24.716131153546 Eh    ::
         :: gradient norm              0.000395108471 Eh/a0 ::
         :: HOMO-LUMO gap              3.175509226175 eV    ::
         :: SCC energy               -25.168143915254 Eh    ::
         :: -> dispersion             -0.013331765272 Eh    ::
         :: repulsion energy           0.452012761708 Eh    ::

    * Orbital Energies and Occupations

         #    Occupation            Energy/Eh            Energy/eV
      -------------------------------------------------------------
         1        2.0000           -0.8768809             -23.8611
       ...           ...                  ...                  ...
        11        2.0000           -0.7047652             -19.1776
        12        2.0000           -0.6876790             -18.7127
        13        2.0000           -0.6761510             -18.3990
        14        2.0000           -0.6709592             -18.2577
        15        2.0000           -0.6595556             -17.9474
        16        2.0000           -0.6517180             -17.7341
        17        2.0000           -0.6281244             -17.0921
        18        2.0000           -0.6201814             -16.8760
        19        2.0000           -0.6139982             -16.7077
        20        2.0000           -0.6123008             -16.6616
        21        2.0000           -0.6105641             -16.6143
        22        2.0000           -0.6038713             -16.4322
        23        2.0000           -0.5798340             -15.7781 (HOMO)
        24                         -0.4631362             -12.6026 (LUMO)
        25                         -0.4227225             -11.5029
        26                         -0.3704648             -10.0809
        27                         -0.2974431              -8.0938
        28                         -0.1572230              -4.2783
        29                         -0.0747868              -2.0351
        30                         -0.0675774              -1.8389
        31                         -0.0318582              -0.8669
        32                         -0.0245719              -0.6686
        33                         -0.0125928              -0.3427
        34                          0.0076498               0.2082
       ...                                ...                  ...
        46                          0.4717841              12.8379
      -------------------------------------------------------------
                  HL-Gap            0.1166978 Eh            3.1755 eV

     #   Z          covCN         q      C6AA      α(0)
     1   6 C        2.836    -0.071    29.748     8.938
     2   6 C        2.851     0.003    27.943     8.664
     3   7 N        2.750     0.108    19.388     6.540
     4   6 C        2.887     0.029    27.351     8.574
     5   6 C        2.920    -0.026    28.651     8.778
     6   6 C        2.968     0.074    26.345     8.419
     7   6 C        2.920    -0.025    28.627     8.774
     8   6 C        2.898     0.030    27.333     8.572
     9   6 C        3.758    -0.135    23.141     6.858
    10   1 H        0.926     0.091     1.868     2.138
    11   1 H        0.926     0.112     1.683     2.028
    12   1 H        0.926     0.094     1.843     2.123
    13   1 H        0.926     0.108     1.715     2.048
    14   1 H        0.926     0.103     1.758     2.073
    15   1 H        0.926     0.103     1.757     2.073
    16   1 H        0.926     0.106     1.734     2.059
    17   1 H        0.925     0.101     1.775     2.083
    18   1 H        0.924     0.108     1.715     2.048
    19   1 H        0.925     0.087     1.909     2.160

Wiberg/Mayer (AO) data.
largest (>0.10) Wiberg bond orders for each atom

     #   Z sym  total        # sym  WBO       # sym  WBO       # sym  WBO
 ---------------------------------------------------------------------------
     1   6 C    3.965 --     2 C    1.902    11 H    0.963    10 H    0.962
     2   6 C    3.943 --     1 C    1.902     3 N    1.034    12 H    0.953
     3   7 N    3.763 --     8 C    1.282     4 C    1.274     2 C    1.034
     4   6 C    3.958 --     5 C    1.514     3 N    1.274    13 H    0.950
     5   6 C    3.984 --     4 C    1.514     6 C    1.348    14 H    0.959
     6   6 C    3.970 --     7 C    1.357     5 C    1.348     9 C    1.069
     7   6 C    3.983 --     8 C    1.502     6 C    1.357    15 H    0.958
     8   6 C    3.958 --     7 C    1.502     3 N    1.282    16 H    0.954
     9   6 C    3.981 --     6 C    1.069    19 H    0.977    17 H    0.947
                            18 H    0.931
    10   1 H    0.992 --     1 C    0.962
    11   1 H    0.987 --     1 C    0.963
    12   1 H    0.991 --     2 C    0.953
    13   1 H    0.988 --     4 C    0.950
    14   1 H    0.989 --     5 C    0.959
    15   1 H    0.989 --     7 C    0.958
    16   1 H    0.989 --     8 C    0.954
    17   1 H    0.987 --     9 C    0.947
    18   1 H    0.985 --     9 C    0.931
    19   1 H    0.992 --     9 C    0.977
 ---------------------------------------------------------------------------

molecular dipole:
                 x           y           z       tot (Debye)
 q only:       -3.835       0.625      -1.616
   full:       -3.766       0.634      -1.619      10.542

           -------------------------------------------------
          | TOTAL ENERGY              -24.716131153546 Eh   |
          | GRADIENT NORM               0.000395108471 Eh/α |
          | HOMO-LUMO GAP               3.175509226175 eV   |
           -------------------------------------------------

 * finished run on 2024/12/20 at 06:45:16.352
