   * xtb version 6.7.1 (edcfbbe) compiled by 'conda@3ef47c1a292c' on 2024-11-25

   ID    Z sym.   atoms
    1    6 C      1-8, 10-12
    2    7 N      9
    3    1 H      13-38

          program call               : xtb C0458.xyz --opt --namespace C0458 --charge +1
          :  Hamiltonian                  GFN2-xTB          :
 * total energy  :   -39.3369359 Eh     change       -0.5801581E-10 Eh
 * total energy  :   -39.3426457 Eh     change       -0.5709795E-02 Eh
 * total energy  :   -39.3439661 Eh     change       -0.1320362E-02 Eh
 * total energy  :   -39.3440418 Eh     change       -0.7573068E-04 Eh
 * total energy  :   -39.3441325 Eh     change       -0.9064904E-04 Eh
 * total energy  :   -39.3441664 Eh     change       -0.3393694E-04 Eh
 * total energy  :   -39.3442130 Eh     change       -0.4662412E-04 Eh
 * total energy  :   -39.3442381 Eh     change       -0.2502360E-04 Eh
 * total energy  :   -39.3442657 Eh     change       -0.2760914E-04 Eh
 * total energy  :   -39.3443048 Eh     change       -0.3910932E-04 Eh
 * total energy  :   -39.3443396 Eh     change       -0.3484444E-04 Eh
 * total energy  :   -39.3443655 Eh     change       -0.2584185E-04 Eh
 * total energy  :   -39.3443936 Eh     change       -0.2816138E-04 Eh
 * total energy  :   -39.3444296 Eh     change       -0.3595747E-04 Eh
 * total energy  :   -39.3444559 Eh     change       -0.2628517E-04 Eh
 * total energy  :   -39.3444651 Eh     change       -0.9200858E-05 Eh
 * total energy  :   -39.3444705 Eh     change       -0.5422243E-05 Eh
 * total energy  :   -39.3444754 Eh     change       -0.4899666E-05 Eh
   *** GEOMETRY OPTIMIZATION CONVERGED AFTER 18 ITERATIONS ***

 final structure:
================
38
 xtb: 6.7.1 (edcfbbe)
C            1.37576067102352        0.32248682045302        0.20589792613405
C            1.08832147438551        1.43992681369865       -0.78949921363701
C            1.25696038942890        1.00822149578032       -2.24711724060156
C            0.32396584400325       -0.11799341682985       -2.69826178191118
C           -1.16928134535367        0.19032534916656       -2.56353945471350
C           -1.64526093930024        1.41751457173894       -3.34373480678184
C           -1.36090156924412        1.38402420347691       -4.84974111830969
C           -1.80895004974498        0.14987842057019       -5.63799236101951
N           -3.24943279170098        0.03682386914671       -6.04026675491064
C           -3.70873190359047        1.25768744792088       -6.72604044862790
C           -3.36178068287214       -1.10074595222560       -6.97579734415506
C           -4.12066702487585       -0.22936071270387       -4.88316255788260
H            0.64188255136176       -0.47625802567176        0.13088589684020
H            1.34642486482018        0.70985443426785        1.22099118836315
H            2.36314613636161       -0.09796426706451        0.03040386243747
H            0.08063170693478        1.82634248623544       -0.62419547956184
H            1.78211170992203        2.26211248154305       -0.60331940473958
H            1.12098082987301        1.88115874700775       -2.88999210413187
H            2.28357786144048        0.66384948173039       -2.38807994809347
H            0.56207041475773       -0.36588905310342       -3.73611316478173
H            0.53623979377881       -1.00823399899342       -2.10507627772621
H           -1.73705437785445       -0.69487246787257       -2.86388827869673
H           -1.39833102316704        0.35996999929291       -1.51155651395722
H           -2.70724001325206        1.57264372341926       -3.14294917046996
H           -1.13275664971217        2.29555422707418       -2.94947979135610
H           -1.74469578160750        2.29615299125732       -5.30634158236669
H           -0.27664084184192        1.41654087539623       -4.97155022063961
H           -1.23426542492618        0.12813984071248       -6.56645449195371
H           -1.55982826076479       -0.74550844561823       -5.06731972616938
H           -3.01510482768772        1.52632482330402       -7.52055805035304
H           -4.69171800741306        1.08990578540519       -7.16206534096759
H           -3.78294756455924        2.08532305172825       -6.02481595413923
H           -2.98028068675930       -2.00937710422179       -6.51353748063625
H           -4.40341210031118       -1.26144823019600       -7.24776833386559
H           -2.79338881653490       -0.90570994000812       -7.88324761376449
H           -3.80546065607316       -1.13754384540750       -4.37433928672320
H           -4.08158736346909        0.59703690779470       -4.17977409542950
H           -5.14999554547013       -0.35485338820204       -5.21411348070208

          :  Hamiltonian                  GFN2-xTB          :
         :: total energy             -39.344475393026 Eh    ::
         :: gradient norm              0.000721110845 Eh/a0 ::
         :: HOMO-LUMO gap              7.347464481219 eV    ::
         :: SCC energy               -39.914424220569 Eh    ::
         :: -> dispersion             -0.027911951230 Eh    ::
         :: repulsion energy           0.569948827543 Eh    ::

    * Orbital Energies and Occupations

         #    Occupation            Energy/Eh            Energy/eV
      -------------------------------------------------------------
         1        2.0000           -0.8691087             -23.6497
       ...           ...                  ...                  ...
        25        2.0000           -0.6148849             -16.7319
        26        2.0000           -0.5952928             -16.1987
        27        2.0000           -0.5945002             -16.1772
        28        2.0000           -0.5795082             -15.7692
        29        2.0000           -0.5747543             -15.6399
        30        2.0000           -0.5617549             -15.2861
        31        2.0000           -0.5566466             -15.1471
        32        2.0000           -0.5426506             -14.7663
        33        2.0000           -0.5358793             -14.5820
        34        2.0000           -0.5303291             -14.4310
        35        2.0000           -0.5095081             -13.8644
        36        2.0000           -0.5050374             -13.7428
        37        2.0000           -0.5002253             -13.6118 (HOMO)
        38                         -0.2302109              -6.2644 (LUMO)
        39                         -0.1618906              -4.4053
        40                         -0.1521906              -4.1413
        41                         -0.1439308              -3.9166
        42                         -0.0792443              -2.1563
        43                         -0.0653822              -1.7791
        44                         -0.0384042              -1.0450
        45                         -0.0277992              -0.7565
        46                         -0.0136882              -0.3725
        47                         -0.0074494              -0.2027
        48                         -0.0017232              -0.0469
       ...                                ...                  ...
        74                          0.2247798               6.1166
      -------------------------------------------------------------
                  HL-Gap            0.2700144 Eh            7.3475 eV

     #   Z          covCN         q      C6AA      α(0)
     1   6 C        3.751    -0.106    22.581     6.777
     2   6 C        3.800    -0.055    21.562     6.611
     3   6 C        3.801    -0.061    21.674     6.628
     4   6 C        3.800    -0.062    21.697     6.632
     5   6 C        3.800    -0.064    21.723     6.636
     6   6 C        3.799    -0.068    21.796     6.647
     7   6 C        3.799    -0.075    21.935     6.669
     8   6 C        3.759    -0.043    21.393     6.594
     9   7 N        3.622     0.144    18.791     6.438
    10   6 C        3.721    -0.096    22.452     6.767
    11   6 C        3.732    -0.098    22.471     6.766
    12   6 C        3.722    -0.096    22.446     6.766
    13   1 H        0.925     0.033     2.546     2.495
    14   1 H        0.925     0.041     2.441     2.443
    15   1 H        0.925     0.040     2.452     2.449
    16   1 H        0.924     0.029     2.603     2.523
    17   1 H        0.924     0.037     2.490     2.467
    18   1 H        0.924     0.025     2.652     2.547
    19   1 H        0.924     0.040     2.444     2.445
    20   1 H        0.924     0.021     2.723     2.580
    21   1 H        0.924     0.047     2.362     2.403
    22   1 H        0.924     0.017     2.778     2.607
    23   1 H        0.925     0.055     2.263     2.353
    24   1 H        0.924     0.028     2.616     2.529
    25   1 H        0.924     0.064     2.156     2.296
    26   1 H        0.925     0.053     2.277     2.360
    27   1 H        0.924     0.080     1.981     2.201
    28   1 H        0.924     0.080     1.979     2.200
    29   1 H        0.924     0.093     1.849     2.127
    30   1 H        0.925     0.099     1.797     2.096
    31   1 H        0.925     0.098     1.801     2.099
    32   1 H        0.925     0.103     1.756     2.072
    33   1 H        0.925     0.099     1.794     2.094
    34   1 H        0.925     0.100     1.787     2.091
    35   1 H        0.925     0.099     1.798     2.097
    36   1 H        0.925     0.097     1.810     2.104
    37   1 H        0.925     0.107     1.725     2.054
    38   1 H        0.925     0.095     1.827     2.113

Wiberg/Mayer (AO) data.
largest (>0.10) Wiberg bond orders for each atom

     #   Z sym  total        # sym  WBO       # sym  WBO       # sym  WBO
 ---------------------------------------------------------------------------
     1   6 C    3.996 --     2 C    1.020    15 H    0.987    14 H    0.987
                            13 H    0.986
     2   6 C    3.997 --     1 C    1.020     3 C    1.008    17 H    0.977
                            16 H    0.976
     3   6 C    3.996 --     2 C    1.008     4 C    1.007    19 H    0.976
                            18 H    0.975
     4   6 C    3.996 --     3 C    1.007     5 C    1.007    20 H    0.976
                            21 H    0.974
     5   6 C    3.995 --     6 C    1.007     4 C    1.007    22 H    0.973
                            23 H    0.971
     6   6 C    3.992 --     5 C    1.007     7 C    1.005    25 H    0.969
                            24 H    0.968
     7   6 C    3.982 --     8 C    1.005     6 C    1.005    26 H    0.969
                            27 H    0.961
     8   6 C    3.924 --     7 C    1.005    28 H    0.969    29 H    0.961
                             9 N    0.917
     9   7 N    3.815 --    10 C    0.959    12 C    0.958    11 C    0.958
                             8 C    0.917
    10   6 C    3.928 --    30 H    0.975    31 H    0.974    32 H    0.972
                             9 N    0.959
    11   6 C    3.928 --    33 H    0.975    35 H    0.975    34 H    0.974
                             9 N    0.958
    12   6 C    3.926 --    38 H    0.975    36 H    0.975    37 H    0.964
                             9 N    0.958
    13   1 H    0.999 --     1 C    0.986
    14   1 H    0.998 --     1 C    0.987
    15   1 H    0.998 --     1 C    0.987
    16   1 H    0.999 --     2 C    0.976
    17   1 H    0.999 --     2 C    0.977
    18   1 H    0.999 --     3 C    0.975
    19   1 H    0.998 --     3 C    0.976
    20   1 H    1.000 --     4 C    0.976
    21   1 H    0.998 --     4 C    0.974
    22   1 H    1.000 --     5 C    0.973
    23   1 H    0.997 --     5 C    0.971
    24   1 H    0.999 --     6 C    0.968
    25   1 H    0.996 --     6 C    0.969
    26   1 H    0.997 --     7 C    0.969
    27   1 H    0.993 --     7 C    0.961
    28   1 H    0.994 --     8 C    0.969
    29   1 H    0.991 --     8 C    0.961
    30   1 H    0.990 --    10 C    0.975
    31   1 H    0.990 --    10 C    0.974
    32   1 H    0.989 --    10 C    0.972
    33   1 H    0.990 --    11 C    0.975
    34   1 H    0.990 --    11 C    0.974
    35   1 H    0.990 --    11 C    0.975
    36   1 H    0.991 --    12 C    0.975
    37   1 H    0.989 --    12 C    0.964
    38   1 H    0.991 --    12 C    0.975
 ---------------------------------------------------------------------------

molecular dipole:
                 x           y           z       tot (Debye)
 q only:       -5.666       0.278     -10.863
   full:       -5.713       0.234     -10.964      31.430

           -------------------------------------------------
          | TOTAL ENERGY              -39.344475393026 Eh   |
          | GRADIENT NORM               0.000721110845 Eh/α |
          | HOMO-LUMO GAP               7.347464481219 eV   |
           -------------------------------------------------

 * finished run on 2024/12/20 at 06:45:17.902
