   * xtb version 6.7.1 (edcfbbe) compiled by 'conda@3ef47c1a292c' on 2024-11-25

   ID    Z sym.   atoms
    1    6 C      1-4, 6-11
    2    7 N      5
    3    1 H      12-27

          program call               : xtb C0459.xyz --opt --namespace C0459 --charge +1
          :  Hamiltonian                  GFN2-xTB          :
 * total energy  :   -32.1003534 Eh     change       -0.4097416E-09 Eh
 * total energy  :   -32.1026668 Eh     change       -0.2313352E-02 Eh
 * total energy  :   -32.1030213 Eh     change       -0.3545325E-03 Eh
 * total energy  :   -32.1030989 Eh     change       -0.7756056E-04 Eh
 * total energy  :   -32.1031832 Eh     change       -0.8430330E-04 Eh
 * total energy  :   -32.1032539 Eh     change       -0.7069142E-04 Eh
 * total energy  :   -32.1033300 Eh     change       -0.7609824E-04 Eh
 * total energy  :   -32.1034007 Eh     change       -0.7069940E-04 Eh
 * total energy  :   -32.1034285 Eh     change       -0.2787803E-04 Eh
 * total energy  :   -32.1034390 Eh     change       -0.1041698E-04 Eh
 * total energy  :   -32.1034447 Eh     change       -0.5784390E-05 Eh
 * total energy  :   -32.1034554 Eh     change       -0.1066703E-04 Eh
 * total energy  :   -32.1034595 Eh     change       -0.4102123E-05 Eh
   *** GEOMETRY OPTIMIZATION CONVERGED AFTER 13 ITERATIONS ***

 final structure:
================
27
 xtb: 6.7.1 (edcfbbe)
C            1.26493161757157       -0.19181219433851        0.16857767069653
C            0.49771745461251       -0.15629045514123       -1.16102383105398
C            0.64805582028107       -1.41494113691238       -2.02152324032102
C           -0.34545858940791       -2.52371163911272       -1.68524521909400
N            0.73897966403389       -1.18864045732936        1.08512654546230
C            1.38753393550749       -2.34206535777142        1.27198992513973
C            0.89462310414691       -3.34093585595446        2.09919405488648
C           -0.32158715988739       -3.09909000552453        2.74431599437944
C           -0.97759828495450       -1.89613460472314        2.54392930853738
C           -0.42118202130745       -0.95239858540760        1.70385150533271
C            1.62648208996070       -4.62163931553126        2.28246579059068
H            1.19412508165365        0.78782684125245        0.64728217345883
H            2.31674136494985       -0.40857107372460       -0.02385682536979
H           -0.56091695824500        0.03168433884593       -0.97443179986075
H            0.89024213632801        0.69845369194593       -1.71278828436495
H            0.48439995694593       -1.12822892253995       -3.06076133476172
H            1.66980134376550       -1.79337853931830       -1.95255066257349
H           -1.36473755588496       -2.14672339559547       -1.72928069071846
H           -0.25613198333877       -3.32485412276694       -2.41373727387354
H           -0.17825754813787       -2.95404620093539       -0.70013218460570
H            2.32135455244806       -2.47379812554500        0.74498420888969
H           -0.74133449244366       -3.84997291063735        3.39580507734832
H           -1.91389519559737       -1.68653760669726        3.03532451510671
H           -0.89647480044000       -0.00051106641246        1.52236242216995
H            1.80725630636301       -4.80494124021456        3.34015173872874
H            1.02411162509630       -5.45056507336936        1.91222465771675
H            2.57670853597993       -4.62030698654156        1.75737575815215

          :  Hamiltonian                  GFN2-xTB          :
         :: total energy             -32.103459506453 Eh    ::
         :: gradient norm              0.000610910748 Eh/a0 ::
         :: HOMO-LUMO gap              2.819556489514 eV    ::
         :: SCC energy               -32.637821242897 Eh    ::
         :: -> dispersion             -0.020972797090 Eh    ::
         :: repulsion energy           0.534361736444 Eh    ::

    * Orbital Energies and Occupations

         #    Occupation            Energy/Eh            Energy/eV
      -------------------------------------------------------------
         1        2.0000           -0.8734717             -23.7684
       ...           ...                  ...                  ...
        18        2.0000           -0.6468536             -17.6018
        19        2.0000           -0.6375520             -17.3487
        20        2.0000           -0.6296569             -17.1338
        21        2.0000           -0.6232120             -16.9585
        22        2.0000           -0.6173733             -16.7996
        23        2.0000           -0.6162203             -16.7682
        24        2.0000           -0.6114722             -16.6390
        25        2.0000           -0.6038588             -16.4318
        26        2.0000           -0.5977582             -16.2658
        27        2.0000           -0.5844862             -15.9047
        28        2.0000           -0.5712627             -15.5448
        29        2.0000           -0.5631522             -15.3242
        30        2.0000           -0.5550831             -15.1046 (HOMO)
        31                         -0.4514663             -12.2850 (LUMO)
        32                         -0.4180207             -11.3749
        33                         -0.3013718              -8.2007
        34                         -0.1677233              -4.5640
        35                         -0.0764253              -2.0796
        36                         -0.0700950              -1.9074
        37                         -0.0469658              -1.2780
        38                         -0.0384039              -1.0450
        39                         -0.0318026              -0.8654
        40                         -0.0112697              -0.3067
        41                         -0.0083779              -0.2280
       ...                                ...                  ...
        60                          0.4434890              12.0680
      -------------------------------------------------------------
                  HL-Gap            0.1036168 Eh            2.8196 eV

     #   Z          covCN         q      C6AA      α(0)
     1   6 C        3.759    -0.035    21.241     6.570
     2   6 C        3.800    -0.071    21.863     6.657
     3   6 C        3.799    -0.065    21.755     6.641
     4   6 C        3.751    -0.110    22.667     6.790
     5   7 N        2.748     0.113    19.307     6.526
     6   6 C        2.897     0.020    27.564     8.608
     7   6 C        2.961     0.048    26.912     8.509
     8   6 C        2.930    -0.003    28.100     8.693
     9   6 C        2.913    -0.014    28.358     8.732
    10   6 C        2.895     0.027    27.392     8.581
    11   6 C        3.759    -0.133    23.108     6.853
    12   1 H        0.924     0.089     1.885     2.147
    13   1 H        0.924     0.089     1.885     2.147
    14   1 H        0.924     0.060     2.193     2.316
    15   1 H        0.924     0.076     2.020     2.223
    16   1 H        0.924     0.064     2.155     2.296
    17   1 H        0.924     0.043     2.409     2.427
    18   1 H        0.925     0.045     2.378     2.412
    19   1 H        0.925     0.057     2.232     2.336
    20   1 H        0.925     0.016     2.799     2.616
    21   1 H        0.926     0.103     1.762     2.076
    22   1 H        0.926     0.101     1.779     2.085
    23   1 H        0.926     0.103     1.754     2.071
    24   1 H        0.926     0.105     1.739     2.062
    25   1 H        0.925     0.096     1.825     2.112
    26   1 H        0.925     0.097     1.811     2.105
    27   1 H        0.925     0.078     2.002     2.213

Wiberg/Mayer (AO) data.
largest (>0.10) Wiberg bond orders for each atom

     #   Z sym  total        # sym  WBO       # sym  WBO       # sym  WBO
 ---------------------------------------------------------------------------
     1   6 C    3.936 --     2 C    0.979    13 H    0.965     5 N    0.963
                            12 H    0.959
     2   6 C    3.981 --     3 C    1.007     1 C    0.979    14 H    0.971
                            15 H    0.967
     3   6 C    3.992 --     4 C    1.020     2 C    1.007    17 H    0.975
                            16 H    0.974
     4   6 C    3.994 --     3 C    1.020    18 H    0.986    20 H    0.986
                            19 H    0.985
     5   7 N    3.769 --    10 C    1.330     6 C    1.327     1 C    0.963
     6   6 C    3.958 --     7 C    1.413     5 N    1.327    21 H    0.953
     7   6 C    3.981 --     6 C    1.413     8 C    1.373    11 C    1.046
     8   6 C    3.976 --     9 C    1.443     7 C    1.373    22 H    0.961
     9   6 C    3.983 --    10 C    1.447     8 C    1.443    23 H    0.960
    10   6 C    3.960 --     9 C    1.447     5 N    1.330    24 H    0.955
    11   6 C    3.982 --     7 C    1.046    27 H    0.980    25 H    0.954
                            26 H    0.950
    12   1 H    0.992 --     1 C    0.959
    13   1 H    0.992 --     1 C    0.965
    14   1 H    0.996 --     2 C    0.971
    15   1 H    0.993 --     2 C    0.967
    16   1 H    0.996 --     3 C    0.974
    17   1 H    0.998 --     3 C    0.975
    18   1 H    0.998 --     4 C    0.986
    19   1 H    0.997 --     4 C    0.985
    20   1 H    1.000 --     4 C    0.986
    21   1 H    0.989 --     6 C    0.953
    22   1 H    0.990 --     8 C    0.961
    23   1 H    0.989 --     9 C    0.960
    24   1 H    0.988 --    10 C    0.955
    25   1 H    0.991 --    11 C    0.954
    26   1 H    0.990 --    11 C    0.950
    27   1 H    0.994 --    11 C    0.980
 ---------------------------------------------------------------------------

molecular dipole:
                 x           y           z       tot (Debye)
 q only:        1.082      -3.569       2.337
   full:        1.078      -3.488       2.409      11.117

           -------------------------------------------------
          | TOTAL ENERGY              -32.103459506453 Eh   |
          | GRADIENT NORM               0.000610910748 Eh/α |
          | HOMO-LUMO GAP               2.819556489514 eV   |
           -------------------------------------------------

 * finished run on 2024/12/20 at 06:45:18.473
