   * xtb version 6.7.1 (edcfbbe) compiled by 'conda@3ef47c1a292c' on 2024-11-25

   ID    Z sym.   atoms
    1    6 C      1-3, 5, 7-17
    2    7 N      4, 6, 18
    3    1 H      19-34

          program call               : xtb C0453.xyz --opt --namespace C0453 --charge +1
          :  Hamiltonian                  GFN2-xTB          :
 * total energy  :   -48.5921045 Eh     change       -0.1361677E-08 Eh
 * total energy  :   -48.5993920 Eh     change       -0.7287467E-02 Eh
 * total energy  :   -48.6010209 Eh     change       -0.1628946E-02 Eh
 * total energy  :   -48.6012000 Eh     change       -0.1791033E-03 Eh
 * total energy  :   -48.6016261 Eh     change       -0.4260982E-03 Eh
 * total energy  :   -48.6017853 Eh     change       -0.1592298E-03 Eh
 * total energy  :   -48.6019603 Eh     change       -0.1749297E-03 Eh
 * total energy  :   -48.6021837 Eh     change       -0.2234791E-03 Eh
 * total energy  :   -48.6023862 Eh     change       -0.2025009E-03 Eh
 * total energy  :   -48.6025752 Eh     change       -0.1889206E-03 Eh
 * total energy  :   -48.6040584 Eh     change       -0.1875987E-04 Eh
 * total energy  :   -48.6040757 Eh     change       -0.1729353E-04 Eh
 * total energy  :   -48.6040943 Eh     change       -0.1861167E-04 Eh
 * total energy  :   -48.6041154 Eh     change       -0.2108522E-04 Eh
 * total energy  :   -48.6041356 Eh     change       -0.2015352E-04 Eh
 * total energy  :   -48.6041527 Eh     change       -0.1715115E-04 Eh
 * total energy  :   -48.6041626 Eh     change       -0.9840652E-05 Eh
 * total energy  :   -48.6041683 Eh     change       -0.5758633E-05 Eh
 * total energy  :   -48.6041733 Eh     change       -0.4996838E-05 Eh
   *** GEOMETRY OPTIMIZATION CONVERGED AFTER 58 ITERATIONS ***

 final structure:
================
34
 xtb: 6.7.1 (edcfbbe)
C            0.74523386520417        0.49987357151374        0.42847213915212
C            0.47542906112580       -0.30369678623082       -0.58201040234928
C           -0.84522175883546       -0.99570429483999       -0.76742014279766
N           -1.39989053415264       -0.71458619887300       -2.07803735270400
C           -1.34430921232582        0.47243891410606       -2.67444535109698
N           -1.88767595718735        0.38677968103001       -3.88585800760109
C           -2.30703454075099       -0.89720215590553       -4.06809908967601
C           -2.00462115337938       -1.60392170721119       -2.93284011609144
C           -2.23724035498253       -3.01648069800344       -2.65064325739345
C           -2.79284493893816       -3.43397628358867       -1.44152410946524
C           -3.00898349015994       -4.78019116604795       -1.20947901579606
C           -2.67167049508106       -5.71749583323456       -2.17224290507056
C           -2.12980931768340       -5.30667316455465       -3.38011477960421
C           -1.91786823650567       -3.96326702211300       -3.62427647537737
C           -2.11857182532507        1.49440038400802       -4.78415335811936
C           -3.47707830841378        2.15592867365329       -4.48144878827454
C           -3.56135917823173        2.45159665098419       -3.07126829057266
N           -3.55987308211171        2.60842324302716       -1.94055250287826
H            0.01737610497586        0.72407443620043        1.19051210770353
H            1.71322269835442        0.95397594016766        0.54454096927499
H            1.22013795523120       -0.52965842697605       -1.33306016963565
H           -0.71595544257728       -2.07967546382670       -0.68953364289487
H           -1.55110668080039       -0.66758815237449        0.00168248508111
H           -0.92551693177316        1.35720767036523       -2.23644752346385
H           -2.79048673270411       -1.22619238940402       -4.96483550032764
H           -3.09007351433517       -2.70784297442962       -0.69992439909223
H           -3.44471046317794       -5.09676499080615       -0.27490828197236
H           -2.83673345556885       -6.76654164879301       -1.98437758861082
H           -1.87193437374578       -6.03430197327837       -4.13347333882163
H           -1.48573975033646       -3.64103869613256       -4.55942397653442
H           -1.31358479292982        2.22136654717925       -4.65323652102230
H           -2.10514237559379        1.12737155364160       -5.81221664093772
H           -3.57647114625023        3.07867263491455       -5.05637752275525
H           -4.30302164103521        1.49059012583467       -4.74726865027320

          :  Hamiltonian                  GFN2-xTB          :
         :: total energy             -48.604173328451 Eh    ::
         :: gradient norm              0.000830095763 Eh/a0 ::
         :: HOMO-LUMO gap              3.378242354659 eV    ::
         :: SCC energy               -49.481212723223 Eh    ::
         :: -> dispersion             -0.032962530443 Eh    ::
         :: repulsion energy           0.877039394772 Eh    ::

    * Orbital Energies and Occupations

         #    Occupation            Energy/Eh            Energy/eV
      -------------------------------------------------------------
         1        2.0000           -0.8852169             -24.0880
       ...           ...                  ...                  ...
        33        2.0000           -0.5998033             -16.3215
        34        2.0000           -0.5972136             -16.2510
        35        2.0000           -0.5941926             -16.1688
        36        2.0000           -0.5921296             -16.1127
        37        2.0000           -0.5918720             -16.1057
        38        2.0000           -0.5728737             -15.5887
        39        2.0000           -0.5620290             -15.2936
        40        2.0000           -0.5528382             -15.0435
        41        2.0000           -0.5461136             -14.8605
        42        2.0000           -0.5420476             -14.7499
        43        2.0000           -0.5402107             -14.6999
        44        2.0000           -0.5263791             -14.3235
        45        2.0000           -0.5238464             -14.2546 (HOMO)
        46                         -0.3996982             -10.8763 (LUMO)
        47                         -0.3795138             -10.3271
        48                         -0.3447238              -9.3804
        49                         -0.3407733              -9.2729
        50                         -0.3385391              -9.2121
        51                         -0.3316978              -9.0260
        52                         -0.3232334              -8.7956
        53                         -0.2153680              -5.8605
        54                         -0.1763012              -4.7974
        55                         -0.1309471              -3.5633
        56                         -0.0553233              -1.5054
       ...                                ...                  ...
        88                          1.0171437              27.6779
      -------------------------------------------------------------
                  HL-Gap            0.1241481 Eh            3.3782 eV

     #   Z          covCN         q      C6AA      α(0)
     1   6 C        2.837    -0.080    29.985     8.974
     2   6 C        2.887    -0.044    29.093     8.843
     3   6 C        3.747    -0.023    21.054     6.545
     4   7 N        2.870     0.049    20.381     6.705
     5   6 C        3.078     0.052    26.742     8.478
     6   7 N        2.857     0.049    20.388     6.706
     7   6 C        3.071    -0.022    28.489     8.752
     8   6 C        3.101     0.045    26.860     8.493
     9   6 C        2.973     0.001    28.010     8.681
    10   6 C        2.922    -0.032    28.797     8.800
    11   6 C        2.919    -0.020    28.512     8.756
    12   6 C        2.920    -0.015    28.386     8.737
    13   6 C        2.918    -0.018    28.468     8.750
    14   6 C        2.925    -0.029    28.732     8.790
    15   6 C        3.750    -0.013    20.873     6.516
    16   6 C        3.804    -0.065    21.747     6.639
    17   6 C        1.900     0.113    28.326     8.596
    18   7 N        0.911    -0.208    25.523     7.307
    19   1 H        0.926     0.069     2.092     2.262
    20   1 H        0.926     0.077     2.006     2.215
    21   1 H        0.925     0.054     2.265     2.353
    22   1 H        0.924     0.096     1.818     2.109
    23   1 H        0.924     0.093     1.849     2.126
    24   1 H        0.926     0.111     1.688     2.032
    25   1 H        0.926     0.095     1.832     2.117
    26   1 H        0.926     0.044     2.395     2.420
    27   1 H        0.926     0.061     2.183     2.311
    28   1 H        0.926     0.065     2.145     2.290
    29   1 H        0.926     0.062     2.171     2.304
    30   1 H        0.926     0.045     2.385     2.415
    31   1 H        0.924     0.089     1.889     2.149
    32   1 H        0.924     0.095     1.831     2.116
    33   1 H        0.924     0.109     1.709     2.044
    34   1 H        0.924     0.095     1.834     2.118

Wiberg/Mayer (AO) data.
largest (>0.10) Wiberg bond orders for each atom

     #   Z sym  total        # sym  WBO       # sym  WBO       # sym  WBO
 ---------------------------------------------------------------------------
     1   6 C    3.982 --     2 C    1.986    20 H    0.971    19 H    0.971
     2   6 C    3.982 --     1 C    1.986     3 C    1.006    21 H    0.963
     3   6 C    3.938 --     2 C    1.006     4 N    0.960    23 H    0.950
                            22 H    0.948
     4   7 N    3.703 --     5 C    1.364     8 C    1.183     3 C    0.960
     5   6 C    3.945 --     4 N    1.364     6 N    1.350    24 H    0.953
                             7 C    0.100
     6   7 N    3.698 --     5 C    1.350     7 C    1.211    15 C    0.978
     7   6 C    3.939 --     8 C    1.523     6 N    1.211    25 H    0.964
                             5 C    0.100
     8   6 C    3.947 --     7 C    1.523     4 N    1.183     9 C    1.053
     9   6 C    3.979 --    10 C    1.380    14 C    1.376     8 C    1.053
                            12 C    0.104
    10   6 C    3.990 --    11 C    1.449     9 C    1.380    26 H    0.968
                            13 C    0.106
    11   6 C    3.989 --    10 C    1.449    12 C    1.435    27 H    0.968
                            14 C    0.107
    12   6 C    3.984 --    11 C    1.435    13 C    1.431    28 H    0.968
                             9 C    0.104
    13   6 C    3.989 --    14 C    1.455    12 C    1.431    29 H    0.967
                            10 C    0.106
    14   6 C    3.990 --    13 C    1.455     9 C    1.376    30 H    0.969
                            11 C    0.107
    15   6 C    3.948 --     6 N    0.978    31 H    0.967    16 C    0.965
                            32 H    0.964
    16   6 C    3.988 --    17 C    1.051    15 C    0.965    34 H    0.943
                            33 H    0.938
    17   6 C    3.950 --    18 N    2.863    16 C    1.051
    18   7 N    3.018 --    17 C    2.863
    19   1 H    0.995 --     1 C    0.971
    20   1 H    0.993 --     1 C    0.971
    21   1 H    0.997 --     2 C    0.963
    22   1 H    0.990 --     3 C    0.948
    23   1 H    0.991 --     3 C    0.950
    24   1 H    0.987 --     5 C    0.953
    25   1 H    0.990 --     7 C    0.964
    26   1 H    0.998 --    10 C    0.968
    27   1 H    0.995 --    11 C    0.968
    28   1 H    0.995 --    12 C    0.968
    29   1 H    0.995 --    13 C    0.967
    30   1 H    0.998 --    14 C    0.969
    31   1 H    0.992 --    15 C    0.967
    32   1 H    0.990 --    15 C    0.964
    33   1 H    0.988 --    16 C    0.938
    34   1 H    0.991 --    16 C    0.943
 ---------------------------------------------------------------------------

molecular dipole:
                 x           y           z       tot (Debye)
 q only:       -3.142      -1.383      -5.895
   full:       -3.174      -1.290      -6.427      18.512

           -------------------------------------------------
          | TOTAL ENERGY              -48.604173328451 Eh   |
          | GRADIENT NORM               0.000830095763 Eh/α |
          | HOMO-LUMO GAP               3.378242354659 eV   |
           -------------------------------------------------

 * finished run on 2024/12/20 at 06:45:13.422
