   * xtb version 6.7.1 (edcfbbe) compiled by 'conda@3ef47c1a292c' on 2024-11-25

   ID    Z sym.   atoms
    1    9 F      1, 23
    2    6 C      2-8, 10, 12-22
    3    7 N      9, 11
    4    1 H      24-42

          program call               : xtb C0452.xyz --opt --namespace C0452 --charge +1
          :  Hamiltonian                  GFN2-xTB          :
 * total energy  :   -65.3227056 Eh     change       -0.1341505E-09 Eh
 * total energy  :   -65.3283548 Eh     change       -0.5649164E-02 Eh
 * total energy  :   -65.3290469 Eh     change       -0.6920682E-03 Eh
 * total energy  :   -65.3291216 Eh     change       -0.7474613E-04 Eh
 * total energy  :   -65.3291820 Eh     change       -0.6036882E-04 Eh
 * total energy  :   -65.3292138 Eh     change       -0.3184692E-04 Eh
 * total energy  :   -65.3292492 Eh     change       -0.3534335E-04 Eh
 * total energy  :   -65.3293421 Eh     change       -0.9289970E-04 Eh
 * total energy  :   -65.3294033 Eh     change       -0.6122913E-04 Eh
 * total energy  :   -65.3295208 Eh     change       -0.1175105E-03 Eh
 * total energy  :   -65.3323794 Eh     change       -0.1729733E-04 Eh
 * total energy  :   -65.3324272 Eh     change       -0.4780513E-04 Eh
 * total energy  :   -65.3324545 Eh     change       -0.2721768E-04 Eh
 * total energy  :   -65.3325042 Eh     change       -0.4978520E-04 Eh
 * total energy  :   -65.3325650 Eh     change       -0.6073406E-04 Eh
 * total energy  :   -65.3325949 Eh     change       -0.2995822E-04 Eh
 * total energy  :   -65.3326202 Eh     change       -0.2529099E-04 Eh
 * total energy  :   -65.3326310 Eh     change       -0.1079549E-04 Eh
 * total energy  :   -65.3326355 Eh     change       -0.4534378E-05 Eh
   *** GEOMETRY OPTIMIZATION CONVERGED AFTER 63 ITERATIONS ***

 final structure:
================
42
 xtb: 6.7.1 (edcfbbe)
F            2.39318737815936       -0.60809438025512        0.12741737602106
C            1.06621992914158       -0.45010088692290        0.11313415183802
C            0.31229077003175       -0.96797692549532        1.15268319942225
C           -1.06079902064011       -0.80571449529323        1.12524907270007
C           -1.67066426132797       -0.12806371176593        0.07708583856828
C           -0.89161670806991        0.38597325902323       -0.95368751371110
C            0.48088745194658        0.22659629153549       -0.94468981089772
C           -3.17094122783425        0.06584208322514        0.05731098276142
N           -3.74955296568935       -0.42454244739672       -1.17484092974528
C           -4.22100569534461        0.32508614365587       -2.16727403782491
N           -4.62160309051413       -0.46139047819919       -3.16219994074840
C           -4.40363151057473       -1.76689203537707       -2.79802453162069
C           -3.84633741222164       -1.74336723674434       -1.54334541610268
C           -3.40145085159573       -2.84762306638785       -0.66383888413867
C           -4.74075802540874       -2.90380921767257       -3.68399500530866
C           -5.24700645615636       -0.02210355734145       -4.39147943508445
C           -6.72996831282906       -0.32185423235386       -4.38749293139919
C           -7.53379753635777        0.17737948367337       -3.36828679319300
C           -8.89037605428898       -0.08349254465100       -3.35058950286128
C           -9.43518613692805       -0.84839970655535       -4.36954776989894
C           -8.65670047864844       -1.35239818830842       -5.39765349465239
C           -7.29950872265434       -1.08647094466487       -5.39795625966813
F          -10.74592828700497       -1.10741594040681       -4.35639106501772
H            0.79988595885582       -1.48480130056566        1.96311549191592
H           -1.65705155176663       -1.20136403859516        1.93360697961763
H           -1.35593039037556        0.92146554350079       -1.76921472049616
H            1.09878592809035        0.62293175981290       -1.73403134035160
H           -3.62640735158391       -0.46347663813134        0.89768091181985
H           -3.41320909798516        1.12859038381123        0.14250125288938
H           -4.26937329747672        1.39637041254643       -2.16534668836406
H           -2.32959960123652       -2.78425722576959       -0.48223043641885
H           -3.90965075657374       -2.80274429112375        0.29806466843239
H           -3.62063994934816       -3.80573602161131       -1.12211523942392
H           -5.79703667187009       -2.88277095987427       -3.94786457131566
H           -4.15965261597210       -2.85967512412900       -4.60457123020845
H           -4.52323845846557       -3.84441960441422       -3.18917193232531
H           -5.08145415139584        1.05423525906205       -4.48678601588507
H           -4.76553363930691       -0.52570577513971       -5.23275062814962
H           -7.10128687772636        0.78079295436744       -2.58315326414109
H           -9.52742619581815        0.30003883430415       -2.57022795013296
H           -9.11328142611493       -1.93875620909816       -6.17836982186464
H           -6.68524262912354       -1.46919522433910       -6.19900276503859

          :  Hamiltonian                  GFN2-xTB          :
         :: total energy             -65.332635549939 Eh    ::
         :: gradient norm              0.000714006825 Eh/a0 ::
         :: HOMO-LUMO gap              3.392219188988 eV    ::
         :: SCC energy               -66.326929860937 Eh    ::
         :: -> dispersion             -0.043769093657 Eh    ::
         :: repulsion energy           0.994294310998 Eh    ::

    * Orbital Energies and Occupations

         #    Occupation            Energy/Eh            Energy/eV
      -------------------------------------------------------------
         1        2.0000           -0.9127413             -24.8370
       ...           ...                  ...                  ...
        47        2.0000           -0.5872683             -15.9804
        48        2.0000           -0.5855776             -15.9344
        49        2.0000           -0.5785962             -15.7444
        50        2.0000           -0.5783002             -15.7364
        51        2.0000           -0.5738681             -15.6157
        52        2.0000           -0.5665799             -15.4174
        53        2.0000           -0.5480549             -14.9133
        54        2.0000           -0.5415398             -14.7360
        55        2.0000           -0.5411121             -14.7244
        56        2.0000           -0.5336164             -14.5204
        57        2.0000           -0.5333719             -14.5138
        58        2.0000           -0.5187511             -14.1159
        59        2.0000           -0.5184338             -14.1073 (HOMO)
        60                         -0.3937720             -10.7151 (LUMO)
        61                         -0.3534080              -9.6167
        62                         -0.3519948              -9.5783
        63                         -0.3512885              -9.5590
        64                         -0.3498745              -9.5206
        65                         -0.3472170              -9.4483
        66                         -0.2260058              -6.1499
        67                         -0.2224639              -6.0536
        68                         -0.1667023              -4.5362
        69                         -0.1267443              -3.4489
        70                         -0.0625330              -1.7016
       ...                                ...                  ...
       111                          0.5359913              14.5851
      -------------------------------------------------------------
                  HL-Gap            0.1246618 Eh            3.3922 eV

     #   Z          covCN         q      C6AA      α(0)
     1   9 F        0.788    -0.196    11.195     3.952
     2   6 C        2.787     0.182    24.098     8.041
     3   6 C        2.916    -0.043    29.070     8.841
     4   6 C        2.926    -0.035    28.875     8.812
     5   6 C        2.970    -0.003    28.106     8.696
     6   6 C        2.927    -0.037    28.916     8.819
     7   6 C        2.916    -0.044    29.093     8.845
     8   6 C        3.747    -0.023    21.054     6.545
     9   7 N        2.863     0.038    20.585     6.739
    10   6 C        3.059     0.042    27.010     8.523
    11   7 N        2.863     0.037    20.588     6.739
    12   6 C        3.095     0.036    27.093     8.531
    13   6 C        3.095     0.036    27.091     8.531
    14   6 C        3.754    -0.126    22.967     6.834
    15   6 C        3.754    -0.126    22.979     6.835
    16   6 C        3.747    -0.023    21.059     6.546
    17   6 C        2.970    -0.004    28.110     8.697
    18   6 C        2.927    -0.037    28.914     8.818
    19   6 C        2.916    -0.044    29.088     8.844
    20   6 C        2.787     0.182    24.094     8.040
    21   6 C        2.916    -0.043    29.073     8.842
    22   6 C        2.926    -0.035    28.883     8.813
    23   9 F        0.788    -0.196    11.192     3.952
    24   1 H        0.926     0.082     1.953     2.186
    25   1 H        0.926     0.058     2.223     2.331
    26   1 H        0.926     0.041     2.440     2.443
    27   1 H        0.926     0.078     2.000     2.211
    28   1 H        0.924     0.090     1.879     2.144
    29   1 H        0.924     0.084     1.942     2.179
    30   1 H        0.926     0.098     1.799     2.097
    31   1 H        0.925     0.085     1.931     2.173
    32   1 H        0.925     0.082     1.961     2.190
    33   1 H        0.925     0.083     1.950     2.184
    34   1 H        0.925     0.084     1.934     2.175
    35   1 H        0.925     0.083     1.953     2.185
    36   1 H        0.925     0.083     1.952     2.185
    37   1 H        0.924     0.084     1.942     2.179
    38   1 H        0.924     0.091     1.874     2.141
    39   1 H        0.926     0.041     2.434     2.440
    40   1 H        0.926     0.078     1.998     2.210
    41   1 H        0.926     0.082     1.954     2.186
    42   1 H        0.926     0.058     2.222     2.331

Wiberg/Mayer (AO) data.
largest (>0.10) Wiberg bond orders for each atom

     #   Z sym  total        # sym  WBO       # sym  WBO       # sym  WBO
 ---------------------------------------------------------------------------
     1   9 F    1.129 --     2 C    0.987
     2   6 C    3.895 --     3 C    1.390     7 C    1.385     1 F    0.987
     3   6 C    3.987 --     4 C    1.445     2 C    1.390    24 H    0.964
                             6 C    0.109
     4   6 C    3.989 --     3 C    1.445     5 C    1.412    25 H    0.966
                             7 C    0.108
     5   6 C    3.980 --     4 C    1.412     6 C    1.409     8 C    0.984
     6   6 C    3.992 --     7 C    1.452     5 C    1.409    26 H    0.969
                             3 C    0.109
     7   6 C    3.988 --     6 C    1.452     2 C    1.385    27 H    0.964
                             4 C    0.108
     8   6 C    3.943 --     5 C    0.984     9 N    0.968    29 H    0.959
                            28 H    0.956
     9   7 N    3.692 --    10 C    1.349    13 C    1.184     8 C    0.968
    10   6 C    3.944 --    11 N    1.349     9 N    1.349    30 H    0.955
    11   7 N    3.692 --    10 C    1.349    12 C    1.185    16 C    0.967
    12   6 C    3.948 --    13 C    1.509    11 N    1.185    15 C    1.043
    13   6 C    3.948 --    12 C    1.509     9 N    1.184    14 C    1.044
    14   6 C    3.984 --    13 C    1.044    33 H    0.974    32 H    0.959
                            31 H    0.957
    15   6 C    3.984 --    12 C    1.043    36 H    0.974    34 H    0.958
                            35 H    0.958
    16   6 C    3.943 --    17 C    0.983    11 N    0.967    37 H    0.959
                            38 H    0.957
    17   6 C    3.981 --    22 C    1.412    18 C    1.408    16 C    0.983
    18   6 C    3.992 --    19 C    1.453    17 C    1.408    39 H    0.968
                            21 C    0.109
    19   6 C    3.988 --    18 C    1.453    20 C    1.384    40 H    0.964
                            22 C    0.108
    20   6 C    3.895 --    21 C    1.391    19 C    1.384    23 F    0.987
    21   6 C    3.987 --    22 C    1.445    20 C    1.391    41 H    0.964
                            18 C    0.109
    22   6 C    3.989 --    21 C    1.445    17 C    1.412    42 H    0.966
                            19 C    0.108
    23   9 F    1.130 --    20 C    0.987
    24   1 H    0.993 --     3 C    0.964
    25   1 H    0.997 --     4 C    0.966
    26   1 H    0.998 --     6 C    0.969
    27   1 H    0.994 --     7 C    0.964
    28   1 H    0.991 --     8 C    0.956
    29   1 H    0.992 --     8 C    0.959
    30   1 H    0.989 --    10 C    0.955
    31   1 H    0.993 --    14 C    0.957
    32   1 H    0.993 --    14 C    0.959
    33   1 H    0.993 --    14 C    0.974
    34   1 H    0.993 --    15 C    0.958
    35   1 H    0.993 --    15 C    0.958
    36   1 H    0.993 --    15 C    0.974
    37   1 H    0.992 --    16 C    0.959
    38   1 H    0.991 --    16 C    0.957
    39   1 H    0.998 --    18 C    0.968
    40   1 H    0.993 --    19 C    0.964
    41   1 H    0.993 --    21 C    0.964
    42   1 H    0.997 --    22 C    0.966
 ---------------------------------------------------------------------------

molecular dipole:
                 x           y           z       tot (Debye)
 q only:       -7.884      -1.554      -4.102
   full:       -7.896      -1.261      -4.103      22.844

           -------------------------------------------------
          | TOTAL ENERGY              -65.332635549939 Eh   |
          | GRADIENT NORM               0.000714006825 Eh/α |
          | HOMO-LUMO GAP               3.392219188988 eV   |
           -------------------------------------------------

 * finished run on 2024/12/20 at 06:45:11.861
