   * xtb version 6.7.1 (edcfbbe) compiled by 'conda@3ef47c1a292c' on 2024-11-25

   ID    Z sym.   atoms
    1    8 O      1
    2    6 C      2-9, 11-19
    3    7 N      10
    4    1 H      20-45

          program call               : xtb C0463.xyz --opt --namespace C0463 --charge +1
          :  Hamiltonian                  GFN2-xTB          :
 * total energy  :   -56.2385497 Eh     change       -0.3761414E-08 Eh
 * total energy  :   -56.2475459 Eh     change       -0.8996174E-02 Eh
 * total energy  :   -56.2506170 Eh     change       -0.3071160E-02 Eh
 * total energy  :   -56.2511576 Eh     change       -0.5405854E-03 Eh
 * total energy  :   -56.2515113 Eh     change       -0.3537073E-03 Eh
 * total energy  :   -56.2516232 Eh     change       -0.1118521E-03 Eh
 * total energy  :   -56.2517386 Eh     change       -0.1154107E-03 Eh
 * total energy  :   -56.2518286 Eh     change       -0.9005916E-04 Eh
 * total energy  :   -56.2519196 Eh     change       -0.9090803E-04 Eh
 * total energy  :   -56.2520069 Eh     change       -0.8730896E-04 Eh
 * total energy  :   -56.2530476 Eh     change       -0.3335898E-04 Eh
 * total energy  :   -56.2530804 Eh     change       -0.3285522E-04 Eh
 * total energy  :   -56.2531161 Eh     change       -0.3568452E-04 Eh
 * total energy  :   -56.2531506 Eh     change       -0.3450852E-04 Eh
 * total energy  :   -56.2531771 Eh     change       -0.2649540E-04 Eh
 * total energy  :   -56.2531934 Eh     change       -0.1623562E-04 Eh
 * total energy  :   -56.2532025 Eh     change       -0.9163440E-05 Eh
 * total energy  :   -56.2532083 Eh     change       -0.5767533E-05 Eh
 * total energy  :   -56.2532131 Eh     change       -0.4834171E-05 Eh
   *** GEOMETRY OPTIMIZATION CONVERGED AFTER 39 ITERATIONS ***

 final structure:
================
45
 xtb: 6.7.1 (edcfbbe)
O            1.62964045408432       -1.57250192482005       -0.66768910362887
C            2.59218941071274       -0.90030012729203       -0.37096572690872
C            3.03848255301407       -0.70272466757802        1.00937651461904
C            4.20177726152187       -0.01331095349159        1.37102128908711
C            4.55048615445222        0.10066751793594        2.70207424657615
C            3.75274894963056       -0.46022546957473        3.68989341269179
C            2.59571561106252       -1.14152691860046        3.34441098163885
C            2.24212855024180       -1.26371210409023        2.01654056796132
C            3.43929348670458       -0.20988921486189       -1.45892271341114
N            2.93518394004134       -0.36324423618472       -2.84557294372884
C            1.52536467668430        0.12914675001949       -3.03170038681081
C            1.05677656981253        1.50744552708540       -2.52250077240377
C            0.76632638826287        1.58766793735855       -1.01951758386554
C           -0.04261703343246        2.85202491831409       -0.72939819745902
C            0.72189389359884        4.09188969159054       -1.18242274978859
C            1.06557848201004        3.99933101628672       -2.66553644702328
C            1.86891504787004        2.72983207659993       -2.95623161100568
C            3.86441789907980        0.33753127098074       -3.75432587815241
C            2.95304922695075       -1.79610568896575       -3.22059501160440
H            4.84759539837031        0.42848585299368        0.62808561510887
H            5.45175257234725        0.62771100325891        2.97433759993763
H            4.03665265514601       -0.36633280737732        4.72654653708453
H            1.97389028140952       -1.57829690266090        4.10981953896064
H            1.34702143416058       -1.79317716838678        1.72771841321609
H            3.50805867625280        0.85415287912205       -1.23201083420975
H            4.44446488266295       -0.63876158098584       -1.41350724726850
H            1.34923591776114        0.09429629355499       -4.10899918752331
H            0.87767760142331       -0.60966377045910       -2.55541455140698
H            0.07871969151155        1.60292786176890       -3.01292646599903
H            0.20107060352129        0.71126508913145       -0.69950323765617
H            1.68329177812789        1.63188467147233       -0.42954134258815
H           -0.25095270815172        2.91340572396113        0.33901874712764
H           -0.99874963696412        2.80114371940828       -1.25280812759515
H            1.64083795925716        4.18749604854947       -0.59911815761036
H            0.12118618595832        4.98260168888042       -1.00041839479672
H            1.64386377787420        4.87280797758746       -2.96889914572401
H            0.14614535782685        3.98831213194451       -3.25321960197537
H            2.80775461592284        2.79590526744577       -2.39960052968239
H            2.08905347603514        2.68579095439715       -4.02486027995744
H            4.85517685008080       -0.11071834601447       -3.69166755511657
H            3.51370115478234        0.25337532330534       -4.78111672858113
H            3.94119421226391        1.38951296916094       -3.49772011291935
H            3.96524895183303       -2.18899571068327       -3.14169423449022
H            2.30071377924957       -2.36474656378291       -2.56075594779770
H            2.60948300899756       -1.91579800626327       -4.24584265531561

          :  Hamiltonian                  GFN2-xTB          :
         :: total energy             -56.253213137167 Eh    ::
         :: gradient norm              0.000286521734 Eh/a0 ::
         :: HOMO-LUMO gap              2.951202903627 eV    ::
         :: SCC energy               -57.096654624571 Eh    ::
         :: -> dispersion             -0.043107430041 Eh    ::
         :: repulsion energy           0.843441487404 Eh    ::

    * Orbital Energies and Occupations

         #    Occupation            Energy/Eh            Energy/eV
      -------------------------------------------------------------
         1        2.0000           -0.8565477             -23.3079
       ...           ...                  ...                  ...
        40        2.0000           -0.5801580             -15.7869
        41        2.0000           -0.5791442             -15.7593
        42        2.0000           -0.5748056             -15.6413
        43        2.0000           -0.5556459             -15.1199
        44        2.0000           -0.5549174             -15.1001
        45        2.0000           -0.5479929             -14.9116
        46        2.0000           -0.5392462             -14.6736
        47        2.0000           -0.5309198             -14.4471
        48        2.0000           -0.5303027             -14.4303
        49        2.0000           -0.5265523             -14.3282
        50        2.0000           -0.5262541             -14.3201
        51        2.0000           -0.5256201             -14.3029
        52        2.0000           -0.5212423             -14.1837 (HOMO)
        53                         -0.4127876             -11.2325 (LUMO)
        54                         -0.3430851              -9.3358
        55                         -0.3165129              -8.6128
        56                         -0.2266805              -6.1683
        57                         -0.2063129              -5.6141
        58                         -0.1681926              -4.5768
        59                         -0.1438999              -3.9157
        60                         -0.1381668              -3.7597
        61                         -0.0918828              -2.5003
        62                         -0.0663622              -1.8058
        63                         -0.0554548              -1.5090
       ...                                ...                  ...
       102                          0.5448668              14.8266
      -------------------------------------------------------------
                  HL-Gap            0.1084547 Eh            2.9512 eV

     #   Z          covCN         q      C6AA      α(0)
     1   8 O        0.857    -0.364    20.981     6.141
     2   6 C        2.820     0.230    23.181     7.889
     3   6 C        2.970    -0.021    28.527     8.761
     4   6 C        2.918    -0.029    28.727     8.789
     5   6 C        2.917    -0.020    28.498     8.754
     6   6 C        2.920    -0.007    28.186     8.706
     7   6 C        2.916    -0.017    28.443     8.746
     8   6 C        2.928    -0.009    28.252     8.717
     9   6 C        3.763    -0.057    21.639     6.631
    10   7 N        3.620     0.139    18.876     6.453
    11   6 C        3.753    -0.049    21.514     6.614
    12   6 C        3.854    -0.029    21.052     6.526
    13   6 C        3.806    -0.063    21.700     6.631
    14   6 C        3.806    -0.062    21.688     6.630
    15   6 C        3.805    -0.062    21.688     6.630
    16   6 C        3.806    -0.061    21.676     6.628
    17   6 C        3.805    -0.062    21.682     6.629
    18   6 C        3.726    -0.096    22.439     6.763
    19   6 C        3.729    -0.097    22.462     6.766
    20   1 H        0.926     0.036     2.498     2.472
    21   1 H        0.926     0.060     2.193     2.316
    22   1 H        0.926     0.068     2.112     2.272
    23   1 H        0.926     0.067     2.123     2.279
    24   1 H        0.926     0.076     2.025     2.225
    25   1 H        0.925     0.101     1.779     2.086
    26   1 H        0.924     0.093     1.854     2.129
    27   1 H        0.924     0.075     2.031     2.229
    28   1 H        0.924     0.109     1.707     2.043
    29   1 H        0.923     0.072     2.060     2.245
    30   1 H        0.924     0.041     2.430     2.438
    31   1 H        0.924     0.026     2.650     2.546
    32   1 H        0.924     0.045     2.384     2.415
    33   1 H        0.924     0.044     2.394     2.420
    34   1 H        0.924     0.035     2.511     2.478
    35   1 H        0.925     0.048     2.344     2.394
    36   1 H        0.924     0.046     2.376     2.411
    37   1 H        0.924     0.044     2.393     2.419
    38   1 H        0.924     0.026     2.649     2.545
    39   1 H        0.924     0.035     2.522     2.483
    40   1 H        0.925     0.090     1.879     2.144
    41   1 H        0.925     0.096     1.824     2.112
    42   1 H        0.925     0.102     1.771     2.081
    43   1 H        0.925     0.088     1.896     2.153
    44   1 H        0.925     0.122     1.597     1.976
    45   1 H        0.925     0.093     1.849     2.126

Wiberg/Mayer (AO) data.
largest (>0.10) Wiberg bond orders for each atom

     #   Z sym  total        # sym  WBO       # sym  WBO       # sym  WBO
 ---------------------------------------------------------------------------
     1   8 O    2.080 --     2 C    1.792
     2   6 C    3.934 --     1 O    1.792     3 C    1.076     9 C    0.955
     3   6 C    3.984 --     4 C    1.353     8 C    1.352     2 C    1.076
     4   6 C    3.992 --     5 C    1.474     3 C    1.353    20 H    0.967
                             7 C    0.102
     5   6 C    3.990 --     4 C    1.474     6 C    1.416    21 H    0.968
     6   6 C    3.985 --     7 C    1.428     5 C    1.416    22 H    0.968
     7   6 C    3.989 --     8 C    1.463     6 C    1.428    23 H    0.967
                             4 C    0.102
     8   6 C    3.984 --     7 C    1.463     3 C    1.352    24 H    0.964
     9   6 C    3.940 --     2 C    0.955    26 H    0.950    10 N    0.948
                            25 H    0.947
    10   7 N    3.812 --    18 C    0.960    19 C    0.954     9 C    0.948
                            11 C    0.913
    11   6 C    3.916 --    12 C    0.990    27 H    0.969    28 H    0.957
                            10 N    0.913
    12   6 C    3.982 --    13 C    0.997    17 C    0.997    11 C    0.990
                            29 H    0.949
    13   6 C    3.996 --    14 C    1.005    12 C    0.997    30 H    0.975
                            31 H    0.971
    14   6 C    3.995 --    15 C    1.010    13 C    1.005    33 H    0.976
                            32 H    0.976
    15   6 C    3.996 --    16 C    1.010    14 C    1.010    34 H    0.977
                            35 H    0.975
    16   6 C    3.994 --    15 C    1.010    17 C    1.003    37 H    0.976
                            36 H    0.976
    17   6 C    3.997 --    16 C    1.003    12 C    0.997    39 H    0.975
                            38 H    0.970
    18   6 C    3.931 --    40 H    0.976    41 H    0.974    42 H    0.967
                            10 N    0.960
    19   6 C    3.921 --    45 H    0.976    43 H    0.976    44 H    0.963
                            10 N    0.954
    20   1 H    0.999 --     4 C    0.967
    21   1 H    0.996 --     5 C    0.968
    22   1 H    0.995 --     6 C    0.968
    23   1 H    0.995 --     7 C    0.967
    24   1 H    0.994 --     8 C    0.964
    25   1 H    0.990 --     9 C    0.947
    26   1 H    0.991 --     9 C    0.950
    27   1 H    0.994 --    11 C    0.969
    28   1 H    0.988 --    11 C    0.957
    29   1 H    0.994 --    12 C    0.949
    30   1 H    0.998 --    13 C    0.975
    31   1 H    0.999 --    13 C    0.971
    32   1 H    0.998 --    14 C    0.976
    33   1 H    0.998 --    14 C    0.976
    34   1 H    0.999 --    15 C    0.977
    35   1 H    0.997 --    15 C    0.975
    36   1 H    0.998 --    16 C    0.976
    37   1 H    0.998 --    16 C    0.976
    38   1 H    0.999 --    17 C    0.970
    39   1 H    0.999 --    17 C    0.975
    40   1 H    0.992 --    18 C    0.976
    41   1 H    0.990 --    18 C    0.974
    42   1 H    0.990 --    18 C    0.967
    43   1 H    0.992 --    19 C    0.976
    44   1 H    0.985 --    19 C    0.963
    45   1 H    0.991 --    19 C    0.976
 ---------------------------------------------------------------------------

molecular dipole:
                 x           y           z       tot (Debye)
 q only:        5.908       0.316      -3.475
   full:        6.180       0.344      -3.562      18.151

           -------------------------------------------------
          | TOTAL ENERGY              -56.253213137167 Eh   |
          | GRADIENT NORM               0.000286521734 Eh/α |
          | HOMO-LUMO GAP               2.951202903627 eV   |
           -------------------------------------------------

 * finished run on 2024/12/20 at 06:45:32.407
