   * xtb version 6.7.1 (edcfbbe) compiled by 'conda@3ef47c1a292c' on 2024-11-25

   ID    Z sym.   atoms
    1    7 N      1, 6, 8, 20
    2    6 C      2-5, 7, 9-19
    3    1 H      21-37

          program call               : xtb C0468.xyz --opt --namespace C0468 --charge +1
          :  Hamiltonian                  GFN2-xTB          :
 * total energy  :   -54.0948309 Eh     change       -0.1562825E-08 Eh
 * total energy  :   -54.1603744 Eh     change       -0.6554349E-01 Eh
 * total energy  :   -54.1683289 Eh     change       -0.7954506E-02 Eh
 * total energy  :   -54.1706865 Eh     change       -0.2357632E-02 Eh
 * total energy  :   -54.1717365 Eh     change       -0.1049987E-02 Eh
 * total energy  :   -54.1722803 Eh     change       -0.5437944E-03 Eh
 * total energy  :   -54.1728708 Eh     change       -0.5904530E-03 Eh
 * total energy  :   -54.1733328 Eh     change       -0.4620541E-03 Eh
 * total energy  :   -54.1739565 Eh     change       -0.6236591E-03 Eh
 * total energy  :   -54.1743640 Eh     change       -0.4074917E-03 Eh
 * total energy  :   -54.1842566 Eh     change       -0.2258390E-03 Eh
 * total energy  :   -54.1843862 Eh     change       -0.1295392E-03 Eh
 * total energy  :   -54.1844192 Eh     change       -0.3308053E-04 Eh
 * total energy  :   -54.1845093 Eh     change       -0.9002663E-04 Eh
 * total energy  :   -54.1845404 Eh     change       -0.3110458E-04 Eh
 * total energy  :   -54.1845690 Eh     change       -0.2861782E-04 Eh
 * total energy  :   -54.1845823 Eh     change       -0.1332724E-04 Eh
 * total energy  :   -54.1845887 Eh     change       -0.6358942E-05 Eh
 * total energy  :   -54.1845925 Eh     change       -0.3810438E-05 Eh
   *** GEOMETRY OPTIMIZATION CONVERGED AFTER 85 ITERATIONS ***

 final structure:
================
37
 xtb: 6.7.1 (edcfbbe)
N            3.32130724573084        2.29993345285760        0.56982141081565
C            3.25253144062699        1.28070730728399        0.05440251639005
C            3.19637258092169        0.02659683393809       -0.64817430824154
C            4.33985154023309       -0.11437315939623       -1.66339679229641
C            4.32195459485626        0.94928553667431       -2.76870356002917
N            4.55259719566256        2.27912178161044       -2.24432851374631
C            5.59903972966104        2.63013167540086       -1.49976349245563
N            5.44776099763320        3.88357443496369       -1.08723843589490
C            4.28089130269360        4.35914539770076       -1.60421077875275
C            3.70792953525011        3.35814700588123       -2.33785453792618
C            2.46519978616911        3.37601927111069       -3.11851153694730
C            1.33598010121155        2.69139283806485       -2.67822944518672
C            0.17099160363106        2.72945154706632       -3.42337189143972
C            0.12571307502480        3.44647797422530       -4.60763537006063
C            1.24488336936462        4.13713717166441       -5.04314866115819
C            2.41246103012462        4.10719031140169       -4.30219313128218
C            6.28397490629855        4.54696240248280       -0.11367740764521
C            5.97820961980263        4.00793442819266        1.29656235264738
C            6.25726464044280        2.59471388862361        1.35499215224541
N            6.47254974132924        1.47363547703547        1.30926561167227
H            3.27017915959676       -0.77505982372493        0.09195497387765
H            2.22560376009071       -0.05968369126270       -1.14528122747998
H            5.29254383406270       -0.08692769964384       -1.13157620225472
H            4.25303501443099       -1.09025688607999       -2.14221453329798
H            5.10182699879072        0.71777495664004       -3.50040813333808
H            3.35677274310556        0.96086992347691       -3.28098727214649
H            6.43251576970014        1.99914197612168       -1.26198766268681
H            3.92234897071077        5.34995557019488       -1.41542671207977
H            1.36327333011641        2.16529609994055       -1.73614298133874
H           -0.70397585843429        2.20349849764351       -3.07453353406961
H           -0.78417618591398        3.47406245225587       -5.18603748262862
H            1.20888501977593        4.70402239514080       -5.96000745820294
H            3.28632310586299        4.64451007768339       -4.63842660717488
H            7.33404421256401        4.37044983824350       -0.36309329991957
H            6.08227546911755        5.61872424416628       -0.15243707258754
H            6.59227306270810        4.52972152308397        2.03303813616714
H            4.92296755703315        4.15360496932759        1.54414088846019

          :  Hamiltonian                  GFN2-xTB          :
         :: total energy             -54.184592491567 Eh    ::
         :: gradient norm              0.000704725972 Eh/a0 ::
         :: HOMO-LUMO gap              3.424112736496 eV    ::
         :: SCC energy               -55.157632871509 Eh    ::
         :: -> dispersion             -0.041773668931 Eh    ::
         :: repulsion energy           0.973040379943 Eh    ::

    * Orbital Energies and Occupations

         #    Occupation            Energy/Eh            Energy/eV
      -------------------------------------------------------------
         1        2.0000           -0.8823676             -24.0104
       ...           ...                  ...                  ...
        38        2.0000           -0.5981058             -16.2753
        39        2.0000           -0.5958129             -16.2129
        40        2.0000           -0.5907220             -16.0744
        41        2.0000           -0.5847757             -15.9126
        42        2.0000           -0.5811789             -15.8147
        43        2.0000           -0.5757500             -15.6670
        44        2.0000           -0.5674710             -15.4417
        45        2.0000           -0.5510496             -14.9948
        46        2.0000           -0.5479961             -14.9117
        47        2.0000           -0.5453441             -14.8396
        48        2.0000           -0.5390795             -14.6691
        49        2.0000           -0.5261328             -14.3168
        50        2.0000           -0.5257619             -14.3067 (HOMO)
        51                         -0.3999280             -10.8826 (LUMO)
        52                         -0.3648484              -9.9280
        53                         -0.3438461              -9.3565
        54                         -0.3418510              -9.3022
        55                         -0.3342947              -9.0966
        56                         -0.3309470              -9.0055
        57                         -0.3283581              -8.9351
        58                         -0.3212660              -8.7421
        59                         -0.2190058              -5.9595
        60                         -0.1757625              -4.7827
        61                         -0.1352446              -3.6802
       ...                                ...                  ...
        97                          1.0215152              27.7968
      -------------------------------------------------------------
                  HL-Gap            0.1258338 Eh            3.4241 eV

     #   Z          covCN         q      C6AA      α(0)
     1   7 N        0.911    -0.264    26.834     7.492
     2   6 C        1.897     0.123    28.088     8.559
     3   6 C        3.803    -0.062    21.695     6.631
     4   6 C        3.806    -0.065    21.747     6.639
     5   6 C        3.741    -0.021    21.029     6.543
     6   7 N        2.870     0.042    20.498     6.724
     7   6 C        3.082     0.052    26.756     8.480
     8   7 N        2.861     0.060    20.198     6.675
     9   6 C        3.075    -0.014    28.290     8.721
    10   6 C        3.104     0.048    26.792     8.481
    11   6 C        2.973    -0.000    28.029     8.684
    12   6 C        2.923    -0.031    28.782     8.798
    13   6 C        2.919    -0.021    28.536     8.760
    14   6 C        2.920    -0.017    28.435     8.745
    15   6 C        2.919    -0.019    28.480     8.751
    16   6 C        2.924    -0.030    28.741     8.792
    17   6 C        3.750    -0.014    20.887     6.518
    18   6 C        3.805    -0.069    21.817     6.650
    19   6 C        1.899     0.121    28.146     8.568
    20   7 N        0.911    -0.223    25.863     7.355
    21   1 H        0.924     0.101     1.775     2.083
    22   1 H        0.924     0.085     1.925     2.170
    23   1 H        0.924     0.070     2.086     2.259
    24   1 H        0.924     0.082     1.962     2.190
    25   1 H        0.924     0.085     1.924     2.169
    26   1 H        0.924     0.091     1.872     2.140
    27   1 H        0.926     0.111     1.685     2.030
    28   1 H        0.926     0.102     1.770     2.080
    29   1 H        0.926     0.040     2.455     2.450
    30   1 H        0.926     0.059     2.210     2.325
    31   1 H        0.926     0.064     2.156     2.296
    32   1 H        0.926     0.062     2.171     2.304
    33   1 H        0.926     0.044     2.390     2.418
    34   1 H        0.924     0.089     1.889     2.149
    35   1 H        0.924     0.097     1.816     2.107
    36   1 H        0.924     0.109     1.709     2.044
    37   1 H        0.924     0.115     1.656     2.012

Wiberg/Mayer (AO) data.
largest (>0.10) Wiberg bond orders for each atom

     #   Z sym  total        # sym  WBO       # sym  WBO       # sym  WBO
 ---------------------------------------------------------------------------
     1   7 N    2.999 --     2 C    2.832
     2   6 C    3.942 --     1 N    2.832     3 C    1.062
     3   6 C    3.993 --     2 C    1.062     4 C    0.980    22 H    0.939
                            21 H    0.934
     4   6 C    3.986 --     5 C    0.995     3 C    0.980    23 H    0.972
                            24 H    0.967
     5   6 C    3.944 --     4 C    0.995     6 N    0.970    26 H    0.963
                            25 H    0.958
     6   7 N    3.696 --     7 C    1.353    10 C    1.185     5 C    0.970
     7   6 C    3.947 --     8 N    1.362     6 N    1.353    27 H    0.951
     8   7 N    3.707 --     7 C    1.362     9 C    1.213    17 C    0.975
     9   6 C    3.941 --    10 C    1.545     8 N    1.213    28 H    0.962
    10   6 C    3.947 --     9 C    1.545     6 N    1.185    11 C    1.020
    11   6 C    3.978 --    12 C    1.392    16 C    1.392    10 C    1.020
                            14 C    0.109
    12   6 C    3.990 --    13 C    1.445    11 C    1.392    29 H    0.967
                            15 C    0.110
    13   6 C    3.990 --    12 C    1.445    14 C    1.438    30 H    0.968
                            16 C    0.110
    14   6 C    3.987 --    13 C    1.438    15 C    1.437    31 H    0.968
                            11 C    0.109
    15   6 C    3.989 --    16 C    1.446    14 C    1.437    32 H    0.967
                            12 C    0.110
    16   6 C    3.990 --    15 C    1.446    11 C    1.392    33 H    0.970
                            13 C    0.110
    17   6 C    3.946 --     8 N    0.975    18 C    0.966    35 H    0.965
                            34 H    0.964
    18   6 C    3.985 --    19 C    1.054    17 C    0.966    36 H    0.936
                            37 H    0.936
    19   6 C    3.947 --    20 N    2.853    18 C    1.054
    20   7 N    3.012 --    19 C    2.853
    21   1 H    0.990 --     3 C    0.934
    22   1 H    0.993 --     3 C    0.939
    23   1 H    0.995 --     4 C    0.972
    24   1 H    0.993 --     4 C    0.967
    25   1 H    0.992 --     5 C    0.958
    26   1 H    0.991 --     5 C    0.963
    27   1 H    0.987 --     7 C    0.951
    28   1 H    0.989 --     9 C    0.962
    29   1 H    0.998 --    12 C    0.967
    30   1 H    0.995 --    13 C    0.968
    31   1 H    0.995 --    14 C    0.968
    32   1 H    0.995 --    15 C    0.967
    33   1 H    0.998 --    16 C    0.970
    34   1 H    0.992 --    17 C    0.964
    35   1 H    0.990 --    17 C    0.965
    36   1 H    0.988 --    18 C    0.936
    37   1 H    0.987 --    18 C    0.936
 ---------------------------------------------------------------------------

molecular dipole:
                 x           y           z       tot (Debye)
 q only:        8.207       5.511      -3.877
   full:        8.249       5.567      -3.932      27.198

           -------------------------------------------------
          | TOTAL ENERGY              -54.184592491567 Eh   |
          | GRADIENT NORM               0.000704725972 Eh/α |
          | HOMO-LUMO GAP               3.424112736496 eV   |
           -------------------------------------------------

 * finished run on 2024/12/20 at 06:45:54.760
