   * xtb version 6.7.1 (edcfbbe) compiled by 'conda@3ef47c1a292c' on 2024-11-25

   ID    Z sym.   atoms
    1    6 C      1-12, 14, 16, 17, 19, 20, 22-33
    2    8 O      13, 21
    3    7 N      15, 18
    4    1 H      34-90

          program call               : xtb C0466.xyz --opt --namespace C0466 --charge +1
          :  Hamiltonian                  GFN2-xTB          :
 * total energy  :  -104.7925532 Eh     change       -0.3196874E-09 Eh
 * total energy  :  -104.8003517 Eh     change       -0.7798533E-02 Eh
 * total energy  :  -104.8021884 Eh     change       -0.1836659E-02 Eh
 * total energy  :  -104.8025395 Eh     change       -0.3511891E-03 Eh
 * total energy  :  -104.8028003 Eh     change       -0.2607159E-03 Eh
 * total energy  :  -104.8029006 Eh     change       -0.1003865E-03 Eh
 * total energy  :  -104.8030231 Eh     change       -0.1224120E-03 Eh
 * total energy  :  -104.8031482 Eh     change       -0.1251932E-03 Eh
 * total energy  :  -104.8032765 Eh     change       -0.1282955E-03 Eh
 * total energy  :  -104.8033862 Eh     change       -0.1096316E-03 Eh
 * total energy  :  -104.8093553 Eh     change       -0.9829099E-05 Eh
 * total energy  :  -104.8093658 Eh     change       -0.1057048E-04 Eh
 * total energy  :  -104.8093745 Eh     change       -0.8701429E-05 Eh
 * total energy  :  -104.8093813 Eh     change       -0.6733451E-05 Eh
 * total energy  :  -104.8093870 Eh     change       -0.5741686E-05 Eh
 * total energy  :  -104.8093929 Eh     change       -0.5841254E-05 Eh
 * total energy  :  -104.8093995 Eh     change       -0.6612709E-05 Eh
 * total energy  :  -104.8094054 Eh     change       -0.5919122E-05 Eh
 * total energy  :  -104.8094102 Eh     change       -0.4765669E-05 Eh
   *** GEOMETRY OPTIMIZATION CONVERGED AFTER 144 ITERATIONS ***

 final structure:
================
90
 xtb: 6.7.1 (edcfbbe)
C            2.66813624897569        1.77969200779626       -0.79922383583686
C            2.31161041154860        1.60694952374140       -2.27085437157644
C            2.46971159328295        0.16844075595931       -2.76583888962613
C            1.57382440415920       -0.85741218702166       -2.06832124258280
C            0.07342908223728       -0.57099499180655       -2.15554188304590
C           -0.48153766672053       -0.46631862828289       -3.57736200102540
C           -0.30106782649183       -1.72000483674296       -4.43576251610480
C           -0.94143340825815       -2.98887383362591       -3.86936553442341
C           -2.44440784706843       -2.88849880310229       -3.59873114771037
C           -3.29318875462988       -2.50776316261037       -4.81530856913772
C           -3.19536380508214       -3.47240482122938       -6.00324529351324
C           -3.65754587407883       -4.91182854793950       -5.74752756434757
O           -4.97072362321030       -5.20624487315977       -6.23269335954754
C           -6.02973175974930       -4.59358077850982       -5.60500919670492
N           -6.29821697408624       -5.23444411479559       -4.30969984158538
C           -6.95202895348797       -6.41973638462675       -4.13879263115938
C           -6.83234320262322       -6.76319009490069       -2.82766789380537
N           -6.10238307551749       -5.78473913152406       -2.21982513166719
C           -5.78667069321393       -4.87457742921104       -3.13581948520422
C           -5.67518634556960       -5.72435760430846       -0.80713668975978
O           -4.39008814793545       -5.25952797052491       -0.71871039989043
C           -3.33618657119431       -6.20344988618887       -0.96909913689882
C           -2.84394311856862       -6.92753862628756        0.28391076182217
C           -3.76895616984645       -8.00483853352445        0.85822026098308
C           -4.16519889694488       -9.11766294014348       -0.11617340600582
C           -2.98972368080331       -9.88562354027282       -0.72502921460636
C           -2.09520381780621      -10.60159335908264        0.28840650053520
C           -2.81032030905479      -11.62949972695226        1.16776577771634
C           -3.54333396720742      -12.73547746769357        0.40549482891735
C           -2.66616223595836      -13.56192076822020       -0.53699231681184
C           -1.50034460486213      -14.28882515897315        0.13627092637872
C           -1.90306368525812      -15.28184944733021        1.22749508984757
C           -2.77301707780300      -16.42227554160210        0.71220589244397
H            1.96901483100814        1.24721845653507       -0.15918399470304
H            2.63983098295676        2.83213867181711       -0.52673960091380
H            3.66984370989135        1.40324126135131       -0.60402914705092
H            1.28935503245422        1.94989556288185       -2.44048642188659
H            2.96889415365046        2.24276577161146       -2.86854686116496
H            2.27877248270285        0.14558463828317       -3.84093087652035
H            3.50832362653208       -0.13738457959791       -2.61706939998319
H            1.78148165633445       -1.84009804477448       -2.49818474732948
H            1.84742723223753       -0.90893153222575       -1.01280429295064
H           -0.45741886299828       -1.35763498769226       -1.61327560158156
H           -0.14037798362021        0.36700723690428       -1.64024522240357
H           -1.54361672441071       -0.21635035131005       -3.51408742939550
H            0.00757248823255        0.36393176369046       -4.08885358462120
H           -0.70739036180797       -1.51817860858103       -5.42939736235876
H            0.76483624619726       -1.91291085140166       -4.56440467539838
H           -0.75215334252731       -3.81253805387203       -4.56180870596605
H           -0.44950692987719       -3.24499156226945       -2.92936225258049
H           -2.77680449776628       -3.84906675274222       -3.19123689445879
H           -2.61469808745309       -2.13992068460346       -2.82289016088874
H           -4.33333609012364       -2.39385324993654       -4.49310984722125
H           -2.97191074812706       -1.52699346467697       -5.16674690128252
H           -3.77649347371582       -3.07677943259425       -6.83916759331011
H           -2.15659578563904       -3.50253226814730       -6.32872085188423
H           -3.03560274605667       -5.61090302430371       -6.30795989607172
H           -3.58590060095505       -5.17076425127898       -4.68338507920325
H           -5.87305554424409       -3.52345271973616       -5.42313238270219
H           -6.90661605824270       -4.74233583640518       -6.24233246561612
H           -7.43668282887689       -6.92552880240310       -4.94878052672810
H           -7.21001438828627       -7.61484319193031       -2.29928271252246
H           -5.20988667428752       -3.99160585911213       -2.93401347898543
H           -6.31786586032427       -5.00393157364424       -0.28637860023497
H           -5.82478538971666       -6.72614484129865       -0.38925621986990
H           -3.64231614560919       -6.91320501313650       -1.74502433877537
H           -2.51900012360125       -5.59195941363018       -1.36026944913941
H           -1.88318540903829       -7.37845169992738        0.03416518529083
H           -2.66468965116076       -6.17529553025202        1.05363612865854
H           -3.25278874206676       -8.45563017225018        1.70610768042550
H           -4.67246297054927       -7.53892766413561        1.26101105807543
H           -4.80828597925817       -9.81845024164715        0.41818121081703
H           -4.76182154210199       -8.70766197009720       -0.93920143007072
H           -3.39388107807842      -10.62155246346276       -1.42256121989013
H           -2.37005189252733       -9.19997268976554       -1.30858708497366
H           -1.29709635724224      -11.09969421734058       -0.26430753588112
H           -1.61835773216909       -9.86492566007561        0.93863935512950
H           -2.06712857839710      -12.08316060755975        1.82515324899819
H           -3.53161496947247      -11.11983672650859        1.81125554431710
H           -4.00543429655197      -13.40018322817736        1.13726404412463
H           -4.35596597930815      -12.29734351021922       -0.17975721235503
H           -3.30205945700947      -14.29584801097896       -1.03567945619044
H           -2.25926812957090      -12.91324582749909       -1.31631291210016
H           -0.94981598941775      -14.82929972732631       -0.63798415453763
H           -0.81519177950748      -13.55519968353107        0.56633620628834
H           -0.98911135092069      -15.70215682860075        1.65374942406739
H           -2.42455349578376      -14.76061708968061        2.03227621051768
H           -2.28769124337510      -16.92374199110164       -0.12242938758173
H           -2.93939269548014      -17.15349069547279        1.49973711289335
H           -3.74256352107897      -16.05947727415086        0.37992707348157

          :  Hamiltonian                  GFN2-xTB          :
         :: total energy            -104.809410154661 Eh    ::
         :: gradient norm              0.000281837352 Eh/a0 ::
         :: HOMO-LUMO gap              1.499401469603 eV    ::
         :: SCC energy              -106.248083629283 Eh    ::
         :: -> dispersion             -0.080069302260 Eh    ::
         :: repulsion energy           1.438673474623 Eh    ::

    * Orbital Energies and Occupations

         #    Occupation            Energy/Eh            Energy/eV
      -------------------------------------------------------------
         1        2.0000           -0.8977727             -24.4296
       ...           ...                  ...                  ...
        85        2.0000           -0.5029169             -13.6851
        86        2.0000           -0.4947256             -13.4622
        87        2.0000           -0.4927259             -13.4078
        88        2.0000           -0.4915618             -13.3761
        89        2.0000           -0.4898977             -13.3308
        90        2.0000           -0.4882076             -13.2848
        91        2.0000           -0.4858879             -13.2217
        92        2.0000           -0.4737323             -12.8909
        93        2.0000           -0.4727583             -12.8644
        94        2.0000           -0.4699795             -12.7888
        95        2.0000           -0.4685705             -12.7505
        96        2.0000           -0.4677832             -12.7290
        97        2.0000           -0.4664082             -12.6916 (HOMO)
        98                         -0.4113063             -11.1922 (LUMO)
        99                         -0.3733457             -10.1593
       100                         -0.2029172              -5.5217
       101                         -0.1503379              -4.0909
       102                         -0.1222391              -3.3263
       103                         -0.1127371              -3.0677
       104                         -0.0708971              -1.9292
       105                         -0.0533920              -1.4529
       106                         -0.0388058              -1.0560
       107                         -0.0381812              -1.0390
       108                         -0.0315432              -0.8583
       ...                                ...                  ...
       189                          0.4602501              12.5240
      -------------------------------------------------------------
                  HL-Gap            0.0551020 Eh            1.4994 eV

     #   Z          covCN         q      C6AA      α(0)
     1   6 C        3.751    -0.102    22.516     6.767
     2   6 C        3.799    -0.053    21.521     6.605
     3   6 C        3.800    -0.058    21.619     6.620
     4   6 C        3.800    -0.057    21.608     6.618
     5   6 C        3.800    -0.057    21.594     6.616
     6   6 C        3.800    -0.058    21.624     6.621
     7   6 C        3.800    -0.060    21.651     6.625
     8   6 C        3.800    -0.060    21.650     6.625
     9   6 C        3.799    -0.058    21.611     6.619
    10   6 C        3.799    -0.061    21.674     6.629
    11   6 C        3.799    -0.079    22.018     6.681
    12   6 C        3.688     0.064    19.697     6.352
    13   8 O        1.701    -0.286    18.758     5.848
    14   6 C        3.631     0.122    18.962     6.270
    15   7 N        2.866     0.035    20.637     6.747
    16   6 C        3.069     0.005    27.851     8.653
    17   6 C        3.064    -0.001    27.989     8.675
    18   7 N        2.868     0.028    20.749     6.765
    19   6 C        3.089     0.067    26.392     8.421
    20   6 C        3.631     0.124    18.934     6.265
    21   8 O        1.700    -0.291    18.839     5.860
    22   6 C        3.689     0.068    19.626     6.341
    23   6 C        3.799    -0.075    21.934     6.668
    24   6 C        3.799    -0.062    21.695     6.632
    25   6 C        3.799    -0.055    21.570     6.613
    26   6 C        3.800    -0.058    21.625     6.621
    27   6 C        3.800    -0.059    21.640     6.623
    28   6 C        3.800    -0.058    21.626     6.621
    29   6 C        3.800    -0.057    21.592     6.616
    30   6 C        3.800    -0.057    21.602     6.617
    31   6 C        3.801    -0.058    21.614     6.619
    32   6 C        3.799    -0.053    21.522     6.605
    33   6 C        3.751    -0.102    22.514     6.767
    34   1 H        0.925     0.033     2.550     2.497
    35   1 H        0.925     0.034     2.533     2.489
    36   1 H        0.925     0.035     2.510     2.478
    37   1 H        0.924     0.029     2.594     2.519
    38   1 H        0.924     0.030     2.587     2.515
    39   1 H        0.924     0.028     2.613     2.528
    40   1 H        0.924     0.032     2.562     2.503
    41   1 H        0.924     0.026     2.646     2.544
    42   1 H        0.924     0.034     2.534     2.489
    43   1 H        0.924     0.022     2.710     2.574
    44   1 H        0.924     0.036     2.509     2.477
    45   1 H        0.924     0.023     2.687     2.563
    46   1 H        0.924     0.040     2.453     2.449
    47   1 H        0.924     0.028     2.617     2.530
    48   1 H        0.924     0.042     2.427     2.436
    49   1 H        0.924     0.027     2.636     2.539
    50   1 H        0.924     0.039     2.460     2.453
    51   1 H        0.924     0.007     2.941     2.682
    52   1 H        0.924     0.044     2.402     2.424
    53   1 H        0.924     0.009     2.909     2.667
    54   1 H        0.924     0.058     2.223     2.331
    55   1 H        0.924     0.055     2.253     2.347
    56   1 H        0.925     0.066     2.133     2.284
    57   1 H        0.924     0.079     1.987     2.204
    58   1 H        0.924     0.027     2.624     2.533
    59   1 H        0.924     0.077     2.014     2.219
    60   1 H        0.924     0.101     1.773     2.082
    61   1 H        0.926     0.117     1.641     2.003
    62   1 H        0.926     0.109     1.706     2.043
    63   1 H        0.926     0.128     1.550     1.947
    64   1 H        0.924     0.098     1.808     2.103
    65   1 H        0.924     0.086     1.919     2.166
    66   1 H        0.924     0.029     2.599     2.521
    67   1 H        0.924     0.064     2.150     2.293
    68   1 H        0.924     0.060     2.201     2.320
    69   1 H        0.924     0.060     2.198     2.318
    70   1 H        0.924     0.057     2.239     2.340
    71   1 H        0.924     0.025     2.661     2.551
    72   1 H        0.924     0.044     2.397     2.421
    73   1 H        0.924     0.001     3.046     2.729
    74   1 H        0.924     0.038     2.481     2.463
    75   1 H        0.924     0.022     2.701     2.570
    76   1 H        0.924     0.039     2.458     2.452
    77   1 H        0.924     0.029     2.603     2.523
    78   1 H        0.924     0.039     2.461     2.453
    79   1 H        0.924     0.025     2.653     2.547
    80   1 H        0.924     0.036     2.500     2.473
    81   1 H        0.924     0.021     2.721     2.579
    82   1 H        0.924     0.033     2.541     2.493
    83   1 H        0.924     0.025     2.661     2.551
    84   1 H        0.924     0.031     2.577     2.510
    85   1 H        0.924     0.028     2.610     2.526
    86   1 H        0.924     0.030     2.587     2.515
    87   1 H        0.924     0.030     2.584     2.514
    88   1 H        0.925     0.035     2.518     2.482
    89   1 H        0.925     0.034     2.529     2.487
    90   1 H        0.925     0.033     2.549     2.497

Wiberg/Mayer (AO) data.
largest (>0.10) Wiberg bond orders for each atom

     #   Z sym  total        # sym  WBO       # sym  WBO       # sym  WBO
 ---------------------------------------------------------------------------
     1   6 C    3.997 --     2 C    1.020    36 H    0.988    35 H    0.987
                            34 H    0.986
     2   6 C    3.998 --     1 C    1.020     3 C    1.008    38 H    0.978
                            37 H    0.976
     3   6 C    3.997 --     2 C    1.008     4 C    1.008    40 H    0.977
                            39 H    0.976
     4   6 C    3.997 --     5 C    1.008     3 C    1.008    41 H    0.976
                            42 H    0.975
     5   6 C    3.998 --     6 C    1.008     4 C    1.008    43 H    0.975
                            44 H    0.974
     6   6 C    3.997 --     7 C    1.008     5 C    1.008    45 H    0.975
                            46 H    0.974
     7   6 C    3.996 --     6 C    1.008     8 C    1.008    47 H    0.975
                            48 H    0.974
     8   6 C    3.996 --     7 C    1.008     9 C    1.007    49 H    0.976
                            50 H    0.974
     9   6 C    3.996 --    10 C    1.007     8 C    1.007    52 H    0.973
                            51 H    0.970
    10   6 C    3.994 --     9 C    1.007    11 C    1.007    54 H    0.971
                            53 H    0.970
    11   6 C    3.990 --    10 C    1.007    12 C    0.999    55 H    0.972
                            56 H    0.970
    12   6 C    3.926 --    11 C    0.999    57 H    0.967    58 H    0.963
                            13 O    0.946
    13   8 O    2.132 --    14 C    1.043    12 C    0.946
    14   6 C    3.927 --    13 O    1.043    60 H    0.954    59 H    0.949
                            15 N    0.923
    15   7 N    3.697 --    19 C    1.365    16 C    1.222    14 C    0.923
    16   6 C    3.948 --    17 C    1.602    15 N    1.222    61 H    0.959
    17   6 C    3.947 --    16 C    1.602    18 N    1.221    62 H    0.960
    18   7 N    3.696 --    19 C    1.370    17 C    1.221    20 C    0.915
    19   6 C    3.944 --    18 N    1.370    15 N    1.365    63 H    0.946
    20   6 C    3.927 --    21 O    1.058    65 H    0.947    64 H    0.946
                            18 N    0.915
    21   8 O    2.125 --    20 C    1.058    22 C    0.937
    22   6 C    3.925 --    23 C    1.001    66 H    0.970    67 H    0.968
                            21 O    0.937
    23   6 C    3.990 --    24 C    1.007    22 C    1.001    69 H    0.973
                            68 H    0.968
    24   6 C    3.994 --    25 C    1.007    23 C    1.007    71 H    0.974
                            70 H    0.971
    25   6 C    3.997 --    24 C    1.007    26 C    1.007    72 H    0.973
                            73 H    0.972
    26   6 C    3.997 --    27 C    1.008    25 C    1.007    75 H    0.976
                            74 H    0.974
    27   6 C    3.996 --    28 C    1.008    26 C    1.008    77 H    0.975
                            76 H    0.974
    28   6 C    3.997 --    27 C    1.008    29 C    1.008    79 H    0.975
                            78 H    0.974
    29   6 C    3.997 --    30 C    1.008    28 C    1.008    81 H    0.975
                            80 H    0.974
    30   6 C    3.998 --    29 C    1.008    31 C    1.008    83 H    0.975
                            82 H    0.975
    31   6 C    3.997 --    32 C    1.008    30 C    1.008    84 H    0.977
                            85 H    0.976
    32   6 C    3.998 --    33 C    1.020    31 C    1.008    86 H    0.978
                            87 H    0.976
    33   6 C    3.997 --    32 C    1.020    88 H    0.988    89 H    0.987
                            90 H    0.986
    34   1 H    0.999 --     1 C    0.986
    35   1 H    0.999 --     1 C    0.987
    36   1 H    0.999 --     1 C    0.988
    37   1 H    0.999 --     2 C    0.976
    38   1 H    0.999 --     2 C    0.978
    39   1 H    0.999 --     3 C    0.976
    40   1 H    0.999 --     3 C    0.977
    41   1 H    0.999 --     4 C    0.976
    42   1 H    0.999 --     4 C    0.975
    43   1 H    1.000 --     5 C    0.975
    44   1 H    0.999 --     5 C    0.974
    45   1 H    0.999 --     6 C    0.975
    46   1 H    0.998 --     6 C    0.974
    47   1 H    0.999 --     7 C    0.975
    48   1 H    0.998 --     7 C    0.974
    49   1 H    0.999 --     8 C    0.976
    50   1 H    0.998 --     8 C    0.974
    51   1 H    1.000 --     9 C    0.970
    52   1 H    0.998 --     9 C    0.973
    53   1 H    1.000 --    10 C    0.970
    54   1 H    0.997 --    10 C    0.971
    55   1 H    0.997 --    11 C    0.972
    56   1 H    0.996 --    11 C    0.970
    57   1 H    0.994 --    12 C    0.967
    58   1 H    0.999 --    12 C    0.963
    59   1 H    0.994 --    14 C    0.949
    60   1 H    0.989 --    14 C    0.954
    61   1 H    0.986 --    16 C    0.959
    62   1 H    0.988 --    17 C    0.960
    63   1 H    0.984 --    19 C    0.946
    64   1 H    0.990 --    20 C    0.946
    65   1 H    0.992 --    20 C    0.947
    66   1 H    0.999 --    22 C    0.970
    67   1 H    0.996 --    22 C    0.968
    68   1 H    0.996 --    23 C    0.968
    69   1 H    0.996 --    23 C    0.973
    70   1 H    0.997 --    24 C    0.971
    71   1 H    0.999 --    24 C    0.974
    72   1 H    0.998 --    25 C    0.973
    73   1 H    1.000 --    25 C    0.972
    74   1 H    0.999 --    26 C    0.974
    75   1 H    0.999 --    26 C    0.976
    76   1 H    0.998 --    27 C    0.974
    77   1 H    0.999 --    27 C    0.975
    78   1 H    0.998 --    28 C    0.974
    79   1 H    0.999 --    28 C    0.975
    80   1 H    0.999 --    29 C    0.974
    81   1 H    1.000 --    29 C    0.975
    82   1 H    0.999 --    30 C    0.975
    83   1 H    0.999 --    30 C    0.975
    84   1 H    0.999 --    31 C    0.977
    85   1 H    0.999 --    31 C    0.976
    86   1 H    0.999 --    32 C    0.978
    87   1 H    0.999 --    32 C    0.976
    88   1 H    0.999 --    33 C    0.988
    89   1 H    0.999 --    33 C    0.987
    90   1 H    0.999 --    33 C    0.986
 ---------------------------------------------------------------------------

molecular dipole:
                 x           y           z       tot (Debye)
 q only:      -10.085     -10.606      -5.651
   full:      -10.285     -10.600      -5.603      40.150

           -------------------------------------------------
          | TOTAL ENERGY             -104.809410154661 Eh   |
          | GRADIENT NORM               0.000281837352 Eh/α |
          | HOMO-LUMO GAP               1.499401469603 eV   |
           -------------------------------------------------

 * finished run on 2024/12/20 at 06:45:49.898
