   * xtb version 6.7.1 (edcfbbe) compiled by 'conda@3ef47c1a292c' on 2024-11-25

   ID    Z sym.   atoms
    1    8 O      1
    2    6 C      2-4, 6-11
    3    7 N      5
    4    1 H      12-33

          program call               : xtb C0462.xyz --opt --namespace C0462 --charge +1
          :  Hamiltonian                  GFN2-xTB          :
 * total energy  :   -37.0637399 Eh     change       -0.5256595E-10 Eh
 * total energy  :   -37.0714135 Eh     change       -0.7673579E-02 Eh
 * total energy  :   -37.0736148 Eh     change       -0.2201297E-02 Eh
 * total energy  :   -37.0738731 Eh     change       -0.2582741E-03 Eh
 * total energy  :   -37.0742101 Eh     change       -0.3370419E-03 Eh
 * total energy  :   -37.0744312 Eh     change       -0.2211115E-03 Eh
 * total energy  :   -37.0748250 Eh     change       -0.3938142E-03 Eh
 * total energy  :   -37.0752460 Eh     change       -0.4210108E-03 Eh
 * total energy  :   -37.0755666 Eh     change       -0.3205567E-03 Eh
 * total energy  :   -37.0757888 Eh     change       -0.2221534E-03 Eh
 * total energy  :   -37.0768882 Eh     change       -0.3674172E-04 Eh
 * total energy  :   -37.0769191 Eh     change       -0.3087284E-04 Eh
 * total energy  :   -37.0769684 Eh     change       -0.4934570E-04 Eh
 * total energy  :   -37.0769907 Eh     change       -0.2228642E-04 Eh
 * total energy  :   -37.0770253 Eh     change       -0.3462892E-04 Eh
 * total energy  :   -37.0770363 Eh     change       -0.1098498E-04 Eh
 * total energy  :   -37.0770421 Eh     change       -0.5773447E-05 Eh
 * total energy  :   -37.0770480 Eh     change       -0.5916330E-05 Eh
 * total energy  :   -37.0770513 Eh     change       -0.3291542E-05 Eh
   *** GEOMETRY OPTIMIZATION CONVERGED AFTER 29 ITERATIONS ***

 final structure:
================
33
 xtb: 6.7.1 (edcfbbe)
O            1.05654738273077       -0.24850250323746       -0.81106998138265
C            0.30916669265271       -1.14346015568650       -0.01326441539600
C            1.03234887271231       -2.50101627598822        0.02510182549273
C            2.55893785550395       -2.38347362937262        0.10180316931296
N            3.19208135232509       -2.41117189477426        1.45023165376841
C            2.86100377180062       -3.68177702980151        2.18053201087871
C            2.98288622754816       -4.96835096721238        1.37738972195914
C            4.69077328300922       -2.34762564999520        1.31516017042090
C            5.26746856438737       -1.56661561432183        0.14162151249687
C            2.70038834619324       -1.29824564856667        2.32151939023332
C            3.01857689423184        0.11500332535095        1.86240736706196
H            0.47851258824860        0.43406371769054       -1.16368323554070
H            0.18490890413132       -0.72120534807578        0.99409972506630
H           -0.69074607219287       -1.30308398467661       -0.42841643449507
H            0.60565866114350       -3.10862940768439        0.82058135376877
H            0.81699009650365       -3.00291750995602       -0.91922279760638
H            3.00852545506880       -3.19667983655490       -0.46605283737996
H            2.82019865359740       -1.44453977367676       -0.38444828842085
H            3.52488063100555       -3.73098745369421        3.04659887572059
H            1.83922400448751       -3.60227390607362        2.55409815434268
H            3.95973604529501       -5.09187054270573        0.91761184380549
H            2.84167358740334       -5.79985057009949        2.06381686689070
H            2.21945021926427       -5.04588575550692        0.60928315139528
H            5.07368606659210       -1.93258749778797        2.24917524743808
H            5.05609885427017       -3.37169537149856        1.23326815436356
H            4.91512311347796       -0.54284317313983        0.09024605482605
H            6.34656071806029       -1.53661993983754        0.27652139050399
H            5.07431885015488       -2.05348720644608       -0.80937120869949
H            1.61927842461918       -1.41044415358365        2.40374276915594
H            3.12822716523966       -1.45440189423398        3.31519384250148
H            2.64689520900775        0.31560993803262        0.86190331715358
H            2.51744116489100        0.80074132916306        2.54173992045424
H            4.08065841663724        0.33287438395511        1.91077170990540

          :  Hamiltonian                  GFN2-xTB          :
         :: total energy             -37.077051302396 Eh    ::
         :: gradient norm              0.000261738966 Eh/a0 ::
         :: HOMO-LUMO gap              8.274864508054 eV    ::
         :: SCC energy               -37.557268521181 Eh    ::
         :: -> dispersion             -0.025576698013 Eh    ::
         :: repulsion energy           0.480217218785 Eh    ::

    * Orbital Energies and Occupations

         #    Occupation            Energy/Eh            Energy/eV
      -------------------------------------------------------------
         1        2.0000           -0.8473309             -23.0570
       ...           ...                  ...                  ...
        22        2.0000           -0.6311109             -17.1734
        23        2.0000           -0.6258790             -17.0310
        24        2.0000           -0.6158887             -16.7592
        25        2.0000           -0.6151923             -16.7402
        26        2.0000           -0.6068706             -16.5138
        27        2.0000           -0.6001904             -16.3320
        28        2.0000           -0.5978043             -16.2671
        29        2.0000           -0.5975035             -16.2589
        30        2.0000           -0.5925693             -16.1246
        31        2.0000           -0.5871696             -15.9777
        32        2.0000           -0.5848735             -15.9152
        33        2.0000           -0.5787216             -15.7478
        34        2.0000           -0.5363130             -14.5938 (HOMO)
        35                         -0.2322173              -6.3190 (LUMO)
        36                         -0.1692386              -4.6052
        37                         -0.1537795              -4.1846
        38                         -0.1485775              -4.0430
        39                         -0.0883570              -2.4043
        40                         -0.0691393              -1.8814
        41                         -0.0610945              -1.6625
        42                         -0.0462867              -1.2595
        43                         -0.0364124              -0.9908
        44                         -0.0274691              -0.7475
        45                         -0.0192820              -0.5247
       ...                                ...                  ...
        66                          0.1764236               4.8007
      -------------------------------------------------------------
                  HL-Gap            0.3040957 Eh            8.2749 eV

     #   Z          covCN         q      C6AA      α(0)
     1   8 O        1.655    -0.446    21.762     6.297
     2   6 C        3.672     0.075    19.556     6.338
     3   6 C        3.798    -0.075    21.940     6.669
     4   6 C        3.750    -0.043    21.405     6.598
     5   7 N        3.616     0.102    19.481     6.555
     6   6 C        3.764    -0.031    21.172     6.559
     7   6 C        3.750    -0.128    23.021     6.843
     8   6 C        3.754    -0.032    21.201     6.566
     9   6 C        3.750    -0.132    23.092     6.853
    10   6 C        3.759    -0.027    21.106     6.550
    11   6 C        3.751    -0.131    23.083     6.852
    12   1 H        0.805     0.306     0.703     1.317
    13   1 H        0.923     0.031     2.577     2.510
    14   1 H        0.924     0.044     2.400     2.423
    15   1 H        0.925     0.056     2.250     2.346
    16   1 H        0.924     0.079     1.994     2.208
    17   1 H        0.925     0.086     1.923     2.169
    18   1 H        0.925     0.126     1.570     1.959
    19   1 H        0.924     0.078     1.995     2.209
    20   1 H        0.924     0.081     1.973     2.197
    21   1 H        0.925     0.064     2.158     2.297
    22   1 H        0.925     0.084     1.942     2.179
    23   1 H        0.925     0.070     2.083     2.257
    24   1 H        0.924     0.081     1.966     2.193
    25   1 H        0.924     0.084     1.933     2.174
    26   1 H        0.925     0.073     2.053     2.241
    27   1 H        0.925     0.081     1.964     2.192
    28   1 H        0.925     0.066     2.127     2.281
    29   1 H        0.925     0.081     1.969     2.195
    30   1 H        0.924     0.073     2.058     2.244
    31   1 H        0.925     0.085     1.932     2.174
    32   1 H        0.925     0.077     2.015     2.220
    33   1 H        0.925     0.065     2.145     2.290

Wiberg/Mayer (AO) data.
largest (>0.10) Wiberg bond orders for each atom

     #   Z sym  total        # sym  WBO       # sym  WBO       # sym  WBO
 ---------------------------------------------------------------------------
     1   8 O    1.958 --     2 C    0.999    12 H    0.891
     2   6 C    3.958 --     1 O    0.999     3 C    0.999    14 H    0.974
                            13 H    0.965
     3   6 C    3.991 --     4 C    1.008     2 C    0.999    16 H    0.970
                            15 H    0.969
     4   6 C    3.927 --     3 C    1.008    17 H    0.966    18 H    0.948
                             5 N    0.933
     5   7 N    3.797 --     4 C    0.933    10 C    0.931     6 C    0.930
                             8 C    0.924
     6   6 C    3.941 --     7 C    1.023    19 H    0.969    20 H    0.965
                             5 N    0.930
     7   6 C    3.982 --     6 C    1.023    23 H    0.981    21 H    0.976
                            22 H    0.973
     8   6 C    3.935 --     9 C    1.022    24 H    0.968    25 H    0.964
                             5 N    0.924
     9   6 C    3.981 --     8 C    1.022    28 H    0.982    26 H    0.976
                            27 H    0.972
    10   6 C    3.937 --    11 C    1.022    30 H    0.968    29 H    0.962
                             5 N    0.931
    11   6 C    3.980 --    10 C    1.022    33 H    0.980    32 H    0.974
                            31 H    0.972
    12   1 H    0.906 --     1 O    0.891
    13   1 H    0.999 --     2 C    0.965
    14   1 H    0.998 --     2 C    0.974
    15   1 H    0.997 --     3 C    0.969
    16   1 H    0.994 --     3 C    0.970
    17   1 H    0.993 --     4 C    0.966
    18   1 H    0.984 --     4 C    0.948
    19   1 H    0.994 --     6 C    0.969
    20   1 H    0.993 --     6 C    0.965
    21   1 H    0.996 --     7 C    0.976
    22   1 H    0.993 --     7 C    0.973
    23   1 H    0.995 --     7 C    0.981
    24   1 H    0.993 --     8 C    0.968
    25   1 H    0.993 --     8 C    0.964
    26   1 H    0.995 --     9 C    0.976
    27   1 H    0.993 --     9 C    0.972
    28   1 H    0.996 --     9 C    0.982
    29   1 H    0.993 --    10 C    0.962
    30   1 H    0.995 --    10 C    0.968
    31   1 H    0.993 --    11 C    0.972
    32   1 H    0.994 --    11 C    0.974
    33   1 H    0.996 --    11 C    0.980
 ---------------------------------------------------------------------------

molecular dipole:
                 x           y           z       tot (Debye)
 q only:        5.476      -4.322       2.340
   full:        5.225      -4.305       2.467      18.315

           -------------------------------------------------
          | TOTAL ENERGY              -37.077051302396 Eh   |
          | GRADIENT NORM               0.000261738966 Eh/α |
          | HOMO-LUMO GAP               8.274864508054 eV   |
           -------------------------------------------------

 * finished run on 2024/12/20 at 06:45:30.599
