   * xtb version 6.7.1 (edcfbbe) compiled by 'conda@3ef47c1a292c' on 2024-11-25

   ID    Z sym.   atoms
    1    8 O      1, 22
    2    6 C      2-9, 11, 13-17, 19-21, 23-42
    3    7 N      10, 12, 18
    4    1 H      43-78

          program call               : xtb C0461.xyz --opt --namespace C0461 --charge +1
          :  Hamiltonian                  GFN2-xTB          :
 * total energy  :  -114.1015520 Eh     change       -0.1724075E-08 Eh
 * total energy  :  -114.1201425 Eh     change       -0.1859056E-01 Eh
 * total energy  :  -114.1270094 Eh     change       -0.6866923E-02 Eh
 * total energy  :  -114.1293721 Eh     change       -0.2362629E-02 Eh
 * total energy  :  -114.1305880 Eh     change       -0.1215901E-02 Eh
 * total energy  :  -114.1315011 Eh     change       -0.9131171E-03 Eh
 * total energy  :  -114.1323625 Eh     change       -0.8614425E-03 Eh
 * total energy  :  -114.1332227 Eh     change       -0.8601224E-03 Eh
 * total energy  :  -114.1339741 Eh     change       -0.7514887E-03 Eh
 * total energy  :  -114.1343690 Eh     change       -0.3948568E-03 Eh
 * total energy  :  -114.1406783 Eh     change       -0.8777833E-05 Eh
 * total energy  :  -114.1406856 Eh     change       -0.7219209E-05 Eh
 * total energy  :  -114.1406933 Eh     change       -0.7731089E-05 Eh
 * total energy  :  -114.1407031 Eh     change       -0.9766970E-05 Eh
 * total energy  :  -114.1407146 Eh     change       -0.1151461E-04 Eh
 * total energy  :  -114.1407263 Eh     change       -0.1175221E-04 Eh
 * total energy  :  -114.1407367 Eh     change       -0.1039414E-04 Eh
 * total energy  :  -114.1407461 Eh     change       -0.9357798E-05 Eh
 * total energy  :  -114.1407489 Eh     change       -0.2837028E-05 Eh
   *** GEOMETRY OPTIMIZATION CONVERGED AFTER 94 ITERATIONS ***

 final structure:
================
78
 xtb: 6.7.1 (edcfbbe)
O            3.66158338442696       -1.89088411585317        1.73829581088290
C            3.47925122752065       -1.01279101108786        0.92555574706322
C            4.08819666347844        0.31335232738167        0.98989593564162
C            3.81892023340684        1.33326994185381        0.07081692969125
C            4.42479112750407        2.56587921235989        0.21283911864370
C            5.30285394021692        2.80107036902844        1.26184201383570
C            5.57710752052638        1.79701437661672        2.17832924631354
C            4.97482443184956        0.56293970989549        2.04539299328887
C            2.51925637884933       -1.29770772951763       -0.26090376222589
N            2.13279621339392       -2.67941204884111       -0.20417276973545
C            1.39243337326930       -3.17449868869031        0.78876661598735
N            1.33574666539011       -4.49356253052315        0.68442215826754
C            2.05677513165012       -4.85572333767955       -0.41247110071020
C            2.58856956451403       -3.72800775187789       -0.97023091572976
C            3.47960713140064       -3.54086098863156       -2.15471745938568
C            3.43866875205476       -4.72410777614543       -3.13648514298683
C            4.25765602335883       -5.93394685270164       -2.67932421147738
N            5.59668176148759       -5.53787486776565       -2.30714905921708
C            5.61455159354486       -4.56379442669803       -1.24858008035582
C            4.93532648462943       -3.27352498919412       -1.71811064729740
C            6.64438503160748       -5.90697365327982       -3.10147754732802
O            6.47043454799520       -6.62374386142054       -4.06294147049210
C            8.01222957390348       -5.40794244708547       -2.69859280591601
C            0.50438965000470       -5.36248951840977        1.53065466380412
C            0.74609189976638       -5.11248070329318        3.01503601452881
C           -0.09728371536804       -5.76242723700746        3.91335340464784
C            0.09138508020652       -5.63352792618857        5.27575235604110
C            1.13787440877919       -4.86752042563928        5.76282562996129
C            1.99752767586220       -4.24672209037899        4.87604386451708
C            1.81071415510649       -4.37118766512692        3.50796907454361
C           -0.91505322324721       -5.03161774713503        1.07310074130676
C           -1.78646014025720       -4.28160051285199        1.85025163426242
C           -3.04317405794773       -3.95272950414303        1.36896075264617
C           -3.43393644661822       -4.35059818471656        0.10274542256755
C           -2.55610779314446       -5.07047488122220       -0.69083841546784
C           -1.30168962801624       -5.40129393077310       -0.21248122764412
C            0.90226589231088       -6.82072996944129        1.33407831872036
C           -0.03819434926820       -7.82343899957051        1.14576182768572
C            0.36296527162393       -9.14551976003920        1.04307245344203
C            1.70166693329844       -9.48055067332206        1.13631072317963
C            2.64261444247437       -8.48760114173794        1.35530822419775
C            2.24488934985518       -7.16863839301788        1.46580844813051
H            3.13548018508572        1.17753194799491       -0.74925750491990
H            4.21230119947441        3.35056482511956       -0.49665129539978
H            5.77075769197197        3.76798053041682        1.36354487437790
H            6.25773996131184        1.97960704629871        2.99507869713886
H            5.17279675939716       -0.23106086135490        2.74943174196517
H            1.63580027696618       -0.66239380019653       -0.15238094513362
H            3.00646045174520       -1.08127348759783       -1.21052783915523
H            0.89948077671418       -2.59046610794327        1.54001195053875
H            2.13253211728848       -5.87677490663912       -0.72022209334884
H            3.11527031186201       -2.65800162752001       -2.69583610773454
H            2.40619502630207       -5.02426318331900       -3.31677960078873
H            3.85802740573255       -4.38104421984271       -4.08363539311730
H            3.79538506381249       -6.43949872743930       -1.82642523986751
H            4.34622501663861       -6.64649164368506       -3.50185366839177
H            6.63439151246680       -4.35079212925983       -0.93571340922003
H            5.07123963643128       -4.97288031395235       -0.38714414653839
H            5.48429369895497       -2.88179501394218       -2.57585053039724
H            4.97625920355500       -2.53285090338709       -0.91790327273590
H            8.06409698607562       -4.32248680451783       -2.74560664319994
H            8.26387126204915       -5.73870947785282       -1.69359347024300
H            8.73486076360530       -5.82282686191211       -3.39565030869023
H           -0.90416789372067       -6.37398590399987        3.53838919510824
H           -0.57672467327724       -6.13727369212398        5.95666511379359
H            1.28749025251562       -4.76566903080309        6.82618077334967
H            2.82745183671508       -3.66195443331105        5.24162161245961
H            2.51648659815459       -3.88300251392171        2.85243081769642
H           -1.49511270099067       -3.95850435944084        2.83806215040703
H           -3.71582824862983       -3.38134600050854        1.98964873059930
H           -4.41494440972462       -4.09694591825165       -0.26710985579023
H           -2.84698417419102       -5.37581993771353       -1.68407529514887
H           -0.62223909195108       -5.96091831245603       -0.83985392056415
H           -1.08812997216135       -7.58204757461303        1.08366617850868
H           -0.37912952159861       -9.91430179315411        0.89413187734706
H            2.01095124251037      -10.51053471170209        1.05419454210214
H            3.68701721936880       -8.74135455786344        1.45231629490170
H            2.98253606830583       -6.40499513563065        1.67054248217026

          :  Hamiltonian                  GFN2-xTB          :
         :: total energy            -114.140748922684 Eh    ::
         :: gradient norm              0.000222842194 Eh/a0 ::
         :: HOMO-LUMO gap              1.596268928213 eV    ::
         :: SCC energy              -116.034941292212 Eh    ::
         :: -> dispersion             -0.100977310889 Eh    ::
         :: repulsion energy           1.894192369527 Eh    ::

    * Orbital Energies and Occupations

         #    Occupation            Energy/Eh            Energy/eV
      -------------------------------------------------------------
         1        2.0000           -0.8621388             -23.4600
       ...           ...                  ...                  ...
        93        2.0000           -0.5225137             -14.2183
        94        2.0000           -0.5212742             -14.1846
        95        2.0000           -0.5186854             -14.1141
        96        2.0000           -0.5163675             -14.0511
        97        2.0000           -0.5149264             -14.0119
        98        2.0000           -0.5076030             -13.8126
        99        2.0000           -0.5060651             -13.7707
       100        2.0000           -0.5033126             -13.6958
       101        2.0000           -0.5011626             -13.6373
       102        2.0000           -0.4984279             -13.5629
       103        2.0000           -0.4889137             -13.3040
       104        2.0000           -0.4698952             -12.7865
       105        2.0000           -0.4639250             -12.6240 (HOMO)
       106                         -0.4052632             -11.0278 (LUMO)
       107                         -0.3763254             -10.2403
       108                         -0.3410423              -9.2802
       109                         -0.3377815              -9.1915
       110                         -0.3324368              -9.0461
       111                         -0.3282164              -8.9312
       112                         -0.3264488              -8.8831
       113                         -0.3207764              -8.7288
       114                         -0.3162978              -8.6069
       115                         -0.3126217              -8.5069
       116                         -0.3093532              -8.4179
       ...                                ...                  ...
       204                          0.5721961              15.5702
      -------------------------------------------------------------
                  HL-Gap            0.0586618 Eh            1.5963 eV

     #   Z          covCN         q      C6AA      α(0)
     1   8 O        0.857    -0.364    20.967     6.139
     2   6 C        2.823     0.225    23.264     7.903
     3   6 C        2.970    -0.020    28.494     8.756
     4   6 C        2.919    -0.027    28.687     8.783
     5   6 C        2.917    -0.019    28.494     8.753
     6   6 C        2.920    -0.007    28.206     8.709
     7   6 C        2.916    -0.018    28.468     8.749
     8   6 C        2.927    -0.010    28.269     8.719
     9   6 C        3.745    -0.043    21.418     6.602
    10   7 N        2.877     0.041    20.520     6.728
    11   6 C        3.087     0.064    26.464     8.433
    12   7 N        2.869     0.048    20.399     6.708
    13   6 C        3.085    -0.015    28.293     8.719
    14   6 C        3.087     0.040    27.000     8.518
    15   6 C        3.853    -0.018    20.852     6.495
    16   6 C        3.805    -0.072    21.882     6.659
    17   6 C        3.760    -0.008    20.762     6.496
    18   7 N        2.738    -0.108    23.363     7.179
    19   6 C        3.753    -0.004    20.712     6.490
    20   6 C        3.807    -0.064    21.725     6.635
    21   6 C        2.757     0.270    22.434     7.756
    22   8 O        0.859    -0.425    22.193     6.316
    23   6 C        3.754    -0.142    23.293     6.882
    24   6 C        3.855     0.054    19.640     6.303
    25   6 C        2.985    -0.002    28.064     8.690
    26   6 C        2.926    -0.031    28.783     8.798
    27   6 C        2.920    -0.024    28.603     8.770
    28   6 C        2.919    -0.024    28.612     8.772
    29   6 C        2.921    -0.025    28.617     8.773
    30   6 C        2.921    -0.045    29.110     8.848
    31   6 C        2.982    -0.006    28.158     8.704
    32   6 C        2.921    -0.037    28.925     8.820
    33   6 C        2.920    -0.025    28.628     8.774
    34   6 C        2.920    -0.023    28.586     8.768
    35   6 C        2.919    -0.026    28.656     8.778
    36   6 C        2.924    -0.038    28.940     8.822
    37   6 C        2.986    -0.001    28.034     8.685
    38   6 C        2.922    -0.033    28.813     8.802
    39   6 C        2.920    -0.024    28.596     8.769
    40   6 C        2.920    -0.023    28.582     8.767
    41   6 C        2.919    -0.026    28.658     8.779
    42   6 C        2.924    -0.039    28.981     8.828
    43   1 H        0.926     0.041     2.438     2.442
    44   1 H        0.926     0.060     2.194     2.316
    45   1 H        0.926     0.066     2.126     2.280
    46   1 H        0.926     0.065     2.147     2.291
    47   1 H        0.926     0.072     2.062     2.245
    48   1 H        0.924     0.091     1.870     2.138
    49   1 H        0.925     0.096     1.826     2.113
    50   1 H        0.926     0.103     1.759     2.074
    51   1 H        0.927     0.095     1.827     2.114
    52   1 H        0.924     0.053     2.284     2.364
    53   1 H        0.924     0.049     2.329     2.387
    54   1 H        0.924     0.068     2.107     2.270
    55   1 H        0.924     0.035     2.516     2.480
    56   1 H        0.924     0.095     1.827     2.114
    57   1 H        0.925     0.066     2.129     2.282
    58   1 H        0.924     0.043     2.403     2.424
    59   1 H        0.924     0.059     2.210     2.325
    60   1 H        0.924     0.038     2.475     2.460
    61   1 H        0.925     0.056     2.250     2.346
    62   1 H        0.925     0.059     2.208     2.324
    63   1 H        0.925     0.081     1.965     2.192
    64   1 H        0.926     0.041     2.431     2.438
    65   1 H        0.926     0.051     2.310     2.377
    66   1 H        0.926     0.051     2.304     2.374
    67   1 H        0.926     0.048     2.347     2.396
    68   1 H        0.926     0.038     2.475     2.460
    69   1 H        0.926     0.042     2.426     2.436
    70   1 H        0.926     0.051     2.309     2.376
    71   1 H        0.926     0.053     2.278     2.360
    72   1 H        0.926     0.049     2.332     2.388
    73   1 H        0.926     0.033     2.550     2.497
    74   1 H        0.926     0.043     2.407     2.426
    75   1 H        0.926     0.052     2.294     2.368
    76   1 H        0.926     0.054     2.274     2.358
    77   1 H        0.926     0.048     2.351     2.398
    78   1 H        0.925     0.028     2.609     2.526

Wiberg/Mayer (AO) data.
largest (>0.10) Wiberg bond orders for each atom

     #   Z sym  total        # sym  WBO       # sym  WBO       # sym  WBO
 ---------------------------------------------------------------------------
     1   8 O    2.085 --     2 C    1.804
     2   6 C    3.930 --     1 O    1.804     3 C    1.077     9 C    0.928
     3   6 C    3.984 --     4 C    1.355     8 C    1.352     2 C    1.077
     4   6 C    3.991 --     5 C    1.472     3 C    1.355    43 H    0.967
                             7 C    0.102
     5   6 C    3.990 --     4 C    1.472     6 C    1.418    44 H    0.968
     6   6 C    3.986 --     7 C    1.427     5 C    1.418    45 H    0.968
     7   6 C    3.989 --     8 C    1.464     6 C    1.427    46 H    0.967
                             4 C    0.102
     8   6 C    3.984 --     7 C    1.464     3 C    1.352    47 H    0.964
     9   6 C    3.952 --    10 N    0.994    49 H    0.950    48 H    0.946
                             2 C    0.928
    10   7 N    3.683 --    11 C    1.333    14 C    1.177     9 C    0.994
    11   6 C    3.948 --    12 N    1.374    10 N    1.333    50 H    0.955
    12   7 N    3.702 --    11 C    1.374    13 C    1.214    24 C    0.915
    13   6 C    3.943 --    14 C    1.554    12 N    1.214    51 H    0.953
    14   6 C    3.943 --    13 C    1.554    10 N    1.177    15 C    1.012
    15   6 C    3.989 --    14 C    1.012    16 C    0.988    20 C    0.971
                            52 H    0.949
    16   6 C    3.991 --    17 C    0.999    15 C    0.988    53 H    0.974
                            54 H    0.974
    17   6 C    3.972 --    16 C    0.999    18 N    0.992    55 H    0.963
                            56 H    0.959
    18   7 N    3.461 --    21 C    1.202    19 C    1.002    17 C    0.992
                            22 O    0.186
    19   6 C    3.979 --    18 N    1.002    20 C    0.995    58 H    0.966
                            57 H    0.965
    20   6 C    3.994 --    19 C    0.995    59 H    0.974    60 H    0.974
                            15 C    0.971
    21   6 C    3.949 --    22 O    1.703    18 N    1.202    23 C    0.986
    22   8 O    2.020 --    21 C    1.703    18 N    0.186
    23   6 C    3.993 --    21 C    0.986    63 H    0.980    61 H    0.969
                            62 H    0.968
    24   6 C    3.926 --    37 C    0.959    25 C    0.958    31 C    0.951
                            12 N    0.915
    25   6 C    3.979 --    30 C    1.422    26 C    1.395    24 C    0.958
                            28 C    0.109
    26   6 C    3.991 --    27 C    1.453    25 C    1.395    64 H    0.967
                            29 C    0.112
    27   6 C    3.990 --    26 C    1.453    28 C    1.430    65 H    0.969
                            30 C    0.109
    28   6 C    3.988 --    29 C    1.448    27 C    1.430    66 H    0.970
                            25 C    0.109
    29   6 C    3.989 --    28 C    1.448    30 C    1.430    67 H    0.970
                            26 C    0.112
    30   6 C    3.989 --    29 C    1.430    25 C    1.422    68 H    0.962
                            27 C    0.109
    31   6 C    3.981 --    32 C    1.422    36 C    1.405    24 C    0.951
                            34 C    0.110
    32   6 C    3.991 --    33 C    1.435    31 C    1.422    69 H    0.964
                            35 C    0.109
    33   6 C    3.990 --    34 C    1.444    32 C    1.435    70 H    0.969
                            36 C    0.112
    34   6 C    3.989 --    33 C    1.444    35 C    1.433    71 H    0.969
                            31 C    0.110
    35   6 C    3.990 --    36 C    1.449    34 C    1.433    72 H    0.970
                            32 C    0.109
    36   6 C    3.991 --    35 C    1.449    31 C    1.405    73 H    0.968
                            33 C    0.112
    37   6 C    3.979 --    38 C    1.420    42 C    1.398    24 C    0.959
                            40 C    0.109
    38   6 C    3.989 --    39 C    1.434    37 C    1.420    74 H    0.964
                            41 C    0.108
    39   6 C    3.989 --    40 C    1.446    38 C    1.434    75 H    0.969
                            42 C    0.112
    40   6 C    3.988 --    39 C    1.446    41 C    1.430    76 H    0.969
                            37 C    0.109
    41   6 C    3.990 --    42 C    1.452    40 C    1.430    77 H    0.970
                            38 C    0.108
    42   6 C    3.991 --    41 C    1.452    37 C    1.398    78 H    0.968
                            39 C    0.112
    43   1 H    0.998 --     4 C    0.967
    44   1 H    0.996 --     5 C    0.968
    45   1 H    0.995 --     6 C    0.968
    46   1 H    0.995 --     7 C    0.967
    47   1 H    0.995 --     8 C    0.964
    48   1 H    0.991 --     9 C    0.946
    49   1 H    0.990 --     9 C    0.950
    50   1 H    0.989 --    11 C    0.955
    51   1 H    0.991 --    13 C    0.953
    52   1 H    0.996 --    15 C    0.949
    53   1 H    0.997 --    16 C    0.974
    54   1 H    0.995 --    16 C    0.974
    55   1 H    0.999 --    17 C    0.963
    56   1 H    0.991 --    17 C    0.959
    57   1 H    0.996 --    19 C    0.965
    58   1 H    0.998 --    19 C    0.966
    59   1 H    0.996 --    20 C    0.974
    60   1 H    0.998 --    20 C    0.974
    61   1 H    0.997 --    23 C    0.969
    62   1 H    0.996 --    23 C    0.968
    63   1 H    0.993 --    23 C    0.980
    64   1 H    0.998 --    26 C    0.967
    65   1 H    0.997 --    27 C    0.969
    66   1 H    0.997 --    28 C    0.970
    67   1 H    0.997 --    29 C    0.970
    68   1 H    0.999 --    30 C    0.962
    69   1 H    0.998 --    32 C    0.964
    70   1 H    0.997 --    33 C    0.969
    71   1 H    0.996 --    34 C    0.969
    72   1 H    0.997 --    35 C    0.970
    73   1 H    0.999 --    36 C    0.968
    74   1 H    0.998 --    38 C    0.964
    75   1 H    0.997 --    39 C    0.969
    76   1 H    0.996 --    40 C    0.969
    77   1 H    0.997 --    41 C    0.970
    78   1 H    0.999 --    42 C    0.968
 ---------------------------------------------------------------------------

molecular dipole:
                 x           y           z       tot (Debye)
 q only:        3.582      -4.741       1.368
   full:        3.468      -4.360       1.507      14.669

           -------------------------------------------------
          | TOTAL ENERGY             -114.140748922684 Eh   |
          | GRADIENT NORM               0.000222842194 Eh/α |
          | HOMO-LUMO GAP               1.596268928213 eV   |
           -------------------------------------------------

 * finished run on 2024/12/20 at 06:45:29.670
