   * xtb version 6.7.1 (edcfbbe) compiled by 'conda@3ef47c1a292c' on 2024-11-25

   ID    Z sym.   atoms
    1    6 C      1-4, 6-11
    2    7 N      5
    3    1 H      12-33

          program call               : xtb C0460.xyz --opt --namespace C0460 --charge +1
          :  Hamiltonian                  GFN2-xTB          :
 * total energy  :   -35.1729446 Eh     change       -0.5869794E-10 Eh
 * total energy  :   -35.1786154 Eh     change       -0.5670784E-02 Eh
 * total energy  :   -35.1800015 Eh     change       -0.1386080E-02 Eh
 * total energy  :   -35.1800637 Eh     change       -0.6220464E-04 Eh
 * total energy  :   -35.1800999 Eh     change       -0.3619165E-04 Eh
 * total energy  :   -35.1801128 Eh     change       -0.1287466E-04 Eh
 * total energy  :   -35.1801364 Eh     change       -0.2367466E-04 Eh
 * total energy  :   -35.1801520 Eh     change       -0.1560276E-04 Eh
 * total energy  :   -35.1801725 Eh     change       -0.2050884E-04 Eh
 * total energy  :   -35.1801912 Eh     change       -0.1866897E-04 Eh
 * total energy  :   -35.1814565 Eh     change       -0.2658028E-04 Eh
 * total energy  :   -35.1814811 Eh     change       -0.2454797E-04 Eh
 * total energy  :   -35.1815043 Eh     change       -0.2323141E-04 Eh
 * total energy  :   -35.1815138 Eh     change       -0.9497576E-05 Eh
 * total energy  :   -35.1815260 Eh     change       -0.1222227E-04 Eh
 * total energy  :   -35.1815396 Eh     change       -0.1360099E-04 Eh
 * total energy  :   -35.1815522 Eh     change       -0.1256124E-04 Eh
 * total energy  :   -35.1815610 Eh     change       -0.8838123E-05 Eh
 * total energy  :   -35.1815650 Eh     change       -0.3980795E-05 Eh
   *** GEOMETRY OPTIMIZATION CONVERGED AFTER 59 ITERATIONS ***

 final structure:
================
33
 xtb: 6.7.1 (edcfbbe)
C            2.07798853968818       -0.21819691244951        0.00890175445868
C            0.85789034581840       -1.03739149902820       -0.39502449412120
C            0.56749979533404       -2.18481977886282        0.58028530013374
C            0.04777612242861       -1.72811615505972        1.95032053691797
N           -1.42309743845382       -1.87765744477215        2.19436597210906
C           -2.17392884169669       -1.16925751300877        1.14485617259039
C           -1.78619974996142       -3.32301373164219        2.23458194871504
C           -3.22527597858164       -3.57938384694185        2.66821632758207
C           -3.48852799904334       -2.96608085771179        4.03869427884369
C           -3.14721024569173       -1.48075260057337        4.00227637690388
C           -1.71263527585666       -1.27345158498374        3.52958603437497
H            1.94078022624190        0.27363001073132        0.96957936919395
H            2.26945044178899        0.55046470373432       -0.73402078545171
H            2.95811700163333       -0.85296093683819        0.07333789004361
H           -0.00681813740335       -0.37944513368293       -0.49192272566435
H            1.04578489047489       -1.47274584406524       -1.37709753135870
H           -0.12010112930666       -2.88959290228959        0.11362457070664
H            1.50127141673034       -2.72634583733676        0.73840788070390
H            0.55589657857065       -2.28528483960444        2.73935272824940
H            0.28991366509363       -0.67182910092128        2.08268503433764
H           -1.87129781468418       -0.12402956549365        1.12214353436672
H           -1.97785613551933       -1.61728859308382        0.17418257723311
H           -3.24138505111978       -1.21673561452441        1.33752605068148
H           -1.11164449800346       -3.80839545227195        2.94361418280523
H           -1.61517009110147       -3.75550041921076        1.24871300849890
H           -3.37091014134946       -4.65914701316398        2.70673672317935
H           -3.93171424310912       -3.18768366104127        1.93590018091222
H           -4.53195923199509       -3.10372365328620        4.31665792708554
H           -2.87608671095098       -3.46710872716747        4.79035197472447
H           -3.85356601332837       -0.94578852626588        3.36708204737232
H           -3.22973847613798       -1.05220686371366        5.00131736550953
H           -1.48453223179235       -0.20699705174392        3.47869454448002
H           -1.03620358871011       -1.73551305372251        4.25241324388926

          :  Hamiltonian                  GFN2-xTB          :
         :: total energy             -35.181565029407 Eh    ::
         :: gradient norm              0.000341541288 Eh/a0 ::
         :: HOMO-LUMO gap              8.643248047711 eV    ::
         :: SCC energy               -35.683118370932 Eh    ::
         :: -> dispersion             -0.024873514101 Eh    ::
         :: repulsion energy           0.501553341525 Eh    ::

    * Orbital Energies and Occupations

         #    Occupation            Energy/Eh            Energy/eV
      -------------------------------------------------------------
         1        2.0000           -0.8584079             -23.3585
       ...           ...                  ...                  ...
        21        2.0000           -0.6398498             -17.4112
        22        2.0000           -0.6352394             -17.2857
        23        2.0000           -0.6323747             -17.2078
        24        2.0000           -0.6210581             -16.8999
        25        2.0000           -0.6055974             -16.4791
        26        2.0000           -0.6038528             -16.4317
        27        2.0000           -0.5929857             -16.1360
        28        2.0000           -0.5842240             -15.8975
        29        2.0000           -0.5828158             -15.8592
        30        2.0000           -0.5744404             -15.6313
        31        2.0000           -0.5664369             -15.4135
        32        2.0000           -0.5560963             -15.1322
        33        2.0000           -0.5491282             -14.9425 (HOMO)
        34                         -0.2314947              -6.2993 (LUMO)
        35                         -0.1655228              -4.5041
        36                         -0.1579164              -4.2971
        37                         -0.1386862              -3.7738
        38                         -0.0808267              -2.1994
        39                         -0.0703565              -1.9145
        40                         -0.0604163              -1.6440
        41                         -0.0527657              -1.4358
        42                         -0.0377506              -1.0272
        43                         -0.0260737              -0.7095
        44                         -0.0230666              -0.6277
       ...                                ...                  ...
        66                          0.1899722               5.1694
      -------------------------------------------------------------
                  HL-Gap            0.3176335 Eh            8.6432 eV

     #   Z          covCN         q      C6AA      α(0)
     1   6 C        3.752    -0.115    22.754     6.803
     2   6 C        3.799    -0.065    21.741     6.639
     3   6 C        3.800    -0.073    21.905     6.664
     4   6 C        3.763    -0.040    21.326     6.583
     5   7 N        3.621     0.119    19.196     6.507
     6   6 C        3.712    -0.089    22.336     6.753
     7   6 C        3.762    -0.032    21.188     6.562
     8   6 C        3.805    -0.072    21.880     6.659
     9   6 C        3.807    -0.072    21.870     6.657
    10   6 C        3.805    -0.072    21.875     6.658
    11   6 C        3.769    -0.033    21.195     6.561
    12   1 H        0.925     0.034     2.535     2.490
    13   1 H        0.925     0.057     2.230     2.335
    14   1 H        0.925     0.050     2.317     2.380
    15   1 H        0.924     0.038     2.478     2.462
    16   1 H        0.924     0.057     2.235     2.338
    17   1 H        0.925     0.049     2.328     2.386
    18   1 H        0.924     0.073     2.050     2.239
    19   1 H        0.924     0.075     2.027     2.227
    20   1 H        0.924     0.088     1.894     2.152
    21   1 H        0.925     0.092     1.860     2.133
    22   1 H        0.925     0.098     1.800     2.098
    23   1 H        0.925     0.100     1.785     2.089
    24   1 H        0.924     0.083     1.950     2.184
    25   1 H        0.925     0.081     1.965     2.192
    26   1 H        0.924     0.077     2.008     2.216
    27   1 H        0.924     0.061     2.192     2.315
    28   1 H        0.925     0.071     2.080     2.255
    29   1 H        0.924     0.057     2.236     2.338
    30   1 H        0.924     0.061     2.188     2.313
    31   1 H        0.925     0.078     2.000     2.212
    32   1 H        0.924     0.079     1.987     2.204
    33   1 H        0.924     0.082     1.955     2.186

Wiberg/Mayer (AO) data.
largest (>0.10) Wiberg bond orders for each atom

     #   Z sym  total        # sym  WBO       # sym  WBO       # sym  WBO
 ---------------------------------------------------------------------------
     1   6 C    3.993 --     2 C    1.021    14 H    0.986    13 H    0.984
                            12 H    0.984
     2   6 C    3.993 --     1 C    1.021     3 C    1.005    15 H    0.975
                            16 H    0.975
     3   6 C    3.984 --     2 C    1.005     4 C    1.003    18 H    0.969
                            17 H    0.965
     4   6 C    3.930 --     3 C    1.003    19 H    0.970    20 H    0.962
                             5 N    0.926
     5   7 N    3.805 --     6 C    0.962     7 C    0.932    11 C    0.930
                             4 C    0.926
     6   6 C    3.930 --    21 H    0.975    22 H    0.971    23 H    0.967
                             5 N    0.962
     7   6 C    3.935 --     8 C    1.008    24 H    0.967    25 H    0.963
                             5 N    0.932
     8   6 C    3.987 --     9 C    1.009     7 C    1.008    27 H    0.970
                            26 H    0.966
     9   6 C    3.992 --     8 C    1.009    10 C    1.009    29 H    0.975
                            28 H    0.972
    10   6 C    3.986 --     9 C    1.009    11 C    1.008    30 H    0.970
                            31 H    0.965
    11   6 C    3.935 --    10 C    1.008    32 H    0.968    33 H    0.967
                             5 N    0.930
    12   1 H    0.999 --     1 C    0.984
    13   1 H    0.997 --     1 C    0.984
    14   1 H    0.997 --     1 C    0.986
    15   1 H    0.999 --     2 C    0.975
    16   1 H    0.996 --     2 C    0.975
    17   1 H    0.998 --     3 C    0.965
    18   1 H    0.994 --     3 C    0.969
    19   1 H    0.994 --     4 C    0.970
    20   1 H    0.992 --     4 C    0.962
    21   1 H    0.992 --     6 C    0.975
    22   1 H    0.990 --     6 C    0.971
    23   1 H    0.990 --     6 C    0.967
    24   1 H    0.993 --     7 C    0.967
    25   1 H    0.993 --     7 C    0.963
    26   1 H    0.994 --     8 C    0.966
    27   1 H    0.996 --     8 C    0.970
    28   1 H    0.994 --     9 C    0.972
    29   1 H    0.997 --     9 C    0.975
    30   1 H    0.996 --    10 C    0.970
    31   1 H    0.994 --    10 C    0.965
    32   1 H    0.994 --    11 C    0.968
    33   1 H    0.993 --    11 C    0.967
 ---------------------------------------------------------------------------

molecular dipole:
                 x           y           z       tot (Debye)
 q only:       -2.835      -3.644       4.115
   full:       -2.752      -3.630       4.127      15.623

           -------------------------------------------------
          | TOTAL ENERGY              -35.181565029407 Eh   |
          | GRADIENT NORM               0.000341541288 Eh/α |
          | HOMO-LUMO GAP               8.643248047711 eV   |
           -------------------------------------------------

 * finished run on 2024/12/20 at 06:45:20.043
