   * xtb version 6.7.1 (edcfbbe) compiled by 'conda@3ef47c1a292c' on 2024-11-25

   ID    Z sym.   atoms
    1    6 C      1-9, 11-13
    2    7 N      10
    3    1 H      14-33

          program call               : xtb C0469.xyz --opt --namespace C0469 --charge +1
          :  Hamiltonian                  GFN2-xTB          :
 * total energy  :   -38.4183750 Eh     change       -0.1713616E-09 Eh
 * total energy  :   -38.4245371 Eh     change       -0.6162132E-02 Eh
 * total energy  :   -38.4260820 Eh     change       -0.1544835E-02 Eh
 * total energy  :   -38.4262664 Eh     change       -0.1844863E-03 Eh
 * total energy  :   -38.4264078 Eh     change       -0.1413196E-03 Eh
 * total energy  :   -38.4264764 Eh     change       -0.6859847E-04 Eh
 * total energy  :   -38.4265802 Eh     change       -0.1038594E-03 Eh
 * total energy  :   -38.4266494 Eh     change       -0.6913971E-04 Eh
 * total energy  :   -38.4266977 Eh     change       -0.4835074E-04 Eh
 * total energy  :   -38.4267270 Eh     change       -0.2924489E-04 Eh
 * total energy  :   -38.4268702 Eh     change       -0.2747158E-04 Eh
 * total energy  :   -38.4269079 Eh     change       -0.3771049E-04 Eh
 * total energy  :   -38.4269521 Eh     change       -0.4419006E-04 Eh
 * total energy  :   -38.4269951 Eh     change       -0.4299703E-04 Eh
 * total energy  :   -38.4270299 Eh     change       -0.3476045E-04 Eh
 * total energy  :   -38.4270470 Eh     change       -0.1709898E-04 Eh
 * total energy  :   -38.4270486 Eh     change       -0.1661867E-05 Eh
 * total energy  :   -38.4270568 Eh     change       -0.8153032E-05 Eh
 * total energy  :   -38.4270601 Eh     change       -0.3256305E-05 Eh
   *** GEOMETRY OPTIMIZATION CONVERGED AFTER 23 ITERATIONS ***

 final structure:
================
33
 xtb: 6.7.1 (edcfbbe)
C            2.62860222880260        0.97872909241291       -0.63649560999611
C            1.32333697351355        0.31816398379478       -0.32873100252246
C            0.14453746614087        1.05466956406308       -0.34107285808302
C           -1.07370120142308        0.45281929745211       -0.04941174911309
C           -1.11190095870155       -0.90580723714580        0.24291858002698
C            0.05404407780804       -1.66120489744786        0.26472950267724
C            1.26077463330432       -1.03280641383790       -0.01525655544956
C            0.00218611636731       -3.12760287024753        0.54900717877863
C           -2.34648349278324        1.25749898568088       -0.09119047929944
N           -2.72420397025100        1.88134111228667        1.22576081549855
C           -1.65837471540087        2.78902454845519        1.68222141042178
C           -3.97076112101386        2.64589885381195        1.04665677537214
C           -2.93675934845688        0.83597601106119        2.24080239977200
H            2.51640962170544        1.70319716269529       -1.43982630518315
H            2.99718884526367        1.50805837559911        0.24264799081142
H            3.37607210764317        0.24561431247739       -0.92528668387106
H            0.18363008350855        2.10154142107184       -0.60668570649874
H           -2.05709353970853       -1.39505902997794        0.43073890371653
H            2.17035704003429       -1.61424985018050       -0.00653715870007
H           -0.79428912467118       -3.36573380749783        1.25083817393092
H           -0.19215294529983       -3.67283388657323       -0.37523139034834
H            0.94822231678927       -3.47965639826818        0.95202828920599
H           -2.24501856261748        2.06708410722681       -0.81681404449306
H           -3.17660578544606        0.61767066042662       -0.39743797681703
H           -1.50251991643640        3.58163738546412        0.95269094664268
H           -1.93282803897407        3.23912910053324        2.63451725370966
H           -0.72869164758906        2.23595150082485        1.80501640995085
H           -4.77247118424006        1.99023551015181        0.71094443144904
H           -4.26773767352160        3.10513414396089        1.98819390129272
H           -3.83029184202864        3.43093666807823        0.30550428044823
H           -3.73932216165583        0.16934619363420        1.93034415727076
H           -2.02531514881025        0.25445495136297        2.36950625429166
H           -3.20693913185237        1.28850144865649        3.19316986510633

          :  Hamiltonian                  GFN2-xTB          :
         :: total energy             -38.427060053711 Eh    ::
         :: gradient norm              0.000686784396 Eh/a0 ::
         :: HOMO-LUMO gap              4.241563042885 eV    ::
         :: SCC energy               -39.059515458751 Eh    ::
         :: -> dispersion             -0.027377577646 Eh    ::
         :: repulsion energy           0.632455405040 Eh    ::

    * Orbital Energies and Occupations

         #    Occupation            Energy/Eh            Energy/eV
      -------------------------------------------------------------
         1        2.0000           -0.8630707             -23.4853
       ...           ...                  ...                  ...
        24        2.0000           -0.6170657             -16.7912
        25        2.0000           -0.6109699             -16.6253
        26        2.0000           -0.6058350             -16.4856
        27        2.0000           -0.5866302             -15.9630
        28        2.0000           -0.5850704             -15.9206
        29        2.0000           -0.5835417             -15.8790
        30        2.0000           -0.5642859             -15.3550
        31        2.0000           -0.5627062             -15.3120
        32        2.0000           -0.5532858             -15.0557
        33        2.0000           -0.5381427             -14.6436
        34        2.0000           -0.5350451             -14.5593
        35        2.0000           -0.5121585             -13.9365
        36        2.0000           -0.5042214             -13.7206 (HOMO)
        37                         -0.3483468              -9.4790 (LUMO)
        38                         -0.3345767              -9.1043
        39                         -0.2304809              -6.2717
        40                         -0.1981957              -5.3932
        41                         -0.1443051              -3.9267
        42                         -0.1392648              -3.7896
        43                         -0.1372615              -3.7351
        44                         -0.0587954              -1.5999
        45                         -0.0356332              -0.9696
        46                          0.0002783               0.0076
        47                          0.0069854               0.1901
       ...                                ...                  ...
        72                          0.5261716              14.3179
      -------------------------------------------------------------
                  HL-Gap            0.1558746 Eh            4.2416 eV

     #   Z          covCN         q      C6AA      α(0)
     1   6 C        3.759    -0.119    22.829     6.812
     2   6 C        2.963     0.027    27.388     8.584
     3   6 C        2.929    -0.059    29.455     8.901
     4   6 C        2.964    -0.013    28.346     8.733
     5   6 C        2.928    -0.059    29.461     8.901
     6   6 C        2.963     0.027    27.392     8.585
     7   6 C        2.931    -0.043    29.075     8.843
     8   6 C        3.758    -0.119    22.828     6.812
     9   6 C        3.766    -0.042    21.370     6.589
    10   7 N        3.622     0.142    18.827     6.444
    11   6 C        3.722    -0.095    22.427     6.763
    12   6 C        3.725    -0.096    22.442     6.764
    13   6 C        3.722    -0.095    22.428     6.763
    14   1 H        0.925     0.058     2.225     2.333
    15   1 H        0.924     0.061     2.192     2.315
    16   1 H        0.925     0.061     2.190     2.314
    17   1 H        0.926     0.036     2.505     2.475
    18   1 H        0.926     0.036     2.506     2.475
    19   1 H        0.926     0.056     2.242     2.341
    20   1 H        0.925     0.052     2.290     2.367
    21   1 H        0.924     0.068     2.113     2.273
    22   1 H        0.925     0.060     2.200     2.320
    23   1 H        0.924     0.083     1.945     2.181
    24   1 H        0.924     0.083     1.945     2.181
    25   1 H        0.925     0.097     1.812     2.105
    26   1 H        0.925     0.095     1.828     2.114
    27   1 H        0.925     0.105     1.740     2.063
    28   1 H        0.925     0.098     1.805     2.101
    29   1 H        0.925     0.099     1.796     2.096
    30   1 H        0.925     0.098     1.805     2.101
    31   1 H        0.925     0.097     1.814     2.106
    32   1 H        0.925     0.105     1.738     2.062
    33   1 H        0.925     0.095     1.828     2.114

Wiberg/Mayer (AO) data.
largest (>0.10) Wiberg bond orders for each atom

     #   Z sym  total        # sym  WBO       # sym  WBO       # sym  WBO
 ---------------------------------------------------------------------------
     1   6 C    3.992 --     2 C    1.032    16 H    0.981    14 H    0.976
                            15 H    0.962
     2   6 C    3.988 --     7 C    1.414     3 C    1.402     1 C    1.032
                             5 C    0.100
     3   6 C    3.989 --     4 C    1.410     2 C    1.402    17 H    0.967
                             6 C    0.100
     4   6 C    3.975 --     3 C    1.410     5 C    1.407     9 C    1.004
                             7 C    0.102
     5   6 C    3.989 --     4 C    1.407     6 C    1.405    18 H    0.967
                             2 C    0.100
     6   6 C    3.988 --     7 C    1.410     5 C    1.405     8 C    1.033
                             3 C    0.100
     7   6 C    3.989 --     2 C    1.414     6 C    1.410    19 H    0.966
                             4 C    0.102
     8   6 C    3.993 --     6 C    1.033    22 H    0.980    20 H    0.979
                            21 H    0.959
     9   6 C    3.923 --     4 C    1.004    23 H    0.966    24 H    0.966
                            10 N    0.904
    10   7 N    3.814 --    12 C    0.961    13 C    0.959    11 C    0.959
                             9 C    0.904
    11   6 C    3.927 --    25 H    0.975    26 H    0.975    27 H    0.970
                            10 N    0.959
    12   6 C    3.930 --    28 H    0.975    30 H    0.975    29 H    0.974
                            10 N    0.961
    13   6 C    3.927 --    31 H    0.975    33 H    0.975    32 H    0.970
                            10 N    0.959
    14   1 H    0.996 --     1 C    0.976
    15   1 H    0.996 --     1 C    0.962
    16   1 H    0.996 --     1 C    0.981
    17   1 H    0.998 --     3 C    0.967
    18   1 H    0.998 --     5 C    0.967
    19   1 H    0.996 --     7 C    0.966
    20   1 H    0.997 --     8 C    0.979
    21   1 H    0.995 --     8 C    0.959
    22   1 H    0.996 --     8 C    0.980
    23   1 H    0.993 --     9 C    0.966
    24   1 H    0.993 --     9 C    0.966
    25   1 H    0.991 --    11 C    0.975
    26   1 H    0.991 --    11 C    0.975
    27   1 H    0.989 --    11 C    0.970
    28   1 H    0.990 --    12 C    0.975
    29   1 H    0.989 --    12 C    0.974
    30   1 H    0.990 --    12 C    0.975
    31   1 H    0.991 --    13 C    0.975
    32   1 H    0.989 --    13 C    0.970
    33   1 H    0.991 --    13 C    0.975
 ---------------------------------------------------------------------------

molecular dipole:
                 x           y           z       tot (Debye)
 q only:       -4.049       2.816       2.184
   full:       -4.160       2.877       2.144      13.963

           -------------------------------------------------
          | TOTAL ENERGY              -38.427060053711 Eh   |
          | GRADIENT NORM               0.000686784396 Eh/α |
          | HOMO-LUMO GAP               4.241563042885 eV   |
           -------------------------------------------------

 * finished run on 2024/12/20 at 06:45:55.672
