   * xtb version 6.7.1 (edcfbbe) compiled by 'conda@3ef47c1a292c' on 2024-11-25

   ID    Z sym.   atoms
    1    8 O      1, 10, 11, 20, 28, 29
    2    6 C      2-8, 12, 14, 15, 17-19, 21-26
    3    7 N      9, 13, 16, 27
    4    1 H      30-44

          program call               : xtb C0465.xyz --opt --namespace C0465 --charge +1
          :  Hamiltonian                  GFN2-xTB          :
 * total energy  :   -83.7816567 Eh     change       -0.1414946E-08 Eh
 * total energy  :   -83.7963484 Eh     change       -0.1469167E-01 Eh
 * total energy  :   -83.7995103 Eh     change       -0.3161865E-02 Eh
 * total energy  :   -83.7998327 Eh     change       -0.3224127E-03 Eh
 * total energy  :   -83.8007153 Eh     change       -0.8826482E-03 Eh
 * total energy  :   -83.8010133 Eh     change       -0.2979251E-03 Eh
 * total energy  :   -83.8013007 Eh     change       -0.2874544E-03 Eh
 * total energy  :   -83.8015545 Eh     change       -0.2538007E-03 Eh
 * total energy  :   -83.8018778 Eh     change       -0.3232648E-03 Eh
 * total energy  :   -83.8022026 Eh     change       -0.3248600E-03 Eh
 * total energy  :   -83.8164236 Eh     change       -0.1729808E-04 Eh
 * total energy  :   -83.8164390 Eh     change       -0.1541058E-04 Eh
 * total energy  :   -83.8164508 Eh     change       -0.1181645E-04 Eh
 * total energy  :   -83.8164612 Eh     change       -0.1034257E-04 Eh
 * total energy  :   -83.8164702 Eh     change       -0.9001297E-05 Eh
 * total energy  :   -83.8164784 Eh     change       -0.8273493E-05 Eh
 * total energy  :   -83.8164850 Eh     change       -0.6553552E-05 Eh
 * total energy  :   -83.8164900 Eh     change       -0.5008429E-05 Eh
 * total energy  :   -83.8164920 Eh     change       -0.1991925E-05 Eh
   *** GEOMETRY OPTIMIZATION CONVERGED AFTER 122 ITERATIONS ***

 final structure:
================
44
 xtb: 6.7.1 (edcfbbe)
O            2.83326650022013        2.02372439598049        0.65284000194007
C            3.46845209453139        1.11165971293371        0.18264046927563
C            4.06264543859360        1.13150393960690       -1.16071987770768
C            4.67434610394082        0.01948497245925       -1.74973518560308
C            5.18660989675403        0.11321322194735       -3.02820337709969
C            5.09221366590394        1.31656652048164       -3.71566957961912
C            4.49202927482816        2.43253640547998       -3.14928935041169
C            3.97697056970816        2.33466324325169       -1.87328499540209
N            5.63437129131042        1.40539853144657       -5.06887777710155
O            6.12234777036754        0.40190117089777       -5.52739569627373
O            5.55079445381428        2.47396217525587       -5.62087956555921
C            3.66016557596322       -0.17674191063821        1.02427721363389
N            3.15813231743039        0.06310683824420        2.34671818488020
C            3.87169807081806        0.08236652155007        3.50896809506679
C            3.03386067155919        0.51149751663150        4.49009134611824
N            1.82887406557603        0.77396576138964        3.90754228159659
C            1.92519894824015        0.49064596783136        2.61040656430083
C            0.60213712429127        1.11786286817053        4.56749924708986
C           -0.43466275713597       -0.00455491872636        4.30443966060324
O           -0.15839953656676       -0.88012695789947        3.52133919064416
C           -1.71432092157273        0.08350142729467        5.02095625562679
C           -2.59888981289262       -0.99270746658341        4.87361086725816
C           -3.83002645224951       -0.97912423270932        5.49602158995281
C           -4.17811693964078        0.12189466886139        6.26607405433063
C           -3.31746120291295        1.20064438813667        6.42449447097146
C           -2.08409597576993        1.18197317134870        5.80475662095026
N           -5.48216135907891        0.15217595270399        6.92286311873997
O           -6.19074288451268       -0.81177807502832        6.77342190000627
O           -5.74725184342236        1.13991857275294        7.56279280631729
H            4.74599296428059       -0.92215943109020       -1.23013782270503
H            5.65900448060412       -0.73035650866941       -3.50887001450213
H            4.43616640040415        3.35053002267646       -3.71464934782217
H            3.50060192895498        3.18176269403600       -1.40409471058688
H            3.09951363251928       -0.98625862577930        0.54675322450521
H            4.71514462073492       -0.44759271146470        1.07973525125632
H            4.90026451382990       -0.21071242774897        3.56306256135746
H            3.21520378586123        0.65129590036454        5.53619934692110
H            1.13537962020356        0.58980917220848        1.89283601668540
H            0.78392006586304        1.23000564205421        5.63706354939869
H            0.20560286496768        2.05470726649113        4.16407383967075
H           -2.29787211707203       -1.83111843086494        4.26441141610866
H           -4.52558259332431       -1.79858703998751        5.39529483130729
H           -3.63079451464038        2.03786075466558        7.03003980195484
H           -1.42900980111744        2.02897933999089        5.92820352208665

          :  Hamiltonian                  GFN2-xTB          :
         :: total energy             -83.816491981974 Eh    ::
         :: gradient norm              0.000183999447 Eh/a0 ::
         :: HOMO-LUMO gap              2.381444476772 eV    ::
         :: SCC energy               -84.889080054589 Eh    ::
         :: -> dispersion             -0.046391795524 Eh    ::
         :: repulsion energy           1.072588072615 Eh    ::

    * Orbital Energies and Occupations

         #    Occupation            Energy/Eh            Energy/eV
      -------------------------------------------------------------
         1        2.0000           -0.8923356             -24.2817
       ...           ...                  ...                  ...
        61        2.0000           -0.5636837             -15.3386
        62        2.0000           -0.5603780             -15.2487
        63        2.0000           -0.5601389             -15.2422
        64        2.0000           -0.5595038             -15.2249
        65        2.0000           -0.5593426             -15.2205
        66        2.0000           -0.5569812             -15.1562
        67        2.0000           -0.5523008             -15.0289
        68        2.0000           -0.5521043             -15.0235
        69        2.0000           -0.5495253             -14.9533
        70        2.0000           -0.5401647             -14.6986
        71        2.0000           -0.5400048             -14.6943
        72        2.0000           -0.5284517             -14.3799
        73        2.0000           -0.5282885             -14.3755 (HOMO)
        74                         -0.4407721             -11.9940 (LUMO)
        75                         -0.4404285             -11.9847
        76                         -0.4027278             -10.9588
        77                         -0.3944788             -10.7343
        78                         -0.3942944             -10.7293
        79                         -0.3704321             -10.0800
        80                         -0.3691560             -10.0452
        81                         -0.3689684             -10.0401
        82                         -0.3239324              -8.8146
        83                         -0.3237931              -8.8109
        84                         -0.2263657              -6.1597
       ...                                ...                  ...
       131                          0.5304605              14.4346
      -------------------------------------------------------------
                  HL-Gap            0.0875165 Eh            2.3814 eV

     #   Z          covCN         q      C6AA      α(0)
     1   8 O        0.857    -0.340    20.518     6.073
     2   6 C        2.822     0.231    23.156     7.885
     3   6 C        2.970    -0.007    28.202     8.711
     4   6 C        2.920    -0.023    28.584     8.767
     5   6 C        2.916    -0.015    28.383     8.736
     6   6 C        2.917     0.021    27.535     8.605
     7   6 C        2.914    -0.013    28.338     8.729
     8   6 C        2.929    -0.006    28.174     8.705
     9   7 N        2.758     0.556    13.412     5.439
    10   8 O        0.929    -0.356    20.795     6.116
    11   8 O        0.929    -0.353    20.732     6.106
    12   6 C        3.743    -0.053    21.602     6.630
    13   7 N        2.873     0.078    19.889     6.624
    14   6 C        3.065    -0.007    28.117     8.695
    15   6 C        3.065    -0.007    28.117     8.695
    16   7 N        2.873     0.078    19.884     6.623
    17   6 C        3.092     0.068    26.368     8.417
    18   6 C        3.743    -0.053    21.603     6.631
    19   6 C        2.822     0.231    23.156     7.885
    20   8 O        0.857    -0.340    20.513     6.072
    21   6 C        2.970    -0.008    28.203     8.711
    22   6 C        2.928    -0.006    28.174     8.705
    23   6 C        2.914    -0.013    28.338     8.729
    24   6 C        2.917     0.021    27.537     8.605
    25   6 C        2.916    -0.015    28.384     8.736
    26   6 C        2.920    -0.023    28.587     8.768
    27   7 N        2.758     0.556    13.413     5.439
    28   8 O        0.929    -0.353    20.733     6.107
    29   8 O        0.929    -0.356    20.797     6.116
    30   1 H        0.926     0.062     2.177     2.307
    31   1 H        0.926     0.104     1.751     2.069
    32   1 H        0.926     0.107     1.723     2.053
    33   1 H        0.926     0.092     1.864     2.135
    34   1 H        0.924     0.110     1.693     2.035
    35   1 H        0.924     0.108     1.718     2.050
    36   1 H        0.926     0.106     1.727     2.055
    37   1 H        0.926     0.106     1.727     2.055
    38   1 H        0.926     0.129     1.539     1.940
    39   1 H        0.924     0.108     1.718     2.049
    40   1 H        0.924     0.110     1.693     2.035
    41   1 H        0.926     0.091     1.865     2.136
    42   1 H        0.926     0.107     1.723     2.053
    43   1 H        0.926     0.104     1.752     2.070
    44   1 H        0.926     0.062     2.179     2.308

Wiberg/Mayer (AO) data.
largest (>0.10) Wiberg bond orders for each atom

     #   Z sym  total        # sym  WBO       # sym  WBO       # sym  WBO
 ---------------------------------------------------------------------------
     1   8 O    2.106 --     2 C    1.830
     2   6 C    3.928 --     1 O    1.830     3 C    1.056    12 C    0.934
     3   6 C    3.985 --     4 C    1.363     8 C    1.361     2 C    1.056
     4   6 C    3.989 --     5 C    1.466     3 C    1.363    30 H    0.964
                             7 C    0.104
     5   6 C    3.981 --     4 C    1.466     6 C    1.386    31 H    0.956
                             8 C    0.103
     6   6 C    3.972 --     7 C    1.394     5 C    1.386     9 N    0.935
     7   6 C    3.980 --     8 C    1.457     6 C    1.394    32 H    0.955
                             4 C    0.104
     8   6 C    3.981 --     7 C    1.457     3 C    1.361    33 H    0.961
                             5 C    0.103
     9   7 N    3.917 --    11 O    1.474    10 O    1.470     6 C    0.935
    10   8 O    1.964 --     9 N    1.470    11 O    0.386
    11   8 O    1.967 --     9 N    1.474    10 O    0.386
    12   6 C    3.949 --    13 N    0.995    35 H    0.953    34 H    0.938
                             2 C    0.934
    13   7 N    3.710 --    17 C    1.349    14 C    1.211    12 C    0.995
    14   6 C    3.946 --    15 C    1.605    13 N    1.211    36 H    0.961
    15   6 C    3.946 --    14 C    1.605    16 N    1.211    37 H    0.961
    16   7 N    3.711 --    17 C    1.350    15 C    1.211    18 C    0.995
    17   6 C    3.944 --    16 N    1.350    13 N    1.349    38 H    0.951
    18   6 C    3.949 --    16 N    0.995    39 H    0.953    40 H    0.938
                            19 C    0.934
    19   6 C    3.928 --    20 O    1.830    21 C    1.056    18 C    0.934
    20   8 O    2.106 --    19 C    1.830
    21   6 C    3.986 --    26 C    1.363    22 C    1.361    19 C    1.056
    22   6 C    3.981 --    23 C    1.456    21 C    1.361    41 H    0.961
                            25 C    0.103
    23   6 C    3.980 --    22 C    1.456    24 C    1.394    42 H    0.955
                            26 C    0.104
    24   6 C    3.972 --    23 C    1.394    25 C    1.386    27 N    0.935
    25   6 C    3.981 --    26 C    1.466    24 C    1.386    43 H    0.956
                            22 C    0.103
    26   6 C    3.989 --    25 C    1.466    21 C    1.363    44 H    0.964
                            23 C    0.104
    27   7 N    3.917 --    28 O    1.474    29 O    1.470    24 C    0.935
    28   8 O    1.967 --    27 N    1.474    29 O    0.386
    29   8 O    1.964 --    27 N    1.470    28 O    0.386
    30   1 H    0.996 --     4 C    0.964
    31   1 H    0.989 --     5 C    0.956
    32   1 H    0.988 --     7 C    0.955
    33   1 H    0.991 --     8 C    0.961
    34   1 H    0.988 --    12 C    0.938
    35   1 H    0.988 --    12 C    0.953
    36   1 H    0.988 --    14 C    0.961
    37   1 H    0.988 --    15 C    0.961
    38   1 H    0.983 --    17 C    0.951
    39   1 H    0.988 --    18 C    0.953
    40   1 H    0.988 --    18 C    0.938
    41   1 H    0.991 --    22 C    0.961
    42   1 H    0.988 --    23 C    0.955
    43   1 H    0.989 --    25 C    0.956
    44   1 H    0.996 --    26 C    0.964
 ---------------------------------------------------------------------------

molecular dipole:
                 x           y           z       tot (Debye)
 q only:        4.913       0.770       6.076
   full:        5.029       0.755       6.179      20.341

           -------------------------------------------------
          | TOTAL ENERGY              -83.816491981974 Eh   |
          | GRADIENT NORM               0.000183999447 Eh/α |
          | HOMO-LUMO GAP               2.381444476772 eV   |
           -------------------------------------------------

 * finished run on 2024/12/20 at 06:45:37.359
