   * xtb version 6.7.1 (edcfbbe) compiled by 'conda@3ef47c1a292c' on 2024-11-25

   ID    Z sym.   atoms
    1    6 C      1, 3
    2    7 N      2, 4-8
    3    1 H      9-15

          program call               : xtb C0464.xyz --opt --namespace C0464 --charge +1
          :  Hamiltonian                  GFN2-xTB          :
 * total energy  :   -24.9125038 Eh     change       -0.3964828E-11 Eh
 * total energy  :   -24.9186841 Eh     change       -0.6180304E-02 Eh
 * total energy  :   -24.9205380 Eh     change       -0.1853951E-02 Eh
 * total energy  :   -24.9209858 Eh     change       -0.4477700E-03 Eh
 * total energy  :   -24.9216173 Eh     change       -0.6314710E-03 Eh
 * total energy  :   -24.9219784 Eh     change       -0.3611375E-03 Eh
 * total energy  :   -24.9223392 Eh     change       -0.3607901E-03 Eh
 * total energy  :   -24.9226519 Eh     change       -0.3126679E-03 Eh
 * total energy  :   -24.9228662 Eh     change       -0.2142871E-03 Eh
 * total energy  :   -24.9231036 Eh     change       -0.2374865E-03 Eh
 * total energy  :   -24.9237580 Eh     change       -0.8489570E-05 Eh
 * total energy  :   -24.9237675 Eh     change       -0.9509934E-05 Eh
 * total energy  :   -24.9237768 Eh     change       -0.9347926E-05 Eh
 * total energy  :   -24.9237852 Eh     change       -0.8376946E-05 Eh
 * total energy  :   -24.9237941 Eh     change       -0.8869145E-05 Eh
 * total energy  :   -24.9237993 Eh     change       -0.5185555E-05 Eh
 * total energy  :   -24.9238045 Eh     change       -0.5193226E-05 Eh
 * total energy  :   -24.9238079 Eh     change       -0.3459380E-05 Eh
 * total energy  :   -24.9238108 Eh     change       -0.2929879E-05 Eh
   *** GEOMETRY OPTIMIZATION CONVERGED AFTER 31 ITERATIONS ***

 final structure:
================
15
 xtb: 6.7.1 (edcfbbe)
C            1.01089918190404        0.00553279613954        0.00797872268621
N            0.48954110260213        1.20044534714030        0.60986192141363
C           -0.61865580005357        1.37185476403633        1.35767939647655
N           -0.62344195153824        2.69768454344558        1.65631400458199
N            0.46109541246261        3.26179501052293        1.08396511178446
N            1.09698557190230        2.39187896889166        0.47935333352824
N           -1.58585162078081        3.32336911434898        2.40068833543019
N           -1.51984590847227        0.49196363280653        1.74608035615699
H            0.30780979888989       -0.39420500957961       -0.72355700849429
H            1.22210383480973       -0.74621553502126        0.76879797707417
H            1.93670939316232        0.27652188885146       -0.49634760926498
H           -1.97556298932033        4.12103386665734        1.90076393931035
H           -1.21789666205495        3.65333386794420        3.29242379934684
H           -2.30629784853196        0.81386252281391        2.29182589642998
H           -1.46548151498096       -0.47858577899786        1.48434182353954

          :  Hamiltonian                  GFN2-xTB          :
         :: total energy             -24.923810843282 Eh    ::
         :: gradient norm              0.000670978128 Eh/a0 ::
         :: HOMO-LUMO gap              3.956567819613 eV    ::
         :: SCC energy               -25.198881823082 Eh    ::
         :: -> dispersion             -0.009604050517 Eh    ::
         :: repulsion energy           0.275070979801 Eh    ::

    * Orbital Energies and Occupations

         #    Occupation            Energy/Eh            Energy/eV
      -------------------------------------------------------------
         1        2.0000           -0.9561847             -26.0191
       ...           ...                  ...                  ...
        10        2.0000           -0.7635492             -20.7772
        11        2.0000           -0.7474422             -20.3389
        12        2.0000           -0.7403704             -20.1465
        13        2.0000           -0.7368669             -20.0512
        14        2.0000           -0.7133097             -19.4101
        15        2.0000           -0.7043908             -19.1674
        16        2.0000           -0.6858241             -18.6622
        17        2.0000           -0.6591174             -17.9355
        18        2.0000           -0.6354610             -17.2918
        19        2.0000           -0.6290233             -17.1166
        20        2.0000           -0.6161860             -16.7673
        21        2.0000           -0.6016632             -16.3721
        22        2.0000           -0.5850736             -15.9207 (HOMO)
        23                         -0.4396724             -11.9641 (LUMO)
        24                         -0.4147383             -11.2856
        25                         -0.2605592              -7.0902
        26                         -0.1957017              -5.3253
        27                         -0.1643249              -4.4715
        28                         -0.1409213              -3.8347
        29                         -0.0874563              -2.3798
        30                         -0.0705991              -1.9211
        31                         -0.0185377              -0.5044
        32                          0.0146385               0.3983
        33                          0.0194217               0.5285
       ...                                ...                  ...
        39                          0.3615732               9.8389
      -------------------------------------------------------------
                  HL-Gap            0.1454012 Eh            3.9566 eV

     #   Z          covCN         q      C6AA      α(0)
     1   6 C        3.688    -0.090    22.425     6.778
     2   7 N        2.987     0.076    19.925     6.630
     3   6 C        2.911     0.178    24.192     8.065
     4   7 N        3.068     0.139    18.886     6.454
     5   7 N        2.148    -0.058    22.869     7.096
     6   7 N        2.170    -0.028    22.248     6.999
     7   7 N        2.705    -0.265    26.868     7.698
     8   7 N        2.636    -0.213    25.658     7.523
     9   1 H        0.924     0.105     1.743     2.065
    10   1 H        0.924     0.104     1.748     2.068
    11   1 H        0.925     0.134     1.504     1.918
    12   1 H        0.860     0.216     1.029     1.589
    13   1 H        0.860     0.212     1.048     1.604
    14   1 H        0.860     0.251     0.878     1.468
    15   1 H        0.860     0.242     0.915     1.498

Wiberg/Mayer (AO) data.
largest (>0.10) Wiberg bond orders for each atom

     #   Z sym  total        # sym  WBO       # sym  WBO       # sym  WBO
 ---------------------------------------------------------------------------
     1   6 C    3.920 --     2 N    0.982    11 H    0.966    10 H    0.963
                             9 H    0.962
     2   7 N    3.674 --     3 C    1.255     6 N    1.169     1 C    0.982
                             5 N    0.112     8 N    0.101
     3   6 C    3.976 --     8 N    1.331     2 N    1.255     4 N    1.221
     4   7 N    3.676 --     3 C    1.221     5 N    1.144     7 N    1.044
                             6 N    0.116
     5   7 N    3.060 --     6 N    1.654     4 N    1.144     2 N    0.112
     6   7 N    3.065 --     5 N    1.654     2 N    1.169     4 N    0.116
     7   7 N    3.003 --     4 N    1.044    12 H    0.928    13 H    0.927
     8   7 N    3.423 --     3 C    1.331    15 H    0.921    14 H    0.914
                             2 N    0.101
     9   1 H    0.989 --     1 C    0.962
    10   1 H    0.989 --     1 C    0.963
    11   1 H    0.982 --     1 C    0.966
    12   1 H    0.953 --     7 N    0.928
    13   1 H    0.955 --     7 N    0.927
    14   1 H    0.937 --     8 N    0.914
    15   1 H    0.941 --     8 N    0.921
 ---------------------------------------------------------------------------

molecular dipole:
                 x           y           z       tot (Debye)
 q only:       -1.441       2.141       2.665
   full:       -1.699       2.024       2.840       9.860

           -------------------------------------------------
          | TOTAL ENERGY              -24.923810843282 Eh   |
          | GRADIENT NORM               0.000670978128 Eh/α |
          | HOMO-LUMO GAP               3.956567819613 eV   |
           -------------------------------------------------

 * finished run on 2024/12/20 at 06:45:32.673
