   * xtb version 6.7.1 (edcfbbe) compiled by 'conda@3ef47c1a292c' on 2024-11-25

   ID    Z sym.   atoms
    1    6 C      1-12, 14-22
    2    7 N      13
    3    1 H      23-54

          program call               : xtb C0467.xyz --opt --namespace C0467 --charge +1
          :  Hamiltonian                  GFN2-xTB          :
 * total energy  :   -63.8327584 Eh     change       -0.2972882E-08 Eh
 * total energy  :   -63.8378800 Eh     change       -0.5121638E-02 Eh
 * total energy  :   -63.8388837 Eh     change       -0.1003703E-02 Eh
 * total energy  :   -63.8390284 Eh     change       -0.1446405E-03 Eh
 * total energy  :   -63.8392153 Eh     change       -0.1869542E-03 Eh
 * total energy  :   -63.8393219 Eh     change       -0.1065777E-03 Eh
 * total energy  :   -63.8394725 Eh     change       -0.1505846E-03 Eh
 * total energy  :   -63.8396206 Eh     change       -0.1481116E-03 Eh
 * total energy  :   -63.8397208 Eh     change       -0.1002346E-03 Eh
 * total energy  :   -63.8398308 Eh     change       -0.1099473E-03 Eh
 * total energy  :   -63.8430538 Eh     change       -0.3551990E-04 Eh
 * total energy  :   -63.8430668 Eh     change       -0.1302544E-04 Eh
 * total energy  :   -63.8430926 Eh     change       -0.2577002E-04 Eh
 * total energy  :   -63.8431063 Eh     change       -0.1377095E-04 Eh
 * total energy  :   -63.8431185 Eh     change       -0.1212870E-04 Eh
 * total energy  :   -63.8431279 Eh     change       -0.9400734E-05 Eh
 * total energy  :   -63.8431345 Eh     change       -0.6655553E-05 Eh
 * total energy  :   -63.8431401 Eh     change       -0.5600652E-05 Eh
 * total energy  :   -63.8431428 Eh     change       -0.2658392E-05 Eh
   *** GEOMETRY OPTIMIZATION CONVERGED AFTER 45 ITERATIONS ***

 final structure:
================
54
 xtb: 6.7.1 (edcfbbe)
C            1.20356416402668       -0.08043374862698        0.27590193004234
C            0.84791455161492        0.36582062719476       -1.13731218560879
C            1.25703223692169       -0.64421016850589       -2.21068052525560
C            0.59853315461410       -2.01986427253101       -2.08754660271194
C           -0.93076498352144       -2.01207482559023       -2.13126347954941
C           -1.53800876464902       -1.40256686670846       -3.39638558558685
C           -1.11057617431424       -2.07072125926026       -4.70459820066131
C           -1.43466732115527       -3.56259946118101       -4.80280569037026
C           -2.91805930553862       -3.91322754216587       -4.65993656628152
C           -3.84702177149736       -3.20997185431021       -5.65350531542251
C           -3.50628089447531       -3.43666545009856       -7.12591968961519
C           -3.68342453212657       -4.89009403015473       -7.58750051855676
N           -5.08694889894950       -5.25690837308188       -7.58150372330199
C           -5.85803682430705       -4.89463789069491       -8.63883753794777
C           -7.19704627415459       -5.14112594157038       -8.65789598667107
C           -7.82024433643202       -5.78010458876635       -7.56315031487969
C           -6.99026718280841       -6.14859263184391       -6.46033891350720
C           -5.62398797581089       -5.85483689861630       -6.53176211546631
C           -7.56587972101537       -6.79322474506177       -5.34240113181813
C           -8.90776468769441       -7.05826428681650       -5.32719217004410
C           -9.72361114464812       -6.69502494632138       -6.41382803342835
C           -9.19502990889152       -6.06791901448364       -7.51253633531248
H            0.62634212112261       -0.95330799657092        0.57053423054136
H            0.99442489622352        0.71679377059947        0.98554655642955
H            2.26086244180886       -0.32751204442043        0.34196144295247
H           -0.22424494154376        0.56201151901110       -1.19839282421194
H            1.36108673533656        1.30722255365438       -1.34841754227499
H            1.03421510065783       -0.22035375363077       -3.19246782073004
H            2.33953887598293       -0.78534816872525       -2.15911942779464
H            0.98209740211667       -2.65514250504189       -2.88937994573343
H            0.90713271141465       -2.47823452858290       -1.14636575529479
H           -1.28180530998752       -3.04071054446205       -2.01691595130833
H           -1.30890110938537       -1.45264177168395       -1.27393501928313
H           -2.62669035358650       -1.43748575230417       -3.30580034313098
H           -1.25926540836763       -0.34915975538053       -3.45178948838258
H           -1.58086394451398       -1.53631672966187       -5.53367660261813
H           -0.03283049395943       -1.95500061139895       -4.82583439405664
H           -1.05752599433250       -3.93732230218323       -5.75796230075662
H           -0.89102215619379       -4.09480744180170       -4.02127808270082
H           -3.01893182116976       -4.99913754549007       -4.74749392503713
H           -3.24826309338823       -3.64868657531176       -3.65483150100742
H           -4.87841267229009       -3.52344686572879       -5.45912417632533
H           -3.80597769054125       -2.13706630690325       -5.46682586028803
H           -4.13364291596244       -2.78904758517846       -7.74254998365836
H           -2.46918505044759       -3.15739922386572       -7.30513240481486
H           -3.29724592664935       -5.00309784314599       -8.60227127305117
H           -3.13272794866840       -5.56024778695377       -6.92716543659979
H           -5.35376228543103       -4.40883555794333       -9.45939810404236
H           -7.78610665560891       -4.84916290441107       -9.51302449203393
H           -4.96768454697436       -6.12797744914942       -5.71734296494356
H           -6.93517754481776       -7.06933761379427       -4.51155259471068
H           -9.35229669125263       -7.55109291944766       -4.47665589245917
H          -10.77880203911644       -6.91677043085414       -6.37522043871751
H           -9.82056709565202       -5.78968916008221       -8.34603899194835

          :  Hamiltonian                  GFN2-xTB          :
         :: total energy             -63.843142784891 Eh    ::
         :: gradient norm              0.000493980856 Eh/a0 ::
         :: HOMO-LUMO gap              0.587221886177 eV    ::
         :: SCC energy               -64.891626240875 Eh    ::
         :: -> dispersion             -0.049100957069 Eh    ::
         :: repulsion energy           1.048483455984 Eh    ::

    * Orbital Energies and Occupations

         #    Occupation            Energy/Eh            Energy/eV
      -------------------------------------------------------------
         1        2.0000           -0.8593688             -23.3846
       ...           ...                  ...                  ...
        48        2.0000           -0.5450081             -14.8304
        49        2.0000           -0.5393000             -14.6751
        50        2.0000           -0.5318619             -14.4727
        51        2.0000           -0.5293588             -14.4046
        52        2.0000           -0.5184018             -14.1064
        53        2.0000           -0.5145556             -14.0018
        54        2.0000           -0.5070667             -13.7980
        55        2.0000           -0.4974322             -13.5358
        56        2.0000           -0.4933087             -13.4236
        57        2.0000           -0.4896770             -13.3248
        58        2.0000           -0.4745937             -12.9144
        59        2.0000           -0.4709614             -12.8155
        60        2.0000           -0.4686882             -12.7537 (HOMO)
        61        0.0000           -0.4471082             -12.1664 (LUMO)
        62                         -0.4131915             -11.2435
        63                         -0.3573153              -9.7230
        64                         -0.3242247              -8.8226
        65                         -0.2273007              -6.1852
        66                         -0.1534902              -4.1767
        67                         -0.0743848              -2.0241
        68                         -0.0560060              -1.5240
        69                         -0.0350838              -0.9547
        70                         -0.0285197              -0.7761
        71                         -0.0252880              -0.6881
       ...                                ...                  ...
       120                          0.5310656              14.4510
      -------------------------------------------------------------
                  HL-Gap            0.0215800 Eh            0.5872 eV

     #   Z          covCN         q      C6AA      α(0)
     1   6 C        3.751    -0.103    22.520     6.768
     2   6 C        3.799    -0.052    21.517     6.604
     3   6 C        3.800    -0.058    21.615     6.619
     4   6 C        3.800    -0.058    21.615     6.620
     5   6 C        3.800    -0.057    21.603     6.618
     6   6 C        3.800    -0.058    21.621     6.620
     7   6 C        3.800    -0.060    21.657     6.626
     8   6 C        3.800    -0.061    21.674     6.629
     9   6 C        3.800    -0.060    21.656     6.626
    10   6 C        3.800    -0.064    21.730     6.637
    11   6 C        3.801    -0.068    21.806     6.648
    12   6 C        3.760    -0.031    21.184     6.562
    13   7 N        2.748     0.097    19.571     6.570
    14   6 C        2.885     0.015    27.681     8.626
    15   6 C        2.912    -0.022    28.549     8.762
    16   6 C        2.990     0.040    27.099     8.539
    17   6 C        2.984     0.023    27.487     8.600
    18   6 C        2.889     0.031    27.309     8.568
    19   6 C        2.915    -0.021    28.526     8.758
    20   6 C        2.915    -0.006    28.174     8.704
    21   6 C        2.916    -0.001    28.048     8.685
    22   6 C        2.914    -0.021    28.542     8.761
    23   1 H        0.925     0.033     2.540     2.492
    24   1 H        0.925     0.034     2.530     2.488
    25   1 H        0.925     0.036     2.505     2.475
    26   1 H        0.924     0.029     2.603     2.523
    27   1 H        0.924     0.030     2.592     2.518
    28   1 H        0.924     0.027     2.631     2.536
    29   1 H        0.924     0.032     2.559     2.502
    30   1 H        0.924     0.026     2.644     2.543
    31   1 H        0.924     0.036     2.508     2.476
    32   1 H        0.924     0.023     2.685     2.562
    33   1 H        0.924     0.037     2.495     2.470
    34   1 H        0.924     0.023     2.693     2.566
    35   1 H        0.924     0.039     2.462     2.454
    36   1 H        0.924     0.024     2.672     2.556
    37   1 H        0.924     0.043     2.414     2.430
    38   1 H        0.924     0.024     2.677     2.559
    39   1 H        0.924     0.046     2.369     2.407
    40   1 H        0.924     0.015     2.804     2.619
    41   1 H        0.924     0.049     2.330     2.387
    42   1 H        0.924     0.021     2.715     2.577
    43   1 H        0.925     0.064     2.157     2.296
    44   1 H        0.924     0.049     2.332     2.388
    45   1 H        0.925     0.081     1.965     2.192
    46   1 H        0.924     0.084     1.940     2.178
    47   1 H        0.925     0.090     1.880     2.144
    48   1 H        0.926     0.095     1.831     2.116
    49   1 H        0.926     0.094     1.839     2.120
    50   1 H        0.926     0.100     1.783     2.088
    51   1 H        0.926     0.072     2.063     2.246
    52   1 H        0.926     0.082     1.961     2.190
    53   1 H        0.926     0.083     1.949     2.183
    54   1 H        0.926     0.077     2.015     2.220

Wiberg/Mayer (AO) data.
largest (>0.10) Wiberg bond orders for each atom

     #   Z sym  total        # sym  WBO       # sym  WBO       # sym  WBO
 ---------------------------------------------------------------------------
     1   6 C    3.997 --     2 C    1.020    25 H    0.987    24 H    0.987
                            23 H    0.986
     2   6 C    3.998 --     1 C    1.020     3 C    1.008    27 H    0.978
                            26 H    0.976
     3   6 C    3.997 --     2 C    1.008     4 C    1.008    29 H    0.977
                            28 H    0.976
     4   6 C    3.997 --     5 C    1.008     3 C    1.008    30 H    0.975
                            31 H    0.975
     5   6 C    3.997 --     4 C    1.008     6 C    1.008    32 H    0.975
                            33 H    0.974
     6   6 C    3.997 --     5 C    1.008     7 C    1.008    34 H    0.975
                            35 H    0.974
     7   6 C    3.996 --     8 C    1.008     6 C    1.008    36 H    0.975
                            37 H    0.973
     8   6 C    3.995 --     7 C    1.008     9 C    1.007    38 H    0.975
                            39 H    0.973
     9   6 C    3.995 --    10 C    1.007     8 C    1.007    40 H    0.973
                            41 H    0.973
    10   6 C    3.993 --    11 C    1.009     9 C    1.007    42 H    0.972
                            43 H    0.967
    11   6 C    3.978 --    10 C    1.009    12 C    0.975    44 H    0.974
                            45 H    0.961
    12   6 C    3.936 --    11 C    0.975    13 N    0.966    46 H    0.963
                            47 H    0.961
    13   7 N    3.754 --    18 C    1.397    14 C    1.223    12 C    0.966
    14   6 C    3.959 --    15 C    1.571    13 N    1.223    48 H    0.957
    15   6 C    3.984 --    14 C    1.571    16 C    1.273    49 H    0.959
    16   6 C    3.988 --    22 C    1.301    15 C    1.273    17 C    1.210
    17   6 C    3.989 --    18 C    1.330    19 C    1.264    16 C    1.210
    18   6 C    3.958 --    13 N    1.397    17 C    1.330    50 H    0.951
    19   6 C    3.984 --    20 C    1.559    17 C    1.264    51 H    0.964
                            22 C    0.109
    20   6 C    3.984 --    19 C    1.559    21 C    1.315    52 H    0.965
    21   6 C    3.976 --    22 C    1.537    20 C    1.315    53 H    0.965
    22   6 C    3.987 --    21 C    1.537    16 C    1.301    54 H    0.963
                            19 C    0.109
    23   1 H    0.999 --     1 C    0.986
    24   1 H    0.999 --     1 C    0.987
    25   1 H    0.999 --     1 C    0.987
    26   1 H    0.999 --     2 C    0.976
    27   1 H    0.999 --     2 C    0.978
    28   1 H    0.999 --     3 C    0.976
    29   1 H    0.999 --     3 C    0.977
    30   1 H    0.999 --     4 C    0.975
    31   1 H    0.999 --     4 C    0.975
    32   1 H    0.999 --     5 C    0.975
    33   1 H    0.999 --     5 C    0.974
    34   1 H    0.999 --     6 C    0.975
    35   1 H    0.998 --     6 C    0.974
    36   1 H    0.999 --     7 C    0.975
    37   1 H    0.998 --     7 C    0.973
    38   1 H    0.999 --     8 C    0.975
    39   1 H    0.998 --     8 C    0.973
    40   1 H    1.000 --     9 C    0.973
    41   1 H    0.998 --     9 C    0.973
    42   1 H    0.999 --    10 C    0.972
    43   1 H    0.995 --    10 C    0.967
    44   1 H    0.998 --    11 C    0.974
    45   1 H    0.991 --    11 C    0.961
    46   1 H    0.991 --    12 C    0.963
    47   1 H    0.991 --    12 C    0.961
    48   1 H    0.990 --    14 C    0.957
    49   1 H    0.990 --    15 C    0.959
    50   1 H    0.989 --    18 C    0.951
    51   1 H    0.994 --    19 C    0.964
    52   1 H    0.993 --    20 C    0.965
    53   1 H    0.993 --    21 C    0.965
    54   1 H    0.994 --    22 C    0.963
 ---------------------------------------------------------------------------

molecular dipole:
                 x           y           z       tot (Debye)
 q only:      -11.296     -10.071     -13.187
   full:      -11.281     -10.129     -13.276      51.222

           -------------------------------------------------
          | TOTAL ENERGY              -63.843142784891 Eh   |
          | GRADIENT NORM               0.000493980856 Eh/α |
          | HOMO-LUMO GAP               0.587221886177 eV   |
           -------------------------------------------------

 * finished run on 2024/12/20 at 06:45:52.404
