   * xtb version 6.7.1 (edcfbbe) compiled by 'conda@3ef47c1a292c' on 2024-11-25

   ID    Z sym.   atoms
    1    6 C      1-3, 5, 7-15
    2    7 N      4, 6, 16
    3    1 H      17-32

          program call               : xtb C0478.xyz --opt --namespace C0478 --charge +1
          :  Hamiltonian                  GFN2-xTB          :
 * total energy  :   -44.3679897 Eh     change       -0.7402008E-09 Eh
 * total energy  :   -44.3733872 Eh     change       -0.5397438E-02 Eh
 * total energy  :   -44.3742780 Eh     change       -0.8908420E-03 Eh
 * total energy  :   -44.3743848 Eh     change       -0.1067612E-03 Eh
 * total energy  :   -44.3746548 Eh     change       -0.2699875E-03 Eh
 * total energy  :   -44.3748016 Eh     change       -0.1468615E-03 Eh
 * total energy  :   -44.3750166 Eh     change       -0.2149515E-03 Eh
 * total energy  :   -44.3751896 Eh     change       -0.1730362E-03 Eh
 * total energy  :   -44.3753525 Eh     change       -0.1628397E-03 Eh
 * total energy  :   -44.3754012 Eh     change       -0.4869149E-04 Eh
 * total energy  :   -44.3760103 Eh     change       -0.4481434E-04 Eh
 * total energy  :   -44.3760322 Eh     change       -0.2193396E-04 Eh
 * total energy  :   -44.3760460 Eh     change       -0.1372608E-04 Eh
 * total energy  :   -44.3760428 Eh     change        0.3170815E-05 Eh
 * total energy  :   -44.3760541 Eh     change       -0.1133600E-04 Eh
 * total energy  :   -44.3760477 Eh     change        0.6420028E-05 Eh
 * total energy  :   -44.3760619 Eh     change       -0.1423275E-04 Eh
 * total energy  :   -44.3760677 Eh     change       -0.5747850E-05 Eh
 * total energy  :   -44.3760710 Eh     change       -0.3354304E-05 Eh
   *** GEOMETRY OPTIMIZATION CONVERGED AFTER 25 ITERATIONS ***

 final structure:
================
32
 xtb: 6.7.1 (edcfbbe)
C            1.57187311214067        0.04349755476908       -0.35347126267218
C            0.54018225097252       -0.35075549282950       -1.40389419331521
C            0.63217479852007       -1.82257562662545       -1.80040311074210
N            0.35235194589961       -2.74221091880107       -0.71497188390490
C           -0.41108176554920       -2.53450373339581        0.34686400416268
N           -0.46544954548986       -3.61522560262570        1.12619709330627
C            0.32067820285454       -4.59117952185877        0.54735944655294
C            0.83718626773151       -4.03336144634166       -0.63768037470890
C            1.66507834443774       -4.77063571278034       -1.47694956775890
C            1.95879322725838       -6.06172085832212       -1.09034106218197
C            1.44824681302990       -6.61250194693198        0.08887585769784
C            0.62253508676180       -5.89321649106455        0.92769496908403
C           -1.10301028936111       -3.68841758011474        2.41998294017518
C           -0.09504794394967       -3.34414359493277        3.53397634325207
C            0.53375918832604       -2.08487387995047        3.21780871802580
N            0.99932851455984       -1.10604347647835        2.85869085456430
H            1.41337791401012       -0.46683565003959        0.59376806679755
H            1.51437812005243        1.11145523789292       -0.16671466353419
H            2.57624023471326       -0.18191057593480       -0.70331384816843
H           -0.46731457511631       -0.10841917619712       -1.06286607910884
H            0.71626469731208        0.22943842738885       -2.31079856853003
H           -0.06508096842890       -2.03661253143169       -2.61800096117670
H            1.64469105814677       -2.03873888572744       -2.14963237851134
H           -0.92658402216714       -1.61842385010412        0.56296860737708
H            2.05847380108723       -4.35975442920068       -2.39179207205984
H            2.59747918886588       -6.66619243757045       -1.71412097826645
H            1.70699131513810       -7.62700586372176        0.34650670714297
H            0.23002710451135       -6.32896899580691        1.83197120910450
H           -1.93371195844889       -2.97892245960568        2.43720338240954
H           -1.49501560121870       -4.69671738383458        2.56700546725418
H           -0.60943320471169       -3.27008616749731        4.49384438585215
H            0.68055868810877       -4.11100693032801        3.61059295188107

          :  Hamiltonian                  GFN2-xTB          :
         :: total energy             -44.376071039466 Eh    ::
         :: gradient norm              0.000559337789 Eh/a0 ::
         :: HOMO-LUMO gap              3.516262904609 eV    ::
         :: SCC energy               -45.138615937404 Eh    ::
         :: -> dispersion             -0.030731149825 Eh    ::
         :: repulsion energy           0.762544897938 Eh    ::

    * Orbital Energies and Occupations

         #    Occupation            Energy/Eh            Energy/eV
      -------------------------------------------------------------
         1        2.0000           -0.8853633             -24.0920
       ...           ...                  ...                  ...
        29        2.0000           -0.6244630             -16.9925
        30        2.0000           -0.6181192             -16.8199
        31        2.0000           -0.6058215             -16.4852
        32        2.0000           -0.6005441             -16.3416
        33        2.0000           -0.5947384             -16.1837
        34        2.0000           -0.5863792             -15.9562
        35        2.0000           -0.5790103             -15.7557
        36        2.0000           -0.5753579             -15.6563
        37        2.0000           -0.5617871             -15.2870
        38        2.0000           -0.5600086             -15.2386
        39        2.0000           -0.5585839             -15.1998
        40        2.0000           -0.5505161             -14.9803
        41        2.0000           -0.5493719             -14.9492 (HOMO)
        42                         -0.4201516             -11.4329 (LUMO)
        43                         -0.3703904             -10.0788
        44                         -0.3624170              -9.8619
        45                         -0.3407886              -9.2733
        46                         -0.3341182              -9.0918
        47                         -0.2444439              -6.6517
        48                         -0.1877455              -5.1088
        49                         -0.1413367              -3.8460
        50                         -0.0792455              -2.1564
        51                         -0.0517173              -1.4073
        52                         -0.0491658              -1.3379
       ...                                ...                  ...
        80                          1.0151590              27.6239
      -------------------------------------------------------------
                  HL-Gap            0.1292203 Eh            3.5163 eV

     #   Z          covCN         q      C6AA      α(0)
     1   6 C        3.752    -0.122    22.908     6.825
     2   6 C        3.800    -0.068    21.794     6.647
     3   6 C        3.740    -0.023    21.055     6.547
     4   7 N        2.824     0.044    20.471     6.720
     5   6 C        3.068     0.071    26.341     8.416
     6   7 N        2.830     0.021    20.889     6.788
     7   6 C        3.112     0.041    26.940     8.503
     8   6 C        3.125     0.038    26.955     8.502
     9   6 C        2.909    -0.031    28.764     8.794
    10   6 C        2.925    -0.017    28.426     8.743
    11   6 C        2.926    -0.017    28.425     8.743
    12   6 C        2.908    -0.034    28.848     8.807
    13   6 C        3.750    -0.009    20.795     6.503
    14   6 C        3.804    -0.065    21.741     6.638
    15   6 C        1.901     0.115    28.283     8.589
    16   7 N        0.911    -0.212    25.614     7.320
    17   1 H        0.925     0.051     2.308     2.376
    18   1 H        0.925     0.067     2.116     2.275
    19   1 H        0.925     0.051     2.302     2.372
    20   1 H        0.924     0.049     2.326     2.385
    21   1 H        0.924     0.074     2.047     2.237
    22   1 H        0.924     0.083     1.953     2.185
    23   1 H        0.924     0.091     1.872     2.140
    24   1 H        0.926     0.114     1.662     2.016
    25   1 H        0.926     0.074     2.042     2.235
    26   1 H        0.926     0.083     1.946     2.182
    27   1 H        0.926     0.082     1.957     2.187
    28   1 H        0.926     0.068     2.107     2.270
    29   1 H        0.924     0.086     1.921     2.167
    30   1 H        0.924     0.093     1.852     2.128
    31   1 H        0.924     0.107     1.720     2.051
    32   1 H        0.924     0.093     1.847     2.125

Wiberg/Mayer (AO) data.
largest (>0.10) Wiberg bond orders for each atom

     #   Z sym  total        # sym  WBO       # sym  WBO       # sym  WBO
 ---------------------------------------------------------------------------
     1   6 C    3.988 --     2 C    1.020    19 H    0.986    18 H    0.982
                            17 H    0.979
     2   6 C    3.985 --     1 C    1.020     3 C    1.000    20 H    0.973
                            21 H    0.968
     3   6 C    3.937 --     2 C    1.000     4 N    0.962    23 H    0.960
                            22 H    0.952
     4   7 N    3.695 --     5 C    1.394     8 C    1.126     3 C    0.962
                             6 N    0.102
     5   6 C    3.953 --     4 N    1.394     6 N    1.346    24 H    0.949
     6   7 N    3.667 --     5 C    1.346     7 C    1.122    13 C    0.979
                             4 N    0.102
     7   6 C    3.952 --    12 C    1.340     8 C    1.275     6 N    1.122
     8   6 C    3.953 --     9 C    1.338     7 C    1.275     4 N    1.126
     9   6 C    3.986 --    10 C    1.496     8 C    1.338    25 H    0.962
                            12 C    0.119
    10   6 C    3.985 --     9 C    1.496    11 C    1.377    26 H    0.965
    11   6 C    3.985 --    12 C    1.494    10 C    1.377    27 H    0.966
    12   6 C    3.986 --    11 C    1.494     7 C    1.340    28 H    0.963
                             9 C    0.119
    13   6 C    3.950 --     6 N    0.979    29 H    0.967    14 C    0.965
                            30 H    0.962
    14   6 C    3.988 --    15 C    1.052    13 C    0.965    32 H    0.943
                            31 H    0.938
    15   6 C    3.949 --    16 N    2.857    14 C    1.052
    16   7 N    3.019 --    15 C    2.857
    17   1 H    0.997 --     1 C    0.979
    18   1 H    0.995 --     1 C    0.982
    19   1 H    0.997 --     1 C    0.986
    20   1 H    0.998 --     2 C    0.973
    21   1 H    0.994 --     2 C    0.968
    22   1 H    0.992 --     3 C    0.952
    23   1 H    0.991 --     3 C    0.960
    24   1 H    0.986 --     5 C    0.949
    25   1 H    0.994 --     9 C    0.962
    26   1 H    0.993 --    10 C    0.965
    27   1 H    0.993 --    11 C    0.966
    28   1 H    0.995 --    12 C    0.963
    29   1 H    0.992 --    13 C    0.967
    30   1 H    0.991 --    13 C    0.962
    31   1 H    0.987 --    14 C    0.938
    32   1 H    0.991 --    14 C    0.943
 ---------------------------------------------------------------------------

molecular dipole:
                 x           y           z       tot (Debye)
 q only:        0.203      -6.991       0.470
   full:       -0.137      -7.310       0.654      18.657

           -------------------------------------------------
          | TOTAL ENERGY              -44.376071039466 Eh   |
          | GRADIENT NORM               0.000559337789 Eh/α |
          | HOMO-LUMO GAP               3.516262904609 eV   |
           -------------------------------------------------

 * finished run on 2024/12/20 at 06:46:10.323
