   * xtb version 6.7.1 (edcfbbe) compiled by 'conda@3ef47c1a292c' on 2024-11-25

   ID    Z sym.   atoms
    1    7 N      1, 6, 9
    2    6 C      2-5, 7, 8, 10, 11
    3    1 H      12-23

          program call               : xtb C0477.xyz --opt --namespace C0477 --charge +1
          :  Hamiltonian                  GFN2-xTB          :
 * total energy  :   -31.5676496 Eh     change       -0.2303153E-09 Eh
 * total energy  :   -31.6007554 Eh     change       -0.3310585E-01 Eh
 * total energy  :   -31.6028277 Eh     change       -0.2072264E-02 Eh
 * total energy  :   -31.6033681 Eh     change       -0.5403624E-03 Eh
 * total energy  :   -31.6036596 Eh     change       -0.2914990E-03 Eh
 * total energy  :   -31.6039096 Eh     change       -0.2499984E-03 Eh
 * total energy  :   -31.6041029 Eh     change       -0.1933341E-03 Eh
 * total energy  :   -31.6043050 Eh     change       -0.2020891E-03 Eh
 * total energy  :   -31.6045544 Eh     change       -0.2493671E-03 Eh
 * total energy  :   -31.6048188 Eh     change       -0.2644011E-03 Eh
 * total energy  :   -31.6057513 Eh     change       -0.6326796E-04 Eh
 * total energy  :   -31.6057618 Eh     change       -0.1052438E-04 Eh
 * total energy  :   -31.6057822 Eh     change       -0.2036148E-04 Eh
 * total energy  :   -31.6057972 Eh     change       -0.1497818E-04 Eh
 * total energy  :   -31.6058039 Eh     change       -0.6742382E-05 Eh
 * total energy  :   -31.6058078 Eh     change       -0.3936159E-05 Eh
 * total energy  :   -31.6058091 Eh     change       -0.1271088E-05 Eh
 * total energy  :   -31.6058122 Eh     change       -0.3129498E-05 Eh
 * total energy  :   -31.6058139 Eh     change       -0.1673617E-05 Eh
   *** GEOMETRY OPTIMIZATION CONVERGED AFTER 25 ITERATIONS ***

 final structure:
================
23
 xtb: 6.7.1 (edcfbbe)
N            1.49645013334261       -0.26922315925977        0.79943774949328
C            2.57407580095314       -0.05599655113527        0.48708426130558
C            3.93867897120275        0.28375363495361        0.16247310475135
C            4.09028900885736        1.78816357482927       -0.10842162006806
C            3.41803050691903        2.66861727664938        0.95379215782084
N            3.95501816257129        2.45575514268059        2.28065526000442
C            3.45851953163892        1.55496977220230        3.18500175460640
C            4.22758715477965        1.63222657776330        4.30043465008273
N            5.17936986057837        2.58067511345019        4.05352372452102
C            5.00577239934666        3.07670762343416        2.82368142307180
C            5.82067100990765        4.13870536841151        2.20436963630383
H            4.57399164437964       -0.03578689927360        0.99477474134514
H            4.23880885644994       -0.28108951259642       -0.72298698415380
H            5.15240813043893        2.02546018894998       -0.18589183641443
H            3.62285367642303        2.03079164562429       -1.06346868010070
H            3.54466653984050        3.71971891813988        0.68679693064728
H            2.34979011749513        2.44194238101767        0.98839804392578
H            2.60562965271353        0.94205538306219        2.97072626572419
H            4.16559814033122        1.09740201858448        5.22542227473264
H            5.89609351632093        2.87011972552250        4.70471818317390
H            5.20405334983017        5.00663912725204        1.96792633437433
H            6.61028368465392        4.45438007296249        2.88043664768224
H            6.27690015102661        3.79704257677452        1.27625597717219

          :  Hamiltonian                  GFN2-xTB          :
         :: total energy             -31.605813918094 Eh    ::
         :: gradient norm              0.000329486657 Eh/a0 ::
         :: HOMO-LUMO gap              3.471363891022 eV    ::
         :: SCC energy               -32.133882639694 Eh    ::
         :: -> dispersion             -0.018109294020 Eh    ::
         :: repulsion energy           0.528068721600 Eh    ::

    * Orbital Energies and Occupations

         #    Occupation            Energy/Eh            Energy/eV
      -------------------------------------------------------------
         1        2.0000           -0.9058218             -24.6487
       ...           ...                  ...                  ...
        17        2.0000           -0.6689192             -18.2022
        18        2.0000           -0.6639095             -18.0659
        19        2.0000           -0.6632501             -18.0480
        20        2.0000           -0.6610454             -17.9880
        21        2.0000           -0.6488154             -17.6552
        22        2.0000           -0.6469199             -17.6036
        23        2.0000           -0.6226225             -16.9424
        24        2.0000           -0.6160928             -16.7647
        25        2.0000           -0.6084256             -16.5561
        26        2.0000           -0.5876240             -15.9901
        27        2.0000           -0.5860483             -15.9472
        28        2.0000           -0.5786422             -15.7457
        29        2.0000           -0.5405711             -14.7097 (HOMO)
        30                         -0.4130009             -11.2383 (LUMO)
        31                         -0.3767096             -10.2508
        32                         -0.3271309              -8.9017
        33                         -0.3214186              -8.7462
        34                         -0.1961937              -5.3387
        35                         -0.1361970              -3.7061
        36                         -0.0805454              -2.1918
        37                         -0.0741850              -2.0187
        38                         -0.0555782              -1.5124
        39                         -0.0450166              -1.2250
        40                         -0.0307879              -0.8378
       ...                                ...                  ...
        56                          1.0273637              27.9560
      -------------------------------------------------------------
                  HL-Gap            0.1275703 Eh            3.4714 eV

     #   Z          covCN         q      C6AA      α(0)
     1   7 N        0.911    -0.214    25.669     7.328
     2   6 C        1.897     0.110    28.380     8.604
     3   6 C        3.803    -0.062    21.681     6.629
     4   6 C        3.806    -0.063    21.701     6.632
     5   6 C        3.741    -0.029    21.161     6.563
     6   7 N        2.875     0.051    20.353     6.701
     7   6 C        3.052    -0.006    28.126     8.698
     8   6 C        3.028     0.005    27.886     8.662
     9   7 N        2.838    -0.040    22.002     6.967
    10   6 C        3.078     0.122    25.240     8.237
    11   6 C        3.754    -0.141    23.273     6.879
    12   1 H        0.924     0.069     2.100     2.266
    13   1 H        0.924     0.097     1.814     2.106
    14   1 H        0.924     0.059     2.214     2.327
    15   1 H        0.924     0.083     1.950     2.184
    16   1 H        0.924     0.088     1.901     2.156
    17   1 H        0.924     0.100     1.781     2.087
    18   1 H        0.926     0.118     1.627     1.995
    19   1 H        0.927     0.114     1.667     2.019
    20   1 H        0.860     0.224     0.990     1.559
    21   1 H        0.924     0.109     1.707     2.043
    22   1 H        0.925     0.099     1.799     2.097
    23   1 H        0.925     0.107     1.724     2.053

Wiberg/Mayer (AO) data.
largest (>0.10) Wiberg bond orders for each atom

     #   Z sym  total        # sym  WBO       # sym  WBO       # sym  WBO
 ---------------------------------------------------------------------------
     1   7 N    3.017 --     2 C    2.859
     2   6 C    3.948 --     1 N    2.859     3 C    1.049
     3   6 C    3.994 --     2 C    1.049     4 C    0.984    12 H    0.946
                            13 H    0.941
     4   6 C    3.988 --     5 C    0.989     3 C    0.984    14 H    0.974
                            15 H    0.968
     5   6 C    3.940 --     4 C    0.989     6 N    0.971    16 H    0.962
                            17 H    0.961
     6   7 N    3.701 --    10 C    1.344     7 C    1.204     5 C    0.971
     7   6 C    3.948 --     8 C    1.622     6 N    1.204    18 H    0.956
     8   6 C    3.945 --     7 C    1.622     9 N    1.213    19 H    0.961
     9   7 N    3.642 --    10 C    1.330     8 C    1.213    20 H    0.922
    10   6 C    3.952 --     6 N    1.344     9 N    1.330    11 C    1.048
    11   6 C    3.975 --    10 C    1.048    22 H    0.973    23 H    0.950
                            21 H    0.945
    12   1 H    0.995 --     3 C    0.946
    13   1 H    0.990 --     3 C    0.941
    14   1 H    0.997 --     4 C    0.974
    15   1 H    0.992 --     4 C    0.968
    16   1 H    0.992 --     5 C    0.962
    17   1 H    0.990 --     5 C    0.961
    18   1 H    0.986 --     7 C    0.956
    19   1 H    0.987 --     8 C    0.961
    20   1 H    0.950 --     9 N    0.922
    21   1 H    0.988 --    11 C    0.945
    22   1 H    0.990 --    11 C    0.973
    23   1 H    0.989 --    11 C    0.950
 ---------------------------------------------------------------------------

molecular dipole:
                 x           y           z       tot (Debye)
 q only:        9.485       5.209       4.792
   full:       10.041       5.329       4.820      31.383

           -------------------------------------------------
          | TOTAL ENERGY              -31.605813918094 Eh   |
          | GRADIENT NORM               0.000329486657 Eh/α |
          | HOMO-LUMO GAP               3.471363891022 eV   |
           -------------------------------------------------

 * finished run on 2024/12/20 at 06:46:09.360
