   * xtb version 6.7.1 (edcfbbe) compiled by 'conda@3ef47c1a292c' on 2024-11-25

   ID    Z sym.   atoms
    1    6 C      1-4, 7-11, 13, 15-22
    2    8 O      5, 6
    3    7 N      12, 14
    4    1 H      23-45

          program call               : xtb C0472.xyz --opt --namespace C0472 --charge +1
          :  Hamiltonian                  GFN2-xTB          :
 * total energy  :   -63.8968771 Eh     change       -0.3441585E-09 Eh
 * total energy  :   -63.9035918 Eh     change       -0.6714740E-02 Eh
 * total energy  :   -63.9048699 Eh     change       -0.1278095E-02 Eh
 * total energy  :   -63.9052216 Eh     change       -0.3516531E-03 Eh
 * total energy  :   -63.9055359 Eh     change       -0.3143330E-03 Eh
 * total energy  :   -63.9057388 Eh     change       -0.2029502E-03 Eh
 * total energy  :   -63.9060168 Eh     change       -0.2779086E-03 Eh
 * total energy  :   -63.9063412 Eh     change       -0.3244257E-03 Eh
 * total energy  :   -63.9067018 Eh     change       -0.3606372E-03 Eh
 * total energy  :   -63.9069970 Eh     change       -0.2951531E-03 Eh
 * total energy  :   -63.9077370 Eh     change       -0.1665232E-04 Eh
 * total energy  :   -63.9077589 Eh     change       -0.2190586E-04 Eh
 * total energy  :   -63.9078032 Eh     change       -0.4434862E-04 Eh
 * total energy  :   -63.9078257 Eh     change       -0.2243730E-04 Eh
 * total energy  :   -63.9078439 Eh     change       -0.1825572E-04 Eh
 * total energy  :   -63.9078613 Eh     change       -0.1737098E-04 Eh
 * total energy  :   -63.9078707 Eh     change       -0.9452621E-05 Eh
 * total energy  :   -63.9078765 Eh     change       -0.5743367E-05 Eh
 * total energy  :   -63.9078805 Eh     change       -0.4039336E-05 Eh
   *** GEOMETRY OPTIMIZATION CONVERGED AFTER 29 ITERATIONS ***

 final structure:
================
45
 xtb: 6.7.1 (edcfbbe)
C           -0.07043667620312        0.66407353793935       -0.50405331127211
C            0.56818549756604        0.03101710698778       -1.73764718117305
C            1.02426788273844       -1.42986953144985       -1.62424082152017
C            0.06661954263542       -2.37597529446838       -0.90402728240261
O           -1.10711101533791       -2.27556617330244       -0.74101999737037
O            0.78326866245767       -3.42107689485754       -0.40985539313464
C            2.14594984188477       -3.28964781961909       -0.78259406073611
C            2.35837252511703       -1.78018847309241       -0.94152354735547
C            2.50084390849889       -1.07967651374713        0.42665953120142
C            3.49700651464583       -1.73320333030570        1.31364722714805
C            4.86439207134274       -1.68900580953489        1.29071541479590
N            5.32830885378558       -2.48201664114574        2.29400736967280
C            4.27872840551495       -2.99497461642945        2.92594750032103
N            3.15653294392245       -2.56450865496038        2.35103393558280
C            1.82038042794842       -2.90778960221701        2.76777429331676
C            6.71867675432497       -2.65492081257542        2.67045299053580
C            7.06992904987885       -1.71015348517712        3.79916452832596
C            7.39360592450774       -0.38773866279833        3.52455605628047
C            7.69889381930888        0.48170036651736        4.55685705373348
C            7.67829845088073        0.03606637127766        5.86805176652948
C            7.35147770301837       -1.28045510092899        6.14629393639700
C            7.04344926024342       -2.15112650311648        5.11529775281442
H           -0.85067332669565        0.02222489194778       -0.10583436172877
H           -0.53323205118454        1.60261682433844       -0.79780682873732
H            0.64894369538349        0.88915180671139        0.27845489709930
H           -0.17585073594552        0.06150091069682       -2.53496624995411
H            1.42127913370138        0.62982809650380       -2.06483904533046
H            1.08760169983104       -1.81900441289361       -2.64989710598733
H            2.31352993899782       -3.80716378337861       -1.73424258465977
H            2.75800528858483       -3.76948345037619       -0.01820852997378
H            3.22432768621733       -1.56294064528371       -1.56647955058877
H            2.80301132239273       -0.04647737527684        0.25301890905529
H            1.53032642922397       -1.07855655308529        0.92137840292966
H            5.51722857509214       -1.15355375343866        0.63266081147182
H            4.32714130754027       -3.65558460106656        3.76917648490794
H            1.23697534775266       -3.28703744925526        1.92702784129712
H            1.86868257823627       -3.67438160974695        3.53723124456793
H            1.31578092960875       -2.03125601208777        3.17745712442139
H            6.87078880672968       -3.69054404863890        2.98093978718110
H            7.33379051303452       -2.44953520330168        1.79266382517343
H            7.42206509388774       -0.03873251540483        2.50249786126007
H            7.95860103465968        1.50513525815733        4.33606056883345
H            7.92258564897727        0.71256551684708        6.67170042901525
H            7.34055870508126       -1.63277852349619        7.16575176635003
H            6.80221203020920       -3.18095683146744        5.33621654170633

          :  Hamiltonian                  GFN2-xTB          :
         :: total energy             -63.907880531056 Eh    ::
         :: gradient norm              0.000564442007 Eh/a0 ::
         :: HOMO-LUMO gap              2.924308770201 eV    ::
         :: SCC energy               -64.844280468503 Eh    ::
         :: -> dispersion             -0.044462943607 Eh    ::
         :: repulsion energy           0.936399937447 Eh    ::

    * Orbital Energies and Occupations

         #    Occupation            Energy/Eh            Energy/eV
      -------------------------------------------------------------
         1        2.0000           -0.8904205             -24.2296
       ...           ...                  ...                  ...
        46        2.0000           -0.5885465             -16.0152
        47        2.0000           -0.5849924             -15.9185
        48        2.0000           -0.5819257             -15.8350
        49        2.0000           -0.5675971             -15.4451
        50        2.0000           -0.5543012             -15.0833
        51        2.0000           -0.5506724             -14.9846
        52        2.0000           -0.5397899             -14.6884
        53        2.0000           -0.5378675             -14.6361
        54        2.0000           -0.5357490             -14.5785
        55        2.0000           -0.5287493             -14.3880
        56        2.0000           -0.5206415             -14.1674
        57        2.0000           -0.5201896             -14.1551
        58        2.0000           -0.5085390             -13.8381 (HOMO)
        59                         -0.4010726             -10.9137 (LUMO)
        60                         -0.3657210              -9.9518
        61                         -0.3442562              -9.3677
        62                         -0.3383333              -9.2065
        63                         -0.3322561              -9.0411
        64                         -0.2164441              -5.8897
        65                         -0.1721438              -4.6843
        66                         -0.1334160              -3.6304
        67                         -0.1074133              -2.9229
        68                         -0.0843265              -2.2946
        69                         -0.0679649              -1.8494
       ...                                ...                  ...
       111                          0.5904681              16.0675
      -------------------------------------------------------------
                  HL-Gap            0.1074664 Eh            2.9243 eV

     #   Z          covCN         q      C6AA      α(0)
     1   6 C        3.750    -0.117    22.809     6.811
     2   6 C        3.799    -0.060    21.650     6.625
     3   6 C        3.890    -0.056    21.532     6.597
     4   6 C        2.781     0.355    20.979     7.502
     5   8 O        0.856    -0.343    20.571     6.081
     6   8 O        1.706    -0.273    18.534     5.813
     7   6 C        3.785     0.065    19.503     6.291
     8   6 C        3.875    -0.029    21.047     6.523
     9   6 C        3.805    -0.078    21.986     6.675
    10   6 C        3.096     0.042    26.941     8.507
    11   6 C        3.079    -0.024    28.515     8.755
    12   7 N        2.858     0.059    20.204     6.676
    13   6 C        3.087     0.044    26.916     8.504
    14   7 N        2.867     0.053    20.309     6.693
    15   6 C        3.691    -0.084    22.299     6.757
    16   6 C        3.747    -0.028    21.131     6.557
    17   6 C        2.973    -0.003    28.105     8.696
    18   6 C        2.923    -0.036    28.892     8.815
    19   6 C        2.919    -0.022    28.555     8.763
    20   6 C        2.920    -0.020    28.500     8.755
    21   6 C        2.919    -0.022    28.551     8.762
    22   6 C        2.923    -0.037    28.917     8.818
    23   1 H        0.925     0.060     2.203     2.321
    24   1 H        0.925     0.056     2.242     2.341
    25   1 H        0.925     0.030     2.589     2.516
    26   1 H        0.924     0.065     2.145     2.290
    27   1 H        0.924     0.047     2.361     2.403
    28   1 H        0.923     0.075     2.034     2.230
    29   1 H        0.924     0.061     2.186     2.312
    30   1 H        0.924     0.048     2.350     2.397
    31   1 H        0.925     0.056     2.249     2.345
    32   1 H        0.924     0.087     1.905     2.158
    33   1 H        0.925     0.086     1.920     2.167
    34   1 H        0.926     0.098     1.802     2.099
    35   1 H        0.926     0.108     1.714     2.047
    36   1 H        0.924     0.119     1.619     1.990
    37   1 H        0.925     0.095     1.836     2.119
    38   1 H        0.924     0.100     1.785     2.089
    39   1 H        0.924     0.084     1.940     2.178
    40   1 H        0.924     0.089     1.887     2.148
    41   1 H        0.926     0.038     2.469     2.457
    42   1 H        0.926     0.057     2.239     2.340
    43   1 H        0.926     0.060     2.199     2.319
    44   1 H        0.926     0.057     2.232     2.336
    45   1 H        0.926     0.038     2.474     2.460

Wiberg/Mayer (AO) data.
largest (>0.10) Wiberg bond orders for each atom

     #   Z sym  total        # sym  WBO       # sym  WBO       # sym  WBO
 ---------------------------------------------------------------------------
     1   6 C    3.992 --     2 C    1.020    25 H    0.985    24 H    0.984
                            23 H    0.983
     2   6 C    3.989 --     1 C    1.020     3 C    0.989    27 H    0.975
                            26 H    0.974
     3   6 C    3.986 --     2 C    0.989     8 C    0.978     4 C    0.950
                            28 H    0.934
     4   6 C    3.913 --     5 O    1.822     6 O    1.074     3 C    0.950
     5   8 O    2.112 --     4 C    1.822     6 O    0.159
     6   8 O    2.277 --     4 C    1.074     7 C    0.963     5 O    0.159
     7   6 C    3.939 --     8 C    0.988    30 H    0.969    29 H    0.966
                             6 O    0.963
     8   6 C    3.991 --     7 C    0.988     3 C    0.978    31 H    0.969
                             9 C    0.969
     9   6 C    3.984 --    10 C    1.027     8 C    0.969    33 H    0.960
                            32 H    0.956
    10   6 C    3.951 --    11 C    1.543    14 N    1.195     9 C    1.027
    11   6 C    3.942 --    10 C    1.543    12 N    1.223    34 H    0.963
    12   7 N    3.713 --    13 C    1.364    11 C    1.223    16 C    0.956
    13   6 C    3.945 --    12 N    1.364    14 N    1.350    35 H    0.954
    14   7 N    3.704 --    13 C    1.350    10 C    1.195    15 C    0.989
    15   6 C    3.931 --    14 N    0.989    37 H    0.975    38 H    0.960
                            36 H    0.956
    16   6 C    3.934 --    17 C    0.976    40 H    0.963    39 H    0.962
                            12 N    0.956
    17   6 C    3.977 --    22 C    1.415    18 C    1.414    16 C    0.976
                            20 C    0.109
    18   6 C    3.992 --    19 C    1.444    17 C    1.414    41 H    0.969
                            21 C    0.111
    19   6 C    3.990 --    18 C    1.444    20 C    1.438    42 H    0.969
                            22 C    0.111
    20   6 C    3.988 --    21 C    1.440    19 C    1.438    43 H    0.969
                            17 C    0.109
    21   6 C    3.990 --    22 C    1.442    20 C    1.440    44 H    0.969
                            18 C    0.111
    22   6 C    3.991 --    21 C    1.442    17 C    1.415    45 H    0.968
                            19 C    0.111
    23   1 H    0.996 --     1 C    0.983
    24   1 H    0.996 --     1 C    0.984
    25   1 H    0.999 --     1 C    0.985
    26   1 H    0.995 --     2 C    0.974
    27   1 H    0.998 --     2 C    0.975
    28   1 H    0.993 --     3 C    0.934
    29   1 H    0.996 --     7 C    0.966
    30   1 H    0.998 --     7 C    0.969
    31   1 H    0.997 --     8 C    0.969
    32   1 H    0.992 --     9 C    0.956
    33   1 H    0.992 --     9 C    0.960
    34   1 H    0.990 --    11 C    0.963
    35   1 H    0.988 --    13 C    0.954
    36   1 H    0.985 --    15 C    0.956
    37   1 H    0.991 --    15 C    0.975
    38   1 H    0.989 --    15 C    0.960
    39   1 H    0.992 --    16 C    0.962
    40   1 H    0.991 --    16 C    0.963
    41   1 H    0.999 --    18 C    0.969
    42   1 H    0.996 --    19 C    0.969
    43   1 H    0.996 --    20 C    0.969
    44   1 H    0.996 --    21 C    0.969
    45   1 H    0.999 --    22 C    0.968
 ---------------------------------------------------------------------------

molecular dipole:
                 x           y           z       tot (Debye)
 q only:        9.080      -3.529       4.146
   full:        9.413      -3.748       4.054      27.737

           -------------------------------------------------
          | TOTAL ENERGY              -63.907880531056 Eh   |
          | GRADIENT NORM               0.000564442007 Eh/α |
          | HOMO-LUMO GAP               2.924308770201 eV   |
           -------------------------------------------------

 * finished run on 2024/12/20 at 06:46:04.518
