   * xtb version 6.7.1 (edcfbbe) compiled by 'conda@3ef47c1a292c' on 2024-11-25

   ID    Z sym.   atoms
    1    6 C      1-3, 5, 6, 9-17
    2    7 N      4, 8, 18
    3    8 O      7
    4    1 H      19-34

          program call               : xtb C0476.xyz --opt --namespace C0476 --charge +1
          :  Hamiltonian                  GFN2-xTB          :
 * total energy  :   -50.5047560 Eh     change       -0.6101430E-09 Eh
 * total energy  :   -50.5414767 Eh     change       -0.3672071E-01 Eh
 * total energy  :   -50.5447427 Eh     change       -0.3266011E-02 Eh
 * total energy  :   -50.5448899 Eh     change       -0.1472680E-03 Eh
 * total energy  :   -50.5457678 Eh     change       -0.8778805E-03 Eh
 * total energy  :   -50.5460465 Eh     change       -0.2787078E-03 Eh
 * total energy  :   -50.5464823 Eh     change       -0.4357997E-03 Eh
 * total energy  :   -50.5468125 Eh     change       -0.3301582E-03 Eh
 * total energy  :   -50.5471093 Eh     change       -0.2967604E-03 Eh
 * total energy  :   -50.5474447 Eh     change       -0.3354821E-03 Eh
 * total energy  :   -50.5479624 Eh     change       -0.2787662E-04 Eh
 * total energy  :   -50.5479939 Eh     change       -0.3146618E-04 Eh
 * total energy  :   -50.5480061 Eh     change       -0.1219470E-04 Eh
 * total energy  :   -50.5480369 Eh     change       -0.3084289E-04 Eh
 * total energy  :   -50.5480481 Eh     change       -0.1116059E-04 Eh
 * total energy  :   -50.5480626 Eh     change       -0.1452428E-04 Eh
 * total energy  :   -50.5480650 Eh     change       -0.2342639E-05 Eh
 * total energy  :   -50.5480696 Eh     change       -0.4592714E-05 Eh
 * total energy  :   -50.5480732 Eh     change       -0.3609138E-05 Eh
   *** GEOMETRY OPTIMIZATION CONVERGED AFTER 24 ITERATIONS ***

 final structure:
================
34
 xtb: 6.7.1 (edcfbbe)
C            0.61603505860643       -0.11949667928231       -0.02926619963004
C           -0.27365796895536        0.50035269154783        0.72025234839782
C           -1.69852243889933        0.04116995323701        0.88043852067565
N           -2.01141228194858       -0.16093190753229        2.28170618862347
C           -2.69912864287870        0.65238915102891        3.08226670697620
C           -3.32942578074948        1.93237455320160        2.59946534376292
O           -2.41233628807865        2.74176248056224        1.93415864333223
N           -2.73475612769292        0.14962320453979        4.32953124537329
C           -2.02099177607355       -1.03621750962833        4.33607247773683
C           -1.55678044454250       -1.23078185431316        3.02478335771672
C           -0.79483164100732       -2.34133447649373        2.68378270203681
C           -0.52184973844981       -3.24330462792292        3.69122011497758
C           -0.98655412238497       -3.05176769072810        4.99522337883332
C           -1.74013751048613       -1.94949798188639        5.34432775755780
C           -3.27705628983267        0.76827782202321        5.51852713281117
C           -2.20125336183115        1.61646878946746        6.22868930207190
C           -1.62001073376216        2.52562128585111        5.27654638509118
N           -1.19913522378989        3.17700742299079        4.43669493666014
H            0.37997298393559       -1.01444862035328       -0.58156495735460
H            1.61647697798207        0.25831184622675       -0.14185778173529
H           -0.02973320901164        1.40903528704703        1.25117228021071
H           -2.36638076128373        0.80477994372413        0.47814537642869
H           -1.86052870864188       -0.90231167221881        0.35403551204271
H           -4.10781226694390        1.67927599595680        1.86695383008729
H           -3.80908348106066        2.45708450772238        3.43234284056660
H           -1.84508116418747        3.21272493071477        2.57056426459012
H           -0.42889922775178       -2.48826802289106        1.68196832204773
H            0.06604320603620       -4.11961623891206        3.47066878113414
H           -0.74720502830643       -3.78489461929816        5.74873580930273
H           -2.09148387487342       -1.81635135794589        6.35459775609288
H           -4.13299394798322        1.38929269308362        5.24799966709224
H           -3.62416127999977       -0.02166492846780        6.18744848976015
H           -2.65012747735486        2.17931105647915        7.04978229798718
H           -1.40918742779697        0.98026457246845        6.63306716873979

          :  Hamiltonian                  GFN2-xTB          :
         :: total energy             -50.548073169516 Eh    ::
         :: gradient norm              0.000851453558 Eh/a0 ::
         :: HOMO-LUMO gap              3.152567638569 eV    ::
         :: SCC energy               -51.370290415540 Eh    ::
         :: -> dispersion             -0.035714780613 Eh    ::
         :: repulsion energy           0.822217246025 Eh    ::

    * Orbital Energies and Occupations

         #    Occupation            Energy/Eh            Energy/eV
      -------------------------------------------------------------
         1        2.0000           -0.8814346             -23.9851
       ...           ...                  ...                  ...
        34        2.0000           -0.6107608             -16.6196
        35        2.0000           -0.6046520             -16.4534
        36        2.0000           -0.6011090             -16.3570
        37        2.0000           -0.5994734             -16.3125
        38        2.0000           -0.5853824             -15.9291
        39        2.0000           -0.5826539             -15.8548
        40        2.0000           -0.5764006             -15.6847
        41        2.0000           -0.5687943             -15.4777
        42        2.0000           -0.5620977             -15.2955
        43        2.0000           -0.5563368             -15.1387
        44        2.0000           -0.5534050             -15.0589
        45        2.0000           -0.5452551             -14.8371
        46        2.0000           -0.5331169             -14.5068 (HOMO)
        47                         -0.4172622             -11.3543 (LUMO)
        48                         -0.3671757              -9.9914
        49                         -0.3610749              -9.8253
        50                         -0.3534039              -9.6166
        51                         -0.3465573              -9.4303
        52                         -0.3312041              -9.0125
        53                         -0.2408490              -6.5538
        54                         -0.1888415              -5.1386
        55                         -0.1333392              -3.6283
        56                         -0.0914485              -2.4884
        57                         -0.0722107              -1.9650
       ...                                ...                  ...
        88                          1.0038327              27.3157
      -------------------------------------------------------------
                  HL-Gap            0.1158547 Eh            3.1526 eV

     #   Z          covCN         q      C6AA      α(0)
     1   6 C        2.837    -0.081    30.017     8.979
     2   6 C        2.887    -0.036    28.890     8.812
     3   6 C        3.745    -0.021    21.010     6.538
     4   7 N        2.832     0.030    20.717     6.760
     5   6 C        3.073     0.100    25.722     8.316
     6   6 C        3.677     0.071    19.599     6.342
     7   8 O        1.656    -0.418    21.192     6.214
     8   7 N        2.829    -0.006    21.368     6.866
     9   6 C        3.096     0.039    27.014     8.518
    10   6 C        3.103     0.040    26.971     8.510
    11   6 C        2.909    -0.031    28.766     8.795
    12   6 C        2.926    -0.018    28.461     8.749
    13   6 C        2.926    -0.018    28.457     8.748
    14   6 C        2.909    -0.037    28.912     8.817
    15   6 C        3.749    -0.005    20.738     6.495
    16   6 C        3.804    -0.066    21.754     6.640
    17   6 C        1.901     0.124    28.058     8.555
    18   7 N        0.911    -0.226    25.950     7.368
    19   1 H        0.926     0.061     2.191     2.315
    20   1 H        0.926     0.075     2.029     2.228
    21   1 H        0.926     0.064     2.153     2.294
    22   1 H        0.924     0.104     1.745     2.066
    23   1 H        0.924     0.086     1.919     2.166
    24   1 H        0.923     0.094     1.837     2.120
    25   1 H        0.924     0.056     2.250     2.346
    26   1 H        0.804     0.331     0.634     1.251
    27   1 H        0.926     0.077     2.010     2.217
    28   1 H        0.926     0.082     1.962     2.191
    29   1 H        0.926     0.080     1.975     2.198
    30   1 H        0.926     0.065     2.142     2.289
    31   1 H        0.924     0.081     1.972     2.196
    32   1 H        0.924     0.094     1.841     2.122
    33   1 H        0.924     0.109     1.706     2.042
    34   1 H        0.924     0.098     1.806     2.102

Wiberg/Mayer (AO) data.
largest (>0.10) Wiberg bond orders for each atom

     #   Z sym  total        # sym  WBO       # sym  WBO       # sym  WBO
 ---------------------------------------------------------------------------
     1   6 C    3.985 --     2 C    1.988    19 H    0.972    20 H    0.971
     2   6 C    3.981 --     1 C    1.988     3 C    0.993    21 H    0.962
     3   6 C    3.934 --     2 C    0.993     4 N    0.959    23 H    0.958
                            22 H    0.949
     4   7 N    3.683 --     5 C    1.366    10 C    1.124     3 C    0.959
     5   6 C    3.949 --     4 N    1.366     8 N    1.308     6 C    0.990
     6   6 C    3.964 --     7 O    1.026     5 C    0.990    25 H    0.958
                            24 H    0.938
     7   8 O    1.977 --     6 C    1.026    26 H    0.848
     8   7 N    3.640 --     5 C    1.308     9 C    1.114    15 C    0.982
     9   6 C    3.951 --    14 C    1.344    10 C    1.278     8 N    1.114
    10   6 C    3.955 --    11 C    1.340     9 C    1.278     4 N    1.124
    11   6 C    3.984 --    12 C    1.493    10 C    1.340    27 H    0.962
                            14 C    0.118
    12   6 C    3.984 --    11 C    1.493    13 C    1.380    28 H    0.966
    13   6 C    3.984 --    14 C    1.490    12 C    1.380    29 H    0.966
    14   6 C    3.985 --    13 C    1.490     9 C    1.344    30 H    0.963
                            11 C    0.118
    15   6 C    3.953 --     8 N    0.982    31 H    0.964    16 C    0.963
                            32 H    0.961
    16   6 C    3.989 --    17 C    1.059    15 C    0.963    34 H    0.940
                            33 H    0.936
    17   6 C    3.947 --    18 N    2.835    16 C    1.059
    18   7 N    3.029 --    17 C    2.835
    19   1 H    0.996 --     1 C    0.972
    20   1 H    0.992 --     1 C    0.971
    21   1 H    0.996 --     2 C    0.962
    22   1 H    0.989 --     3 C    0.949
    23   1 H    0.992 --     3 C    0.958
    24   1 H    0.989 --     6 C    0.938
    25   1 H    0.996 --     6 C    0.958
    26   1 H    0.890 --     7 O    0.848
    27   1 H    0.993 --    11 C    0.962
    28   1 H    0.993 --    12 C    0.966
    29   1 H    0.993 --    13 C    0.966
    30   1 H    0.995 --    14 C    0.963
    31   1 H    0.993 --    15 C    0.964
    32   1 H    0.991 --    15 C    0.961
    33   1 H    0.987 --    16 C    0.936
    34   1 H    0.990 --    16 C    0.940
 ---------------------------------------------------------------------------

molecular dipole:
                 x           y           z       tot (Debye)
 q only:       -4.049      -0.750       7.177
   full:       -4.367      -0.882       7.781      22.790

           -------------------------------------------------
          | TOTAL ENERGY              -50.548073169516 Eh   |
          | GRADIENT NORM               0.000851453558 Eh/α |
          | HOMO-LUMO GAP               3.152567638569 eV   |
           -------------------------------------------------

 * finished run on 2024/12/20 at 06:46:08.794
