   * xtb version 6.7.1 (edcfbbe) compiled by 'conda@3ef47c1a292c' on 2024-11-25

   ID    Z sym.   atoms
    1    6 C      1, 2, 4, 6, 8
    2   16 S      3
    3    7 N      5, 7
    4    1 H      9-21

          program call               : xtb C0479.xyz --opt --namespace C0479 --charge +1
          :  Hamiltonian                  GFN2-xTB          :
 * total energy  :   -26.0175805 Eh     change       -0.2062031E-09 Eh
 * total energy  :   -26.0209401 Eh     change       -0.3359588E-02 Eh
 * total energy  :   -26.0219400 Eh     change       -0.9999180E-03 Eh
 * total energy  :   -26.0223937 Eh     change       -0.4537135E-03 Eh
 * total energy  :   -26.0230101 Eh     change       -0.6163747E-03 Eh
 * total energy  :   -26.0235703 Eh     change       -0.5602639E-03 Eh
 * total energy  :   -26.0242242 Eh     change       -0.6538317E-03 Eh
 * total energy  :   -26.0249263 Eh     change       -0.7021706E-03 Eh
 * total energy  :   -26.0254900 Eh     change       -0.5636339E-03 Eh
 * total energy  :   -26.0259108 Eh     change       -0.4208721E-03 Eh
 * total energy  :   -26.0270726 Eh     change       -0.2668775E-04 Eh
 * total energy  :   -26.0270885 Eh     change       -0.1589176E-04 Eh
 * total energy  :   -26.0270843 Eh     change        0.4148433E-05 Eh
 * total energy  :   -26.0271033 Eh     change       -0.1894655E-04 Eh
 * total energy  :   -26.0271094 Eh     change       -0.6105282E-05 Eh
 * total energy  :   -26.0271187 Eh     change       -0.9361472E-05 Eh
 * total energy  :   -26.0271123 Eh     change        0.6434965E-05 Eh
 * total energy  :   -26.0271296 Eh     change       -0.1727357E-04 Eh
 * total energy  :   -26.0271337 Eh     change       -0.4088668E-05 Eh
   *** GEOMETRY OPTIMIZATION CONVERGED AFTER 36 ITERATIONS ***

 final structure:
================
21
 xtb: 6.7.1 (edcfbbe)
C            1.05419416532903        0.04252374323084       -0.26544891685686
C            0.39134770882813        1.33708690421032        0.16424180977677
S            0.36782239979033       -0.62975798614196       -1.82390048397293
C            1.01377314332417        0.38270826393499       -3.08084253318113
N            1.89655778878360        1.34219511458640       -2.83661111528589
C            2.47705264585386        2.20223253013259       -3.84912505663831
N            0.57881189898482        0.14653808636708       -4.30710456426604
C           -0.37932898760741       -0.88391135520370       -4.63564997223460
H            0.83283406151217       -0.75008502587571        0.45062754965600
H            2.13833806535812        0.11414515473523       -0.35790818879819
H            0.53703591603168        2.14133433710043       -0.55366883056528
H           -0.67733759990225        1.18806888451062        0.29566535379678
H            0.80738605892209        1.65052918693075        1.11908912194682
H            2.23491002747880        1.45572639989947       -1.89363173295918
H            1.69941748960229        2.74537918611699       -4.38894456581898
H            3.12066312103771        2.92712098373515       -3.35953075006649
H            3.08043452565907        1.62933022209183       -4.55661844963942
H            0.96895906845657        0.67857769346928       -5.07209330030461
H           -0.66540602850499       -0.78211548156995       -5.67802357751284
H            0.04685097000898       -1.87669302236608       -4.47819473554889
H           -1.26882643894438       -0.78874381989429       -4.01103706152773

          :  Hamiltonian                  GFN2-xTB          :
         :: total energy             -26.027133653236 Eh    ::
         :: gradient norm              0.000428247692 Eh/a0 ::
         :: HOMO-LUMO gap              3.753273227729 eV    ::
         :: SCC energy               -26.366232580456 Eh    ::
         :: -> dispersion             -0.013920469758 Eh    ::
         :: repulsion energy           0.339098927220 Eh    ::

    * Orbital Energies and Occupations

         #    Occupation            Energy/Eh            Energy/eV
      -------------------------------------------------------------
         1        2.0000           -0.8967992             -24.4031
       ...           ...                  ...                  ...
        12        2.0000           -0.6850638             -18.6415
        13        2.0000           -0.6761962             -18.4002
        14        2.0000           -0.6701256             -18.2350
        15        2.0000           -0.6556318             -17.8407
        16        2.0000           -0.6479056             -17.6304
        17        2.0000           -0.6393470             -17.3975
        18        2.0000           -0.6320501             -17.1990
        19        2.0000           -0.6278981             -17.0860
        20        2.0000           -0.6190089             -16.8441
        21        2.0000           -0.5942559             -16.1705
        22        2.0000           -0.5896378             -16.0449
        23        2.0000           -0.5704695             -15.5233
        24        2.0000           -0.5459063             -14.8549 (HOMO)
        25                         -0.4079761             -11.1016 (LUMO)
        26                         -0.3600553              -9.7976
        27                         -0.3151340              -8.5752
        28                         -0.1911315              -5.2010
        29                         -0.1795983              -4.8871
        30                         -0.1648083              -4.4847
        31                         -0.1261099              -3.4316
        32                         -0.1176504              -3.2014
        33                         -0.0554154              -1.5079
        34                         -0.0431356              -1.1738
        35                         -0.0302288              -0.8226
       ...                                ...                  ...
        50                          0.3566635               9.7053
      -------------------------------------------------------------
                  HL-Gap            0.1379303 Eh            3.7533 eV

     #   Z          covCN         q      C6AA      α(0)
     1   6 C        3.793    -0.027    21.070     6.537
     2   6 C        3.774    -0.121    22.856     6.812
     3  16 S        2.082    -0.003   141.168    19.997
     4   6 C        2.811     0.162    24.495     8.109
     5   7 N        2.722    -0.122    23.661     7.224
     6   6 C        3.688    -0.071    22.062     6.723
     7   7 N        2.762    -0.098    23.151     7.146
     8   6 C        3.697    -0.077    22.154     6.733
     9   1 H        0.925     0.096     1.824     2.112
    10   1 H        0.925     0.065     2.137     2.286
    11   1 H        0.925     0.051     2.309     2.376
    12   1 H        0.925     0.075     2.036     2.231
    13   1 H        0.925     0.079     1.993     2.208
    14   1 H        0.860     0.216     1.027     1.587
    15   1 H        0.924     0.084     1.935     2.175
    16   1 H        0.925     0.100     1.783     2.088
    17   1 H        0.924     0.083     1.944     2.180
    18   1 H        0.860     0.215     1.033     1.592
    19   1 H        0.925     0.101     1.779     2.086
    20   1 H        0.924     0.095     1.830     2.115
    21   1 H        0.924     0.098     1.805     2.101

Wiberg/Mayer (AO) data.
largest (>0.10) Wiberg bond orders for each atom

     #   Z sym  total        # sym  WBO       # sym  WBO       # sym  WBO
 ---------------------------------------------------------------------------
     1   6 C    3.956 --     2 C    1.026     3 S    0.971    10 H    0.963
                             9 H    0.958
     2   6 C    3.985 --     1 C    1.026    12 H    0.982    11 H    0.982
                            13 H    0.970
     3  16 S    2.435 --     4 C    1.162     1 C    0.971
     4   6 C    3.973 --     7 N    1.372     5 N    1.345     3 S    1.162
     5   7 N    3.500 --     4 C    1.345     6 C    0.988    14 H    0.914
                             7 N    0.126
     6   6 C    3.944 --     5 N    0.988    16 H    0.977    15 H    0.969
                            17 H    0.968
     7   7 N    3.532 --     4 C    1.372     8 C    0.995    18 H    0.915
                             5 N    0.126
     8   6 C    3.937 --     7 N    0.995    19 H    0.977    21 H    0.964
                            20 H    0.963
     9   1 H    0.990 --     1 C    0.958
    10   1 H    0.996 --     1 C    0.963
    11   1 H    0.997 --     2 C    0.982
    12   1 H    0.994 --     2 C    0.982
    13   1 H    0.993 --     2 C    0.970
    14   1 H    0.953 --     5 N    0.914
    15   1 H    0.993 --     6 C    0.969
    16   1 H    0.990 --     6 C    0.977
    17   1 H    0.993 --     6 C    0.968
    18   1 H    0.953 --     7 N    0.915
    19   1 H    0.989 --     8 C    0.977
    20   1 H    0.991 --     8 C    0.963
    21   1 H    0.990 --     8 C    0.964
 ---------------------------------------------------------------------------

molecular dipole:
                 x           y           z       tot (Debye)
 q only:        2.133       1.290      -5.635
   full:        2.419       1.476      -5.487      15.697

           -------------------------------------------------
          | TOTAL ENERGY              -26.027133653236 Eh   |
          | GRADIENT NORM               0.000428247692 Eh/α |
          | HOMO-LUMO GAP               3.753273227729 eV   |
           -------------------------------------------------

 * finished run on 2024/12/20 at 06:46:10.813
