   * xtb version 6.7.1 (edcfbbe) compiled by 'conda@3ef47c1a292c' on 2024-11-25

   ID    Z sym.   atoms
    1    7 N      1, 5, 8
    2    6 C      2-4, 6, 7, 9-16, 18-23
    3    8 O      17
    4    1 H      24-41

          program call               : xtb C0474.xyz --opt --namespace C0474 --charge +1
          :  Hamiltonian                  GFN2-xTB          :
 * total energy  :   -62.2406592 Eh     change       -0.5063896E-09 Eh
 * total energy  :   -62.2800290 Eh     change       -0.3936985E-01 Eh
 * total energy  :   -62.2846378 Eh     change       -0.4608810E-02 Eh
 * total energy  :   -62.2859166 Eh     change       -0.1278754E-02 Eh
 * total energy  :   -62.2865813 Eh     change       -0.6647023E-03 Eh
 * total energy  :   -62.2873101 Eh     change       -0.7288236E-03 Eh
 * total energy  :   -62.2879990 Eh     change       -0.6888550E-03 Eh
 * total energy  :   -62.2885410 Eh     change       -0.5419901E-03 Eh
 * total energy  :   -62.2890747 Eh     change       -0.5337207E-03 Eh
 * total energy  :   -62.2895328 Eh     change       -0.4581491E-03 Eh
 * total energy  :   -62.2936621 Eh     change       -0.2064251E-04 Eh
 * total energy  :   -62.2936871 Eh     change       -0.2496985E-04 Eh
 * total energy  :   -62.2937207 Eh     change       -0.3356837E-04 Eh
 * total energy  :   -62.2937503 Eh     change       -0.2959653E-04 Eh
 * total energy  :   -62.2937632 Eh     change       -0.1296487E-04 Eh
 * total energy  :   -62.2937645 Eh     change       -0.1220155E-05 Eh
 * total energy  :   -62.2937779 Eh     change       -0.1345302E-04 Eh
 * total energy  :   -62.2937844 Eh     change       -0.6522462E-05 Eh
 * total energy  :   -62.2937882 Eh     change       -0.3767485E-05 Eh
   *** GEOMETRY OPTIMIZATION CONVERGED AFTER 48 ITERATIONS ***

 final structure:
================
41
 xtb: 6.7.1 (edcfbbe)
N            2.54721756469040       -0.78954615293017       -1.28894344640742
C            3.34810765282838       -0.40776413052524       -0.57020617828996
C            4.33615996380554       -0.02544246949976        0.41078275943089
C            3.99852777634134       -0.68190509454105        1.76423589558665
N            3.71567247489705       -2.08903086122425        1.59070474971836
C            2.50947987769509       -2.66274944935087        1.45904447838107
C            1.20894426061959       -1.98007379917478        1.58406579508045
N            2.65564141611045       -3.96911449825846        1.21063775095057
C            4.00654906812507       -4.25925230835108        1.14211290096531
C            4.68502622810418       -3.05511311070480        1.38938009835365
C            6.07215119232333       -2.99470788802699        1.39925209106507
C            6.75212864740720       -4.16855880698269        1.14400244788005
C            6.07872880311094       -5.36335461723816        0.88244918055960
C            4.70017205479854       -5.43335519193698        0.87739532636807
C            1.57816968290400       -4.90703980407576        1.01934088183588
C            0.56804010386894       -4.91675407214697        2.19581447966486
O           -0.57871664054681       -4.61754958802563        1.97075568820647
C            1.06566967830331       -5.27109325262067        3.53065228098328
C            2.34536289381188       -5.77349989363296        3.78207329677169
C            2.72358820514904       -6.08557641854489        5.07382202575537
C            1.84002970857220       -5.90567569954657        6.12828895005098
C            0.56525990174083       -5.41420674039381        5.88978706250254
C            0.18010011330480       -5.10096533953469        4.60244164841348
H            5.31585148446423       -0.35197055633461        0.05179400743634
H            4.34927321610782        1.06134644123662        0.51559893174748
H            4.84534751002789       -0.57991556435720        2.44694688610742
H            3.13053365617906       -0.19909983453491        2.21599717682626
H            1.27223448241390       -0.94241379100672        1.26788375758693
H            0.45723910914380       -2.47429001535348        0.97174972200371
H            0.85759986888832       -2.00940611281040        2.61769641928489
H            6.60344913370687       -2.07820451783561        1.59745017287328
H            7.83027354463414       -4.16358648025661        1.14011537639617
H            6.65190699873017       -6.25315364318659        0.67731990822842
H            4.19655339449332       -6.36266473368408        0.66470105100200
H            1.01617593073263       -4.64814361179967        0.11510866453073
H            1.99542344440358       -5.90643536663735        0.89219917658375
H            3.04609403102942       -5.94788920088941        2.98087606965232
H            3.71056999489075       -6.48081195799333        5.26002293380960
H            2.14362709941388       -6.15699693652328        7.13271918126023
H           -0.12688029946212       -5.28231548530687        6.70658589909767
H           -0.80968322772346       -4.72356944547586        4.39409450177579

          :  Hamiltonian                  GFN2-xTB          :
         :: total energy             -62.293788193104 Eh    ::
         :: gradient norm              0.000679579095 Eh/a0 ::
         :: HOMO-LUMO gap              2.953162722269 eV    ::
         :: SCC energy               -63.355399938346 Eh    ::
         :: -> dispersion             -0.046793668627 Eh    ::
         :: repulsion energy           1.061611745242 Eh    ::

    * Orbital Energies and Occupations

         #    Occupation            Energy/Eh            Energy/eV
      -------------------------------------------------------------
         1        2.0000           -0.8796840             -23.9374
       ...           ...                  ...                  ...
        45        2.0000           -0.5940732             -16.1656
        46        2.0000           -0.5934952             -16.1498
        47        2.0000           -0.5883055             -16.0086
        48        2.0000           -0.5833212             -15.8730
        49        2.0000           -0.5765502             -15.6887
        50        2.0000           -0.5539272             -15.0731
        51        2.0000           -0.5511070             -14.9964
        52        2.0000           -0.5489690             -14.9382
        53        2.0000           -0.5475666             -14.9000
        54        2.0000           -0.5382254             -14.6459
        55        2.0000           -0.5290301             -14.3956
        56        2.0000           -0.5256141             -14.3027
        57        2.0000           -0.5205506             -14.1649 (HOMO)
        58                         -0.4120238             -11.2117 (LUMO)
        59                         -0.4064163             -11.0591
        60                         -0.3660565              -9.9609
        61                         -0.3585313              -9.7561
        62                         -0.3426313              -9.3235
        63                         -0.3352277              -9.1220
        64                         -0.3282038              -8.9309
        65                         -0.3150396              -8.5727
        66                         -0.2407595              -6.5514
        67                         -0.2073253              -5.6416
        68                         -0.1817911              -4.9468
       ...                                ...                  ...
       110                          1.0191408              27.7322
      -------------------------------------------------------------
                  HL-Gap            0.1085267 Eh            2.9532 eV

     #   Z          covCN         q      C6AA      α(0)
     1   7 N        0.911    -0.209    25.554     7.311
     2   6 C        1.900     0.112    28.343     8.598
     3   6 C        3.804    -0.065    21.738     6.638
     4   6 C        3.748    -0.006    20.757     6.498
     5   7 N        2.831    -0.001    21.284     6.852
     6   6 C        3.066     0.127    25.161     8.225
     7   6 C        3.755    -0.137    23.203     6.868
     8   7 N        2.831     0.016    20.979     6.803
     9   6 C        3.091     0.040    27.006     8.518
    10   6 C        3.094     0.039    27.018     8.519
    11   6 C        2.909    -0.035    28.881     8.812
    12   6 C        2.926    -0.019    28.486     8.753
    13   6 C        2.925    -0.019    28.485     8.753
    14   6 C        2.910    -0.033    28.814     8.802
    15   6 C        3.740    -0.045    21.451     6.608
    16   6 C        2.819     0.222    23.326     7.913
    17   8 O        0.858    -0.329    20.318     6.043
    18   6 C        2.970    -0.021    28.528     8.761
    19   6 C        2.919    -0.032    28.787     8.798
    20   6 C        2.917    -0.024    28.593     8.769
    21   6 C        2.920    -0.010    28.272     8.719
    22   6 C        2.916    -0.019    28.480     8.751
    23   6 C        2.928    -0.014    28.355     8.733
    24   1 H        0.924     0.092     1.859     2.132
    25   1 H        0.924     0.103     1.758     2.073
    26   1 H        0.924     0.088     1.896     2.154
    27   1 H        0.924     0.084     1.943     2.180
    28   1 H        0.925     0.097     1.816     2.107
    29   1 H        0.925     0.116     1.645     2.006
    30   1 H        0.924     0.103     1.761     2.075
    31   1 H        0.926     0.065     2.141     2.288
    32   1 H        0.926     0.079     1.987     2.204
    33   1 H        0.926     0.080     1.978     2.199
    34   1 H        0.926     0.068     2.110     2.271
    35   1 H        0.924     0.102     1.770     2.080
    36   1 H        0.924     0.097     1.808     2.103
    37   1 H        0.926     0.034     2.527     2.486
    38   1 H        0.926     0.053     2.287     2.365
    39   1 H        0.926     0.063     2.159     2.298
    40   1 H        0.926     0.064     2.149     2.292
    41   1 H        0.926     0.075     2.032     2.229

Wiberg/Mayer (AO) data.
largest (>0.10) Wiberg bond orders for each atom

     #   Z sym  total        # sym  WBO       # sym  WBO       # sym  WBO
 ---------------------------------------------------------------------------
     1   7 N    3.018 --     2 C    2.864
     2   6 C    3.950 --     1 N    2.864     3 C    1.050
     3   6 C    3.989 --     2 C    1.050     4 C    0.967    24 H    0.943
                            25 H    0.940
     4   6 C    3.952 --     5 N    0.979     3 C    0.967    27 H    0.966
                            26 H    0.962
     5   7 N    3.645 --     6 C    1.315    10 C    1.113     4 C    0.979
     6   6 C    3.954 --     8 N    1.335     5 N    1.315     7 C    1.053
     7   6 C    3.973 --     6 C    1.053    28 H    0.962    29 H    0.955
                            30 H    0.937
     8   7 N    3.663 --     6 C    1.335     9 C    1.112    15 C    0.979
     9   6 C    3.953 --    14 C    1.345    10 C    1.279     8 N    1.112
    10   6 C    3.952 --    11 C    1.347     9 C    1.279     5 N    1.113
    11   6 C    3.985 --    12 C    1.486    10 C    1.347    31 H    0.963
                            14 C    0.117
    12   6 C    3.983 --    11 C    1.486    13 C    1.385    32 H    0.966
    13   6 C    3.983 --    14 C    1.486    12 C    1.385    33 H    0.966
    14   6 C    3.984 --    13 C    1.486     9 C    1.345    34 H    0.961
                            11 C    0.117
    15   6 C    3.940 --     8 N    0.979    35 H    0.951    36 H    0.951
                            16 C    0.929
    16   6 C    3.932 --    17 O    1.837    18 C    1.064    15 C    0.929
    17   8 O    2.103 --    16 C    1.837
    18   6 C    3.986 --    19 C    1.364    23 C    1.356    16 C    1.064
    19   6 C    3.992 --    20 C    1.466    18 C    1.364    37 H    0.964
                            22 C    0.103
    20   6 C    3.991 --    19 C    1.466    21 C    1.423    38 H    0.969
                            23 C    0.101
    21   6 C    3.986 --    22 C    1.427    20 C    1.423    39 H    0.969
    22   6 C    3.989 --    23 C    1.463    21 C    1.427    40 H    0.967
                            19 C    0.103
    23   6 C    3.985 --    22 C    1.463    18 C    1.356    41 H    0.964
                            20 C    0.101
    24   1 H    0.992 --     3 C    0.943
    25   1 H    0.988 --     3 C    0.940
    26   1 H    0.992 --     4 C    0.962
    27   1 H    0.992 --     4 C    0.966
    28   1 H    0.989 --     7 C    0.962
    29   1 H    0.985 --     7 C    0.955
    30   1 H    0.985 --     7 C    0.937
    31   1 H    0.995 --    11 C    0.963
    32   1 H    0.993 --    12 C    0.966
    33   1 H    0.993 --    13 C    0.966
    34   1 H    0.995 --    14 C    0.961
    35   1 H    0.989 --    15 C    0.951
    36   1 H    0.990 --    15 C    0.951
    37   1 H    0.999 --    19 C    0.964
    38   1 H    0.997 --    20 C    0.969
    39   1 H    0.995 --    21 C    0.969
    40   1 H    0.995 --    22 C    0.967
    41   1 H    0.994 --    23 C    0.964
 ---------------------------------------------------------------------------

molecular dipole:
                 x           y           z       tot (Debye)
 q only:        7.422      -5.962       4.392
   full:        7.866      -5.834       4.648      27.553

           -------------------------------------------------
          | TOTAL ENERGY              -62.293788193104 Eh   |
          | GRADIENT NORM               0.000679579095 Eh/α |
          | HOMO-LUMO GAP               2.953162722269 eV   |
           -------------------------------------------------

 * finished run on 2024/12/20 at 06:46:07.013
