   * xtb version 6.7.1 (edcfbbe) compiled by 'conda@3ef47c1a292c' on 2024-11-25

   ID    Z sym.   atoms
    1    6 C      1-5, 7-11
    2    7 N      6
    3    1 H      12-33

          program call               : xtb C0471.xyz --opt --namespace C0471 --charge +1
          :  Hamiltonian                  GFN2-xTB          :
 * total energy  :   -35.1680660 Eh     change       -0.5365308E-10 Eh
 * total energy  :   -35.1729581 Eh     change       -0.4892084E-02 Eh
 * total energy  :   -35.1741401 Eh     change       -0.1182065E-02 Eh
 * total energy  :   -35.1741995 Eh     change       -0.5939652E-04 Eh
 * total energy  :   -35.1742521 Eh     change       -0.5256119E-04 Eh
 * total energy  :   -35.1742809 Eh     change       -0.2883306E-04 Eh
 * total energy  :   -35.1744008 Eh     change       -0.1198486E-03 Eh
 * total energy  :   -35.1744577 Eh     change       -0.5695863E-04 Eh
 * total energy  :   -35.1745416 Eh     change       -0.8386458E-04 Eh
 * total energy  :   -35.1746659 Eh     change       -0.1243104E-03 Eh
 * total energy  :   -35.1747909 Eh     change       -0.5569654E-04 Eh
 * total energy  :   -35.1748660 Eh     change       -0.7513700E-04 Eh
 * total energy  :   -35.1749065 Eh     change       -0.4050175E-04 Eh
 * total energy  :   -35.1749306 Eh     change       -0.2411770E-04 Eh
 * total energy  :   -35.1749499 Eh     change       -0.1926497E-04 Eh
 * total energy  :   -35.1749577 Eh     change       -0.7841893E-05 Eh
 * total energy  :   -35.1749712 Eh     change       -0.1342400E-04 Eh
 * total energy  :   -35.1749786 Eh     change       -0.7465884E-05 Eh
 * total energy  :   -35.1749833 Eh     change       -0.4637358E-05 Eh
   *** GEOMETRY OPTIMIZATION CONVERGED AFTER 20 ITERATIONS ***

 final structure:
================
33
 xtb: 6.7.1 (edcfbbe)
C            1.52382696142936        0.19856795548353       -0.38764955984503
C            0.97840981983854       -0.32146338179278        0.93763494762776
C            1.20082598997019        0.64746474503449        2.10261894249817
C            0.48476610825262        1.99393404517226        1.96552801844881
C           -1.04477314313969        1.98013064197245        1.93292508632434
N           -1.76679212519370        1.59811868920311        3.18665402037214
C           -1.20273822478672        2.31193866035154        4.34642700533273
C           -1.77095856153281        0.11668787376010        3.44493838447301
C           -3.23416287789751       -0.32220817022132        3.56449362179040
C           -3.97159644296632        0.97152817444561        3.89363683737435
C           -3.20988578623937        1.97441056171121        3.04303142403336
H            0.95785662937841        1.05373677908107       -0.75000656618846
H            1.46691050565483       -0.58069201531678       -1.14236033892387
H            2.56507039041828        0.49190490238307       -0.28188791325674
H           -0.08227324440619       -0.55916521957589        0.81724344253366
H            1.48794862328679       -1.25488059981708        1.18207752312535
H            0.93206117677602        0.16013001693922        3.04211894119302
H            2.26998799236061        0.86089265615972        2.15576070904409
H            0.83942194240194        2.66822361487587        2.74496768107502
H            0.78905668445698        2.43813864799125        1.01644127662696
H           -1.37417812246500        2.99256177415309        1.68527759723443
H           -1.38865998016754        1.31067338270136        1.14263907502966
H           -0.20193891715027        1.94828918156232        4.56687067586140
H           -1.15308673209408        3.37962126874050        4.13871687893302
H           -1.83241523258211        2.15117508910156        5.21891271522753
H           -1.23143466865138       -0.08295652677702        4.37003506867876
H           -1.26580671547001       -0.40243558060573        2.63370977692123
H           -3.59388167517766       -0.72653268477236        2.61854585082069
H           -3.36316772371682       -1.08543907040622        4.32732985328503
H           -5.02368814939925        0.93305267389332        3.62437990540539
H           -3.90293671780378        1.20803932306603        4.95526795844852
H           -3.49820964751801        1.85507062465560        1.99692369485638
H           -3.36137813586243        3.01212196684743        3.33617746564038

          :  Hamiltonian                  GFN2-xTB          :
         :: total energy             -35.174983258167 Eh    ::
         :: gradient norm              0.000781931119 Eh/a0 ::
         :: HOMO-LUMO gap              8.288441243458 eV    ::
         :: SCC energy               -35.675805241064 Eh    ::
         :: -> dispersion             -0.024599605020 Eh    ::
         :: repulsion energy           0.500821982897 Eh    ::

    * Orbital Energies and Occupations

         #    Occupation            Energy/Eh            Energy/eV
      -------------------------------------------------------------
         1        2.0000           -0.8605937             -23.4179
       ...           ...                  ...                  ...
        21        2.0000           -0.6382008             -17.3663
        22        2.0000           -0.6230728             -16.9547
        23        2.0000           -0.6217820             -16.9196
        24        2.0000           -0.6166595             -16.7802
        25        2.0000           -0.6140537             -16.7093
        26        2.0000           -0.6100357             -16.5999
        27        2.0000           -0.5925503             -16.1241
        28        2.0000           -0.5863235             -15.9547
        29        2.0000           -0.5830749             -15.8663
        30        2.0000           -0.5740194             -15.6199
        31        2.0000           -0.5519051             -15.0181
        32        2.0000           -0.5434853             -14.7890
        33        2.0000           -0.5384441             -14.6518 (HOMO)
        34                         -0.2338495              -6.3634 (LUMO)
        35                         -0.1864004              -5.0722
        36                         -0.1628414              -4.4311
        37                         -0.1503494              -4.0912
        38                         -0.0860255              -2.3409
        39                         -0.0643187              -1.7502
        40                         -0.0472394              -1.2855
        41                         -0.0435937              -1.1862
        42                         -0.0370025              -1.0069
        43                         -0.0313152              -0.8521
        44                         -0.0287709              -0.7829
       ...                                ...                  ...
        66                          0.1996044               5.4315
      -------------------------------------------------------------
                  HL-Gap            0.3045946 Eh            8.2884 eV

     #   Z          covCN         q      C6AA      α(0)
     1   6 C        3.751    -0.112    22.702     6.795
     2   6 C        3.799    -0.057    21.604     6.618
     3   6 C        3.800    -0.070    21.837     6.653
     4   6 C        3.799    -0.077    21.968     6.673
     5   6 C        3.751    -0.036    21.271     6.577
     6   7 N        3.627     0.115    19.271     6.520
     7   6 C        3.713    -0.088    22.321     6.751
     8   6 C        3.777    -0.038    21.277     6.572
     9   6 C        3.831    -0.074    21.890     6.657
    10   6 C        3.822    -0.071    21.846     6.651
    11   6 C        3.802    -0.034    21.184     6.553
    12   1 H        0.925     0.035     2.521     2.483
    13   1 H        0.925     0.051     2.307     2.375
    14   1 H        0.925     0.049     2.338     2.391
    15   1 H        0.924     0.020     2.735     2.586
    16   1 H        0.924     0.048     2.342     2.393
    17   1 H        0.924     0.028     2.611     2.527
    18   1 H        0.924     0.061     2.187     2.313
    19   1 H        0.925     0.055     2.256     2.349
    20   1 H        0.924     0.081     1.969     2.194
    21   1 H        0.924     0.077     2.013     2.219
    22   1 H        0.924     0.086     1.923     2.168
    23   1 H        0.925     0.099     1.797     2.096
    24   1 H        0.925     0.093     1.854     2.129
    25   1 H        0.925     0.098     1.804     2.101
    26   1 H        0.925     0.087     1.903     2.158
    27   1 H        0.925     0.097     1.812     2.105
    28   1 H        0.925     0.070     2.086     2.258
    29   1 H        0.925     0.082     1.961     2.190
    30   1 H        0.925     0.085     1.924     2.169
    31   1 H        0.925     0.066     2.127     2.280
    32   1 H        0.924     0.088     1.898     2.154
    33   1 H        0.925     0.087     1.910     2.161

Wiberg/Mayer (AO) data.
largest (>0.10) Wiberg bond orders for each atom

     #   Z sym  total        # sym  WBO       # sym  WBO       # sym  WBO
 ---------------------------------------------------------------------------
     1   6 C    3.994 --     2 C    1.020    14 H    0.986    12 H    0.985
                            13 H    0.985
     2   6 C    3.996 --     1 C    1.020     3 C    1.007    16 H    0.976
                            15 H    0.971
     3   6 C    3.993 --     2 C    1.007     4 C    1.006    17 H    0.974
                            18 H    0.972
     4   6 C    3.983 --     3 C    1.006     5 C    1.006    19 H    0.971
                            20 H    0.959
     5   6 C    3.931 --     4 C    1.006    21 H    0.969    22 H    0.964
                             6 N    0.927
     6   7 N    3.803 --     7 C    0.965    11 C    0.929     5 C    0.927
                             8 C    0.927
     7   6 C    3.932 --    24 H    0.975    25 H    0.973    23 H    0.972
                             6 N    0.965
     8   6 C    3.931 --     9 C    1.005    26 H    0.971    27 H    0.963
                             6 N    0.927
     9   6 C    3.986 --     8 C    1.005    10 C    1.004    28 H    0.977
                            29 H    0.972
    10   6 C    3.986 --    11 C    1.011     9 C    1.004    31 H    0.973
                            30 H    0.968
    11   6 C    3.936 --    10 C    1.011    33 H    0.969    32 H    0.968
                             6 N    0.929
    12   1 H    0.999 --     1 C    0.985
    13   1 H    0.997 --     1 C    0.985
    14   1 H    0.997 --     1 C    0.986
    15   1 H    1.000 --     2 C    0.971
    16   1 H    0.998 --     2 C    0.976
    17   1 H    0.999 --     3 C    0.974
    18   1 H    0.996 --     3 C    0.972
    19   1 H    0.997 --     4 C    0.971
    20   1 H    0.993 --     4 C    0.959
    21   1 H    0.994 --     5 C    0.969
    22   1 H    0.993 --     5 C    0.964
    23   1 H    0.990 --     7 C    0.972
    24   1 H    0.991 --     7 C    0.975
    25   1 H    0.990 --     7 C    0.973
    26   1 H    0.992 --     8 C    0.971
    27   1 H    0.991 --     8 C    0.963
    28   1 H    0.995 --     9 C    0.977
    29   1 H    0.993 --     9 C    0.972
    30   1 H    0.992 --    10 C    0.968
    31   1 H    0.996 --    10 C    0.973
    32   1 H    0.992 --    11 C    0.968
    33   1 H    0.992 --    11 C    0.969
 ---------------------------------------------------------------------------

molecular dipole:
                 x           y           z       tot (Debye)
 q only:       -3.221       2.658       5.870
   full:       -3.213       2.766       5.858      18.380

           -------------------------------------------------
          | TOTAL ENERGY              -35.174983258167 Eh   |
          | GRADIENT NORM               0.000781931119 Eh/α |
          | HOMO-LUMO GAP               8.288441243458 eV   |
           -------------------------------------------------

 * finished run on 2024/12/20 at 06:46:02.844
