   * xtb version 6.7.1 (edcfbbe) compiled by 'conda@3ef47c1a292c' on 2024-11-25

   ID    Z sym.   atoms
    1    8 O      1, 35, 37
    2    6 C      2, 3, 5-9, 11-14, 16-22, 25-29, 31-34, 36, 38
    3    7 N      4, 10, 15, 23, 24, 30
    4    1 H      39-69

          program call               : xtb C0470.xyz --opt --namespace C0470 --charge +1
          :  Hamiltonian                  GFN2-xTB          :
 * total energy  :  -107.2474428 Eh     change       -0.2507605E-08 Eh
 * total energy  :  -107.2692478 Eh     change       -0.2180494E-01 Eh
 * total energy  :  -107.2779930 Eh     change       -0.8745269E-02 Eh
 * total energy  :  -107.2802465 Eh     change       -0.2253433E-02 Eh
 * total energy  :  -107.2810521 Eh     change       -0.8056032E-03 Eh
 * total energy  :  -107.2827768 Eh     change       -0.1724719E-02 Eh
 * total energy  :  -107.2836000 Eh     change       -0.8232136E-03 Eh
 * total energy  :  -107.2847763 Eh     change       -0.1176312E-02 Eh
 * total energy  :  -107.2854928 Eh     change       -0.7164780E-03 Eh
 * total energy  :  -107.2861263 Eh     change       -0.6335581E-03 Eh
 * total energy  :  -107.2928176 Eh     change       -0.8039708E-05 Eh
 * total energy  :  -107.2928259 Eh     change       -0.8301606E-05 Eh
 * total energy  :  -107.2928337 Eh     change       -0.7783529E-05 Eh
 * total energy  :  -107.2928427 Eh     change       -0.8956218E-05 Eh
 * total energy  :  -107.2928536 Eh     change       -0.1091192E-04 Eh
 * total energy  :  -107.2928643 Eh     change       -0.1071080E-04 Eh
 * total energy  :  -107.2928716 Eh     change       -0.7363807E-05 Eh
 * total energy  :  -107.2928769 Eh     change       -0.5271945E-05 Eh
 * total energy  :  -107.2928810 Eh     change       -0.4085805E-05 Eh
   *** GEOMETRY OPTIMIZATION CONVERGED AFTER 67 ITERATIONS ***

 final structure:
================
69
 xtb: 6.7.1 (edcfbbe)
O            1.51806469040583        1.28706633285039       -2.27519206315660
C            1.48840061854649        2.38065046519633       -1.40294766911762
C            1.30116922305793        1.97621228287602        0.08265253654968
N            2.56085274160911        1.89192123971145        0.78780644713700
C            2.97946215924844        2.74406503967507        1.76493491814068
C            2.19552840402652        3.55332929809198        2.59762628954531
C            0.86950660013288        3.35548447996938        2.93782752350767
C            0.20573044286850        4.18979822365019        3.82535828264075
C           -1.10004966943968        4.11346503099146        4.30537773596476
N           -2.15844214479992        3.38465904537078        3.84176598767855
C           -2.23953271902003        2.56899922456515        2.65429528952905
C           -1.98825351752142        1.09314674881386        2.95397232481413
C           -3.25001960075877        3.62018505345785        4.65337716263342
C           -2.84744905768004        4.54416053487773        5.63402492442049
N           -1.53077885901997        4.84635870850037        5.38047877793433
C           -0.72543729843611        5.71179263749745        6.21003029255302
C            0.08637307869200        4.91665314925393        7.22847653174860
C           -3.72668673627104        4.98180047590045        6.61434220673907
C           -5.01423757908275        4.48396723371116        6.58624435871447
C           -5.41623449991898        3.56985609790139        5.60353066321219
C           -4.53672167174928        3.11873911764329        4.61917328002127
C           -6.74759499741036        3.08594201934914        5.60690381416494
N           -7.82198913748577        2.69033516099359        5.59891108837428
N            4.33787534949026        2.64821794051293        1.87277553803481
C            4.79143648192212        1.71402753921436        0.96809897099058
C            3.66560853329221        1.22219749753592        0.28733506889623
C            3.78156876629641        0.23113698552680       -0.66849533177112
C            5.06536369832349       -0.24272262052861       -0.93101138325477
C            5.23612566324494       -1.26612123784623       -1.89613164970231
N            5.37440597951777       -2.10028077562807       -2.66784587106883
C            6.19082254744803        0.25892411795671       -0.26264351505930
C            6.06808263259161        1.24566537088259        0.69441828954580
C            5.21355165741888        3.51281463353244        2.61968869172331
C            5.68603621840032        4.69178373015193        1.75494617535706
O            4.63404728111852        5.61570130945976        1.49875345548031
C            3.87248018971027        5.42436718300272        0.40980922442359
O            3.97888955744479        4.47033240584527       -0.31671742158589
C            2.89571360635224        6.54753453541982        0.23570801704526
H            0.62453579070995        0.98504258880063       -2.47161521665899
H            2.44498980589740        2.89886134128896       -1.51447960365941
H            0.68757443881946        3.07622676964566       -1.67850293068042
H            0.69902306656640        2.73908726659911        0.57183973599499
H            0.78681729089122        1.01051602100461        0.13569639732357
H            2.70373837870731        4.37458118412264        3.08034108350654
H            0.38148884348897        2.46300948403601        2.58413915999343
H            0.79833922628885        4.98994963330248        4.24349688791593
H           -3.24546710665478        2.69066005510653        2.24310349927694
H           -1.53160541313178        2.95511567534199        1.91837195691055
H           -2.73300510757798        0.71894817379784        3.65154229034000
H           -2.05599604117576        0.51388177903779        2.03750292877115
H           -1.00648217697256        0.94065999221063        3.39635981357848
H           -0.06739319516609        6.30962223604238        5.57495680136758
H           -1.40278227637700        6.39666788343709        6.72254144862016
H            0.76037878696261        4.22554373841110        6.72793609113052
H            0.67299793260580        5.59485745156904        7.84067523933524
H           -0.57381927669976        4.34731434108431        7.87800026266330
H           -3.42803043948152        5.68076474016587        7.37812698861957
H           -5.72930387897138        4.79683443331253        7.33076082414776
H           -4.86823721637997        2.40865023554484        3.87870173595817
H            2.93539110251063       -0.15008542012806       -1.21415181748912
H            7.16390341450158       -0.13788844254712       -0.50676143689507
H            6.93760999014446        1.62750039188211        1.20437640704176
H            4.69940896899904        3.88153561164290        3.50856948678437
H            6.08469186017448        2.93560421882237        2.93591777404098
H            6.45516762547448        5.25708671796470        2.28359577046032
H            6.07711026541685        4.31815899384343        0.80222491434025
H            2.71917701424024        7.04926140910048        1.18161808284690
H            3.32356338130269        7.26372167393155       -0.46455718353611
H            1.96883631246630        6.17298360557517       -0.18936635473970

          :  Hamiltonian                  GFN2-xTB          :
         :: total energy            -107.292881000860 Eh    ::
         :: gradient norm              0.000395152745 Eh/a0 ::
         :: HOMO-LUMO gap              1.768013588433 eV    ::
         :: SCC energy              -108.964492470323 Eh    ::
         :: -> dispersion             -0.082997830746 Eh    ::
         :: repulsion energy           1.671611469463 Eh    ::

    * Orbital Energies and Occupations

         #    Occupation            Energy/Eh            Energy/eV
      -------------------------------------------------------------
         1        2.0000           -0.8532846             -23.2191
       ...           ...                  ...                  ...
        85        2.0000           -0.5512018             -14.9990
        86        2.0000           -0.5432177             -14.7817
        87        2.0000           -0.5419767             -14.7479
        88        2.0000           -0.5368745             -14.6091
        89        2.0000           -0.5271527             -14.3446
        90        2.0000           -0.5231753             -14.2363
        91        2.0000           -0.5226703             -14.2226
        92        2.0000           -0.5103804             -13.8882
        93        2.0000           -0.5061117             -13.7720
        94        2.0000           -0.5009371             -13.6312
        95        2.0000           -0.5008335             -13.6284
        96        2.0000           -0.4941414             -13.4463
        97        2.0000           -0.4594644             -12.5027 (HOMO)
        98                         -0.3944911             -10.7347 (LUMO)
        99                         -0.3598058              -9.7908
       100                         -0.3516441              -9.5687
       101                         -0.3407376              -9.2719
       102                         -0.3361148              -9.1461
       103                         -0.3290650              -8.9543
       104                         -0.3007076              -8.1827
       105                         -0.2866200              -7.7993
       106                         -0.2791691              -7.5966
       107                         -0.2578728              -7.0171
       108                         -0.2526453              -6.8748
       ...                                ...                  ...
       183                          1.1015323              29.9742
      -------------------------------------------------------------
                  HL-Gap            0.0649733 Eh            1.7680 eV

     #   Z          covCN         q      C6AA      α(0)
     1   8 O        1.656    -0.424    21.328     6.234
     2   6 C        3.673     0.069    19.650     6.353
     3   6 C        3.737    -0.020    21.015     6.542
     4   7 N        2.813    -0.025    21.723     6.922
     5   6 C        3.029     0.118    25.369     8.262
     6   6 C        2.903    -0.104    30.633     9.075
     7   6 C        2.894    -0.026    28.647     8.775
     8   6 C        2.904    -0.102    30.574     9.066
     9   6 C        3.017     0.112    25.512     8.285
    10   7 N        2.816    -0.031    21.846     6.942
    11   6 C        3.739    -0.003    20.704     6.492
    12   6 C        3.752    -0.117    22.796     6.809
    13   6 C        3.072     0.041    26.997     8.519
    14   6 C        3.061     0.045    26.924     8.509
    15   7 N        2.824    -0.029    21.803     6.935
    16   6 C        3.739    -0.004    20.735     6.497
    17   6 C        3.752    -0.118    22.818     6.812
    18   6 C        2.910    -0.042    29.050     8.838
    19   6 C        2.931    -0.022    28.554     8.763
    20   6 C        2.979     0.024    27.468     8.597
    21   6 C        2.920    -0.040    28.990     8.829
    22   6 C        1.913     0.111    28.351     8.599
    23   7 N        0.911    -0.197    25.277     7.271
    24   7 N        2.822    -0.021    21.654     6.911
    25   6 C        3.068     0.049    26.828     8.493
    26   6 C        3.073     0.052    26.759     8.482
    27   6 C        2.920    -0.032    28.796     8.800
    28   6 C        2.979     0.027    27.387     8.584
    29   6 C        1.914     0.114    28.289     8.590
    30   7 N        0.911    -0.196    25.266     7.270
    31   6 C        2.933    -0.020    28.506     8.756
    32   6 C        2.910    -0.042    29.046     8.837
    33   6 C        3.739    -0.014    20.904     6.524
    34   6 C        3.697     0.067    19.618     6.336
    35   8 O        1.704    -0.261    18.330     5.781
    36   6 C        2.710     0.365    20.802     7.466
    37   8 O        0.856    -0.425    22.191     6.316
    38   6 C        3.754    -0.152    23.499     6.912
    39   1 H        0.805     0.299     0.724     1.337
    40   1 H        0.924     0.086     1.921     2.167
    41   1 H        0.924     0.036     2.505     2.475
    42   1 H        0.925     0.063     2.163     2.300
    43   1 H        0.924     0.070     2.088     2.260
    44   1 H        0.926     0.048     2.344     2.394
    45   1 H        0.926     0.044     2.397     2.421
    46   1 H        0.926     0.050     2.322     2.383
    47   1 H        0.924     0.069     2.101     2.267
    48   1 H        0.924     0.057     2.230     2.335
    49   1 H        0.925     0.061     2.187     2.312
    50   1 H        0.925     0.059     2.205     2.322
    51   1 H        0.925     0.051     2.307     2.375
    52   1 H        0.924     0.062     2.171     2.304
    53   1 H        0.924     0.072     2.065     2.247
    54   1 H        0.925     0.052     2.292     2.367
    55   1 H        0.925     0.066     2.135     2.285
    56   1 H        0.925     0.057     2.232     2.336
    57   1 H        0.926     0.058     2.222     2.331
    58   1 H        0.926     0.068     2.108     2.270
    59   1 H        0.926     0.058     2.221     2.331
    60   1 H        0.926     0.086     1.916     2.165
    61   1 H        0.926     0.068     2.104     2.268
    62   1 H        0.926     0.053     2.279     2.361
    63   1 H        0.924     0.080     1.974     2.197
    64   1 H        0.924     0.081     1.971     2.195
    65   1 H        0.924     0.082     1.955     2.187
    66   1 H        0.924     0.075     2.034     2.230
    67   1 H        0.925     0.080     1.979     2.200
    68   1 H        0.925     0.101     1.780     2.086
    69   1 H        0.925     0.080     1.984     2.202

Wiberg/Mayer (AO) data.
largest (>0.10) Wiberg bond orders for each atom

     #   Z sym  total        # sym  WBO       # sym  WBO       # sym  WBO
 ---------------------------------------------------------------------------
     1   8 O    1.985 --     2 C    1.017    39 H    0.897
     2   6 C    3.952 --     1 O    1.017    41 H    0.971     3 C    0.970
                            40 H    0.963
     3   6 C    3.960 --     4 N    0.983     2 C    0.970    42 H    0.964
                            43 H    0.964
     4   7 N    3.566 --     5 C    1.224    26 C    1.110     3 C    0.983
     5   6 C    3.926 --     6 C    1.280     4 N    1.224    24 N    1.208
     6   6 C    3.930 --     7 C    1.441     5 C    1.280    44 H    0.952
     7   6 C    3.967 --     6 C    1.441     8 C    1.407    45 H    0.952
     8   6 C    3.933 --     7 C    1.407     9 C    1.318    46 H    0.950
     9   6 C    3.924 --     8 C    1.318    10 N    1.204    15 N    1.196
    10   7 N    3.568 --     9 C    1.204    13 C    1.121    11 C    0.983
    11   6 C    3.960 --    12 C    1.006    10 N    0.983    47 H    0.965
                            48 H    0.963
    12   6 C    3.987 --    11 C    1.006    49 H    0.984    51 H    0.982
                            50 H    0.982
    13   6 C    3.957 --    21 C    1.381    14 C    1.257    10 N    1.121
    14   6 C    3.942 --    18 C    1.351    13 C    1.257    15 N    1.141
    15   7 N    3.574 --     9 C    1.196    14 C    1.141    16 C    0.981
    16   6 C    3.958 --    17 C    1.006    15 N    0.981    53 H    0.966
                            52 H    0.962
    17   6 C    3.986 --    16 C    1.006    56 H    0.986    54 H    0.985
                            55 H    0.981
    18   6 C    3.974 --    19 C    1.475    14 C    1.351    57 H    0.963
    19   6 C    3.977 --    18 C    1.475    20 C    1.339    58 H    0.968
    20   6 C    3.974 --    21 C    1.376    19 C    1.339    22 C    1.089
    21   6 C    3.973 --    13 C    1.381    20 C    1.376    59 H    0.964
    22   6 C    3.949 --    23 N    2.820    20 C    1.089
    23   7 N    2.986 --    22 C    2.820
    24   7 N    3.576 --     5 C    1.208    25 C    1.126    33 C    0.992
    25   6 C    3.938 --    32 C    1.352    26 C    1.266    24 N    1.126
    26   6 C    3.955 --    27 C    1.379    25 C    1.266     4 N    1.110
    27   6 C    3.971 --    28 C    1.384    26 C    1.379    60 H    0.957
                            32 C    0.103
    28   6 C    3.978 --    27 C    1.384    31 C    1.336    29 C    1.087
    29   6 C    3.949 --    30 N    2.821    28 C    1.087
    30   7 N    2.987 --    29 C    2.821
    31   6 C    3.978 --    32 C    1.478    28 C    1.336    61 H    0.967
    32   6 C    3.977 --    31 C    1.478    25 C    1.352    62 H    0.964
                            27 C    0.103
    33   6 C    3.964 --    24 N    0.992    34 C    0.983    63 H    0.962
                            64 H    0.962
    34   6 C    3.928 --    33 C    0.983    65 H    0.965    66 H    0.965
                            35 O    0.953
    35   8 O    2.306 --    36 C    1.120    34 C    0.953    37 O    0.167
    36   6 C    3.912 --    37 O    1.743    35 O    1.120    38 C    0.998
    37   8 O    2.027 --    36 C    1.743    35 O    0.167
    38   6 C    3.988 --    36 C    0.998    67 H    0.978    69 H    0.972
                            68 H    0.946
    39   1 H    0.911 --     1 O    0.897
    40   1 H    0.993 --     2 C    0.963
    41   1 H    0.998 --     2 C    0.971
    42   1 H    0.996 --     3 C    0.964
    43   1 H    0.993 --     3 C    0.964
    44   1 H    0.996 --     6 C    0.952
    45   1 H    0.998 --     7 C    0.952
    46   1 H    0.997 --     8 C    0.950
    47   1 H    0.994 --    11 C    0.965
    48   1 H    0.996 --    11 C    0.963
    49   1 H    0.996 --    12 C    0.984
    50   1 H    0.996 --    12 C    0.982
    51   1 H    0.997 --    12 C    0.982
    52   1 H    0.995 --    16 C    0.962
    53   1 H    0.994 --    16 C    0.966
    54   1 H    0.997 --    17 C    0.985
    55   1 H    0.995 --    17 C    0.981
    56   1 H    0.997 --    17 C    0.986
    57   1 H    0.995 --    18 C    0.963
    58   1 H    0.995 --    19 C    0.968
    59   1 H    0.996 --    21 C    0.964
    60   1 H    0.992 --    27 C    0.957
    61   1 H    0.995 --    31 C    0.967
    62   1 H    0.996 --    32 C    0.964
    63   1 H    0.993 --    33 C    0.962
    64   1 H    0.992 --    33 C    0.962
    65   1 H    0.992 --    34 C    0.965
    66   1 H    0.994 --    34 C    0.965
    67   1 H    0.994 --    38 C    0.978
    68   1 H    0.990 --    38 C    0.946
    69   1 H    0.994 --    38 C    0.972
 ---------------------------------------------------------------------------

molecular dipole:
                 x           y           z       tot (Debye)
 q only:        2.295       7.598       6.471
   full:        2.524       8.395       6.870      28.309

           -------------------------------------------------
          | TOTAL ENERGY             -107.292881000860 Eh   |
          | GRADIENT NORM               0.000395152745 Eh/α |
          | HOMO-LUMO GAP               1.768013588433 eV   |
           -------------------------------------------------

 * finished run on 2024/12/20 at 06:46:02.003
