   * xtb version 6.7.1 (edcfbbe) compiled by 'conda@3ef47c1a292c' on 2024-11-25

   ID    Z sym.   atoms
    1    6 C      1, 2, 4, 5, 7, 8
    2    7 N      3, 6
    3    1 H      9-19

          program call               : xtb C0473.xyz --opt --namespace C0473 --charge +1
          :  Hamiltonian                  GFN2-xTB          :
 * total energy  :   -23.9258120 Eh     change       -0.3064926E-09 Eh
 * total energy  :   -23.9284801 Eh     change       -0.2668063E-02 Eh
 * total energy  :   -23.9290718 Eh     change       -0.5917661E-03 Eh
 * total energy  :   -23.9291722 Eh     change       -0.1003749E-03 Eh
 * total energy  :   -23.9292253 Eh     change       -0.5304380E-04 Eh
 * total energy  :   -23.9292465 Eh     change       -0.2125989E-04 Eh
 * total energy  :   -23.9292913 Eh     change       -0.4473561E-04 Eh
 * total energy  :   -23.9293627 Eh     change       -0.7148060E-04 Eh
 * total energy  :   -23.9294397 Eh     change       -0.7692547E-04 Eh
 * total energy  :   -23.9294987 Eh     change       -0.5900546E-04 Eh
 * total energy  :   -23.9295884 Eh     change       -0.8970534E-04 Eh
 * total energy  :   -23.9296408 Eh     change       -0.5245966E-04 Eh
 * total energy  :   -23.9296749 Eh     change       -0.3408936E-04 Eh
 * total energy  :   -23.9297026 Eh     change       -0.2770564E-04 Eh
 * total energy  :   -23.9297307 Eh     change       -0.2805639E-04 Eh
 * total energy  :   -23.9297561 Eh     change       -0.2537171E-04 Eh
 * total energy  :   -23.9297599 Eh     change       -0.3866639E-05 Eh
 * total energy  :   -23.9297735 Eh     change       -0.1358063E-04 Eh
 * total energy  :   -23.9297764 Eh     change       -0.2866898E-05 Eh
   *** GEOMETRY OPTIMIZATION CONVERGED AFTER 19 ITERATIONS ***

 final structure:
================
19
 xtb: 6.7.1 (edcfbbe)
C            1.17587050091980        0.30784560968916        0.02946818560375
C            0.18634375994995        0.53653372238590       -1.10849542199868
N            0.71508802703755        0.03191564441965       -2.35839906497126
C            1.63406563696598        0.66292962626995       -3.13914307919477
C            1.90738040154683       -0.15956538805945       -4.18991285434648
N            1.15190440675006       -1.28127305879672       -4.03286177525196
C            0.44226183688115       -1.14423690631580       -2.91581654678003
C            1.14939322848493       -2.41851922688430       -4.91366192745195
H            1.37401227262021       -0.75229085216271        0.16527705464127
H            0.75758189378740        0.69824359011783        0.95198260458842
H            2.11555531929027        0.81888118045114       -0.16280177759597
H           -0.75538627438144        0.02566331460361       -0.90106477804059
H           -0.01008977016114        1.60416791211642       -1.22679967410088
H            2.01856715827053        1.63517087123656       -2.90744093330044
H            2.57093182680394       -0.02148449280218       -5.01907155636492
H           -0.24946446494383       -1.86760392880759       -2.52856379491258
H            1.98883998587901       -3.07768967017922       -4.68336534827959
H            0.22227578223635       -2.97713321151066       -4.80068242472468
H            1.24395847206235       -2.08544473577172       -5.94615688751853

          :  Hamiltonian                  GFN2-xTB          :
         :: total energy             -23.929776369891 Eh    ::
         :: gradient norm              0.000446885507 Eh/a0 ::
         :: HOMO-LUMO gap              4.888134187856 eV    ::
         :: SCC energy               -24.300468815756 Eh    ::
         :: -> dispersion             -0.011734990753 Eh    ::
         :: repulsion energy           0.370692445865 Eh    ::

    * Orbital Energies and Occupations

         #    Occupation            Energy/Eh            Energy/eV
      -------------------------------------------------------------
         1        2.0000           -0.9020737             -24.5467
       ...           ...                  ...                  ...
        10        2.0000           -0.7205734             -19.6078
        11        2.0000           -0.7019894             -19.1021
        12        2.0000           -0.6957668             -18.9328
        13        2.0000           -0.6856965             -18.6588
        14        2.0000           -0.6788800             -18.4733
        15        2.0000           -0.6667235             -18.1425
        16        2.0000           -0.6549819             -17.8230
        17        2.0000           -0.6439145             -17.5218
        18        2.0000           -0.6377125             -17.3530
        19        2.0000           -0.6060359             -16.4911
        20        2.0000           -0.6049010             -16.4602
        21        2.0000           -0.5957188             -16.2103
        22        2.0000           -0.5919548             -16.1079 (HOMO)
        23                         -0.4123192             -11.2198 (LUMO)
        24                         -0.3760206             -10.2320
        25                         -0.1903615              -5.1800
        26                         -0.1347953              -3.6680
        27                         -0.0629466              -1.7129
        28                         -0.0517980              -1.4095
        29                         -0.0356844              -0.9710
        30                         -0.0283041              -0.7702
        31                         -0.0124177              -0.3379
        32                          0.0004822               0.0131
        33                          0.0169533               0.4613
       ...                                ...                  ...
        43                          0.4577426              12.4558
      -------------------------------------------------------------
                  HL-Gap            0.1796356 Eh            4.8881 eV

     #   Z          covCN         q      C6AA      α(0)
     1   6 C        3.753    -0.125    22.959     6.833
     2   6 C        3.741    -0.023    21.066     6.549
     3   7 N        2.869     0.069    20.030     6.647
     4   6 C        3.074    -0.005    28.067     8.686
     5   6 C        3.073    -0.008    28.143     8.698
     6   7 N        2.867     0.079    19.860     6.619
     7   6 C        3.100     0.044    26.884     8.497
     8   6 C        3.692    -0.088    22.363     6.767
     9   1 H        0.925     0.064     2.148     2.292
    10   1 H        0.925     0.087     1.910     2.161
    11   1 H        0.925     0.068     2.105     2.269
    12   1 H        0.924     0.086     1.913     2.163
    13   1 H        0.924     0.094     1.840     2.121
    14   1 H        0.926     0.111     1.684     2.029
    15   1 H        0.926     0.112     1.682     2.028
    16   1 H        0.926     0.114     1.659     2.014
    17   1 H        0.924     0.108     1.715     2.048
    18   1 H        0.925     0.101     1.771     2.081
    19   1 H        0.925     0.109     1.706     2.043

Wiberg/Mayer (AO) data.
largest (>0.10) Wiberg bond orders for each atom

     #   Z sym  total        # sym  WBO       # sym  WBO       # sym  WBO
 ---------------------------------------------------------------------------
     1   6 C    3.980 --     2 C    1.001     9 H    0.984    11 H    0.983
                            10 H    0.975
     2   6 C    3.936 --     1 C    1.001    12 H    0.967     3 N    0.965
                            13 H    0.962
     3   7 N    3.719 --     7 C    1.364     4 C    1.232     2 C    0.965
     4   6 C    3.950 --     5 C    1.590     3 N    1.232    14 H    0.960
     5   6 C    3.948 --     4 C    1.590     6 N    1.229    15 H    0.961
     6   7 N    3.723 --     7 C    1.361     5 C    1.229     8 C    0.990
     7   6 C    3.947 --     3 N    1.364     6 N    1.361    16 H    0.953
     8   6 C    3.932 --     6 N    0.990    18 H    0.973    19 H    0.968
                            17 H    0.958
     9   1 H    0.996 --     1 C    0.984
    10   1 H    0.992 --     1 C    0.975
    11   1 H    0.995 --     1 C    0.983
    12   1 H    0.992 --     2 C    0.967
    13   1 H    0.991 --     2 C    0.962
    14   1 H    0.987 --     4 C    0.960
    15   1 H    0.987 --     5 C    0.961
    16   1 H    0.987 --     7 C    0.953
    17   1 H    0.988 --     8 C    0.958
    18   1 H    0.989 --     8 C    0.973
    19   1 H    0.988 --     8 C    0.968
 ---------------------------------------------------------------------------

molecular dipole:
                 x           y           z       tot (Debye)
 q only:        1.839      -1.257      -5.737
   full:        1.773      -1.303      -5.771      15.698

           -------------------------------------------------
          | TOTAL ENERGY              -23.929776369891 Eh   |
          | GRADIENT NORM               0.000446885507 Eh/α |
          | HOMO-LUMO GAP               4.888134187856 eV   |
           -------------------------------------------------

 * finished run on 2024/12/20 at 06:46:04.908
