   * xtb version 6.7.1 (edcfbbe) compiled by 'conda@3ef47c1a292c' on 2024-11-25

   ID    Z sym.   atoms
    1    6 C      1-4, 6, 8-10
    2    8 O      5
    3    7 N      7
    4    1 H      11-30

          program call               : xtb C0475.xyz --opt --namespace C0475 --charge +1
          :  Hamiltonian                  GFN2-xTB          :
 * total energy  :   -33.9047978 Eh     change       -0.3281926E-09 Eh
 * total energy  :   -33.9099250 Eh     change       -0.5127276E-02 Eh
 * total energy  :   -33.9111946 Eh     change       -0.1269596E-02 Eh
 * total energy  :   -33.9113597 Eh     change       -0.1650655E-03 Eh
 * total energy  :   -33.9115271 Eh     change       -0.1674085E-03 Eh
 * total energy  :   -33.9115966 Eh     change       -0.6949149E-04 Eh
 * total energy  :   -33.9117164 Eh     change       -0.1198142E-03 Eh
 * total energy  :   -33.9117964 Eh     change       -0.7993569E-04 Eh
 * total energy  :   -33.9118484 Eh     change       -0.5203813E-04 Eh
 * total energy  :   -33.9118860 Eh     change       -0.3765026E-04 Eh
 * total energy  :   -33.9120515 Eh     change       -0.2710196E-04 Eh
 * total energy  :   -33.9120630 Eh     change       -0.1141004E-04 Eh
 * total energy  :   -33.9120740 Eh     change       -0.1108842E-04 Eh
 * total energy  :   -33.9120845 Eh     change       -0.1041468E-04 Eh
 * total energy  :   -33.9120948 Eh     change       -0.1031227E-04 Eh
 * total energy  :   -33.9121028 Eh     change       -0.8031842E-05 Eh
 * total energy  :   -33.9121102 Eh     change       -0.7385242E-05 Eh
 * total energy  :   -33.9121180 Eh     change       -0.7827068E-05 Eh
 * total energy  :   -33.9121208 Eh     change       -0.2753855E-05 Eh
   *** GEOMETRY OPTIMIZATION CONVERGED AFTER 22 ITERATIONS ***

 final structure:
================
30
 xtb: 6.7.1 (edcfbbe)
C            1.72279454380163        0.86398455741082        1.95361581578478
C            0.69424129587979        1.96215737533190        1.70615315692182
C            1.03436220893324        2.85867291262963        0.51366155747042
C            0.95601132115421        2.17733616763331       -0.85110096196021
O           -0.40085880572649        1.92283669777592       -1.25379522838451
C           -0.94585150286291        0.69965887717636       -0.98681231362229
N           -1.29565111250758       -0.00312314526630       -2.29865341009230
C           -0.07555257541743       -0.18454284988859       -3.10375141035364
C           -1.90607181511294       -1.30937114280886       -2.00844694663869
C           -2.24602693488697        0.84930796646699       -3.03640212965036
H            1.78695494403231        0.16295599092907        1.12309864128736
H            1.46128106232128        0.30155227382069        2.84579971453512
H            2.70737000077942        1.29842948621445        2.10436301016486
H           -0.29992597306605        1.52733356570210        1.57612470272309
H            0.65071201335744        2.59509585132757        2.59315772858891
H            0.35448671175390        3.71165508093746        0.49924721894069
H            2.04918936134163        3.23999545968306        0.63282580951673
H            1.35206014956506        2.85326170611769       -1.61261222885409
H            1.53603702375769        1.24974308680935       -0.86338894981366
H           -0.27417070091044        0.03772745948319       -0.42708018581848
H           -1.89394263011051        0.81083309510310       -0.44429483101312
H            0.63291134544109       -0.82133698709144       -2.57632907601805
H           -0.32212137198962       -0.64994884889878       -4.05604166619791
H            0.38380150629521        0.78405644310761       -3.29344070157125
H           -2.79465610723152       -1.18437388813570       -1.39201525879146
H           -2.19353191898146       -1.79815255495255       -2.93794671948454
H           -1.20163733207245       -1.95031476836567       -1.48063833823781
H           -3.18380987082445        0.92403178934919       -2.48951153768992
H           -1.82418372182430        1.84757594681630       -3.14134966039412
H           -2.44121111488902        0.43050239558359       -4.02114580134685

          :  Hamiltonian                  GFN2-xTB          :
         :: total energy             -33.912120769187 Eh    ::
         :: gradient norm              0.000332846780 Eh/a0 ::
         :: HOMO-LUMO gap              7.880100255716 eV    ::
         :: SCC energy               -34.341357535915 Eh    ::
         :: -> dispersion             -0.019724798771 Eh    ::
         :: repulsion energy           0.429236766729 Eh    ::

    * Orbital Energies and Occupations

         #    Occupation            Energy/Eh            Energy/eV
      -------------------------------------------------------------
         1        2.0000           -0.8806605             -23.9640
       ...           ...                  ...                  ...
        19        2.0000           -0.6498681             -17.6838
        20        2.0000           -0.6474197             -17.6172
        21        2.0000           -0.6435863             -17.5129
        22        2.0000           -0.6420635             -17.4714
        23        2.0000           -0.6250292             -17.0079
        24        2.0000           -0.6230207             -16.9533
        25        2.0000           -0.6048265             -16.4582
        26        2.0000           -0.5874881             -15.9864
        27        2.0000           -0.5771186             -15.7042
        28        2.0000           -0.5652624             -15.3816
        29        2.0000           -0.5460195             -14.8579
        30        2.0000           -0.5412997             -14.7295
        31        2.0000           -0.5333003             -14.5118 (HOMO)
        32                         -0.2437119              -6.6317 (LUMO)
        33                         -0.1816682              -4.9434
        34                         -0.1565267              -4.2593
        35                         -0.1458725              -3.9694
        36                         -0.1226335              -3.3370
        37                         -0.0713536              -1.9416
        38                         -0.0335946              -0.9142
        39                         -0.0230023              -0.6259
        40                         -0.0151902              -0.4133
        41                         -0.0019343              -0.0526
        42                          0.0098629               0.2684
       ...                                ...                  ...
        60                          0.1884277               5.1274
      -------------------------------------------------------------
                  HL-Gap            0.2895884 Eh            7.8801 eV

     #   Z          covCN         q      C6AA      α(0)
     1   6 C        3.751    -0.109    22.647     6.787
     2   6 C        3.799    -0.058    21.624     6.621
     3   6 C        3.800    -0.077    21.976     6.675
     4   6 C        3.685     0.063    19.712     6.356
     5   8 O        1.700    -0.288    18.778     5.851
     6   6 C        3.641     0.115    19.021     6.271
     7   7 N        3.618     0.118    19.210     6.510
     8   6 C        3.718    -0.092    22.376     6.757
     9   6 C        3.716    -0.099    22.524     6.780
    10   6 C        3.720    -0.098    22.500     6.775
    11   1 H        0.925     0.019     2.744     2.590
    12   1 H        0.925     0.049     2.328     2.386
    13   1 H        0.925     0.051     2.310     2.377
    14   1 H        0.924     0.025     2.663     2.552
    15   1 H        0.924     0.055     2.257     2.350
    16   1 H        0.924     0.062     2.172     2.304
    17   1 H        0.924     0.063     2.161     2.299
    18   1 H        0.924     0.069     2.094     2.263
    19   1 H        0.924     0.041     2.434     2.440
    20   1 H        0.924     0.077     2.012     2.218
    21   1 H        0.923     0.084     1.943     2.180
    22   1 H        0.925     0.093     1.848     2.126
    23   1 H        0.925     0.101     1.780     2.086
    24   1 H        0.925     0.110     1.696     2.036
    25   1 H        0.925     0.099     1.790     2.092
    26   1 H        0.925     0.108     1.716     2.048
    27   1 H        0.925     0.098     1.803     2.100
    28   1 H        0.925     0.100     1.785     2.089
    29   1 H        0.925     0.119     1.623     1.992
    30   1 H        0.925     0.101     1.777     2.085

Wiberg/Mayer (AO) data.
largest (>0.10) Wiberg bond orders for each atom

     #   Z sym  total        # sym  WBO       # sym  WBO       # sym  WBO
 ---------------------------------------------------------------------------
     1   6 C    3.995 --     2 C    1.020    13 H    0.986    12 H    0.986
                            11 H    0.985
     2   6 C    3.996 --     1 C    1.020     3 C    1.008    14 H    0.977
                            15 H    0.975
     3   6 C    3.989 --     2 C    1.008     4 C    1.003    16 H    0.973
                            17 H    0.969
     4   6 C    3.916 --     3 C    1.003    18 H    0.969    19 H    0.967
                             5 O    0.929
     5   8 O    2.137 --     6 C    1.072     4 C    0.929
     6   6 C    3.928 --     5 O    1.072    20 H    0.955    21 H    0.954
                             7 N    0.876
     7   7 N    3.804 --     9 C    0.962     8 C    0.958    10 C    0.954
                             6 C    0.876
     8   6 C    3.924 --    22 H    0.976    23 H    0.974    24 H    0.972
                             7 N    0.958
     9   6 C    3.926 --    27 H    0.975    25 H    0.975    26 H    0.973
                             7 N    0.962
    10   6 C    3.918 --    28 H    0.975    30 H    0.974    29 H    0.969
                             7 N    0.954
    11   1 H    1.000 --     1 C    0.985
    12   1 H    0.998 --     1 C    0.986
    13   1 H    0.997 --     1 C    0.986
    14   1 H    0.999 --     2 C    0.977
    15   1 H    0.997 --     2 C    0.975
    16   1 H    0.996 --     3 C    0.973
    17   1 H    0.995 --     3 C    0.969
    18   1 H    0.995 --     4 C    0.969
    19   1 H    0.998 --     4 C    0.967
    20   1 H    0.994 --     6 C    0.955
    21   1 H    0.993 --     6 C    0.954
    22   1 H    0.991 --     8 C    0.976
    23   1 H    0.990 --     8 C    0.974
    24   1 H    0.988 --     8 C    0.972
    25   1 H    0.990 --     9 C    0.975
    26   1 H    0.988 --     9 C    0.973
    27   1 H    0.990 --     9 C    0.975
    28   1 H    0.990 --    10 C    0.975
    29   1 H    0.986 --    10 C    0.969
    30   1 H    0.990 --    10 C    0.974
 ---------------------------------------------------------------------------

molecular dipole:
                 x           y           z       tot (Debye)
 q only:       -1.740       0.220      -3.747
   full:       -1.715       0.026      -3.713      10.397

           -------------------------------------------------
          | TOTAL ENERGY              -33.912120769187 Eh   |
          | GRADIENT NORM               0.000332846780 Eh/α |
          | HOMO-LUMO GAP               7.880100255716 eV   |
           -------------------------------------------------

 * finished run on 2024/12/20 at 06:46:07.726
