   * xtb version 6.7.1 (edcfbbe) compiled by 'conda@3ef47c1a292c' on 2024-11-25

   ID    Z sym.   atoms
    1    6 C      1-16, 18-23
    2    7 N      17
    3    1 H      24-63

          program call               : xtb C0485.xyz --opt --namespace C0485 --charge +1
          :  Hamiltonian                  GFN2-xTB          :
 * total energy  :   -70.0667424 Eh     change       -0.6673133E-09 Eh
 * total energy  :   -70.0703119 Eh     change       -0.3569481E-02 Eh
 * total energy  :   -70.0708833 Eh     change       -0.5713953E-03 Eh
 * total energy  :   -70.0709936 Eh     change       -0.1102462E-03 Eh
 * total energy  :   -70.0711631 Eh     change       -0.1695771E-03 Eh
 * total energy  :   -70.0713081 Eh     change       -0.1449642E-03 Eh
 * total energy  :   -70.0714982 Eh     change       -0.1901362E-03 Eh
 * total energy  :   -70.0717099 Eh     change       -0.2116189E-03 Eh
 * total energy  :   -70.0718494 Eh     change       -0.1395656E-03 Eh
 * total energy  :   -70.0719336 Eh     change       -0.8419205E-04 Eh
 * total energy  :   -70.0723610 Eh     change       -0.1317007E-04 Eh
 * total energy  :   -70.0723682 Eh     change       -0.7189527E-05 Eh
 * total energy  :   -70.0723734 Eh     change       -0.5217125E-05 Eh
 * total energy  :   -70.0723786 Eh     change       -0.5232296E-05 Eh
 * total energy  :   -70.0723841 Eh     change       -0.5432660E-05 Eh
 * total energy  :   -70.0723909 Eh     change       -0.6818454E-05 Eh
 * total energy  :   -70.0723989 Eh     change       -0.8034680E-05 Eh
 * total energy  :   -70.0724058 Eh     change       -0.6909567E-05 Eh
 * total energy  :   -70.0724101 Eh     change       -0.4255022E-05 Eh
   *** GEOMETRY OPTIMIZATION CONVERGED AFTER 29 ITERATIONS ***

 final structure:
================
63
 xtb: 6.7.1 (edcfbbe)
C            0.96990186321691        0.54615915519841        0.24636659514124
C            0.89352956251254        0.75592742335652       -1.26109868269411
C            1.30646502503705       -0.47802307292911       -2.06486873249360
C            0.43623036696285       -1.71679989118375       -1.84133361279070
C           -1.05055971927643       -1.52752520492487       -2.14766474914694
C           -1.36346309226006       -1.07102864064224       -3.57374882303663
C           -0.87854402443087       -2.01522497241740       -4.67534085292333
C           -1.45447082533090       -3.43144493826907       -4.61349553603025
C           -2.98204750630672       -3.50968215797963       -4.65226349105934
C           -3.63052512125553       -2.85150852462150       -5.87151446372684
C           -3.20710611967783       -3.43480879743772       -7.22091080812151
C           -3.52421496758270       -4.91963519916788       -7.41015653905191
C           -5.00040348295812       -5.29110972183952       -7.24584987619056
C           -5.96371098820163       -4.51999270468282       -8.15233201152821
C           -5.70615323585038       -4.68089993548148       -9.65018329989744
C           -5.96873628214508       -6.09864765468066      -10.17791621535804
N           -7.38145845949646       -6.41919843549190      -10.09844721732449
C           -7.87257482918887       -7.07053368641875       -9.03754984243233
C           -9.22070772405850       -7.31324169045803       -8.90534425317188
C          -10.11576632537863       -6.87628436621868       -9.88476854991235
C           -9.56745100245054       -6.19510076414566      -10.97953253770197
C           -8.21385372581129       -5.98223253367135      -11.05544442859730
C          -11.57183443000172       -7.12129732856738       -9.78756379015575
H            0.24514207429308       -0.19345739657578        0.57703390824125
H            0.76225995373030        1.47824625814103        0.76709485364672
H            1.96314579899233        0.20791596037306        0.53371508441224
H           -0.11905916353953        1.05707477119225       -1.53575734193452
H            1.56082964885914        1.57664287228838       -1.53610527739007
H            1.30220725819496       -0.22027492234423       -3.12621015950315
H            2.33487364655757       -0.73693080881797       -1.79987100682773
H            0.83183788823713       -2.52684076569302       -2.45820078422554
H            0.53066713806399       -2.03553952098461       -0.80144235654123
H           -1.56297338540503       -2.47182283917899       -1.94921079806533
H           -1.46622176324112       -0.79047340303265       -1.45776046461019
H           -2.44436742100858       -0.93789319676405       -3.66076355234420
H           -0.90948476383967       -0.09275314561504       -3.74259182661481
H           -1.12262645772239       -1.56725070472305       -5.64156301196453
H            0.20923583683961       -2.09082665248985       -4.62800665332853
H           -1.03972806801485       -4.00613398795205       -5.44518081328849
H           -1.11588188089506       -3.91483591029381       -3.69531125730786
H           -3.27302895616507       -4.56203024113429       -4.60662733102676
H           -3.38518461007275       -3.03127158191391       -3.75799688035239
H           -4.71578483299808       -2.92422215865179       -5.76496377514443
H           -3.38453807237269       -1.78868350781746       -5.87335673190889
H           -3.68496242109731       -2.85341403405666       -8.01343482309504
H           -2.13079557881904       -3.30556177401182       -7.34100066283852
H           -3.17403043028718       -5.22526554430357       -8.39958245201011
H           -2.95362690083648       -5.49904538120923       -6.68325891195509
H           -5.09973834212966       -6.36773214826536       -7.41192075729517
H           -5.29761847786271       -5.10487371351836       -6.21331052668043
H           -6.99062805480611       -4.81933523034097       -7.91813507866213
H           -5.88563067849205       -3.45908181175578       -7.91607997084166
H           -6.33438159508605       -3.97644411698710      -10.20017171082447
H           -4.66779833688903       -4.43510338774390       -9.86728686293646
H           -5.65183264245885       -6.16614498543734      -11.22043145415449
H           -5.40335794273580       -6.82438459665662       -9.59297744254201
H           -7.16694461074666       -7.40664157511371       -8.29262769598963
H           -9.57822450983311       -7.84448327859836       -8.03742899170945
H          -10.20706040851541       -5.83460889962724      -11.76975079212725
H           -7.77044351171015       -5.45921354846706      -11.88973501276337
H          -11.89604485626657       -7.76157819178268      -10.60834825119965
H          -11.83744004398692       -7.59626782212492       -8.84800920317390
H          -12.12131548200152       -6.18560543535350       -9.88421150491439

          :  Hamiltonian                  GFN2-xTB          :
         :: total energy             -70.072410079999 Eh    ::
         :: gradient norm              0.000553519459 Eh/a0 ::
         :: HOMO-LUMO gap              0.292601463681 eV    ::
         :: SCC energy               -71.166578841156 Eh    ::
         :: -> dispersion             -0.054035499859 Eh    ::
         :: repulsion energy           1.094168761157 Eh    ::

    * Orbital Energies and Occupations

         #    Occupation            Energy/Eh            Energy/eV
      -------------------------------------------------------------
         1        2.0000           -0.8668177             -23.5873
       ...           ...                  ...                  ...
        54        2.0000           -0.5131689             -13.9640
        55        2.0000           -0.5075715             -13.8117
        56        2.0000           -0.5041759             -13.7193
        57        2.0000           -0.4975053             -13.5378
        58        2.0000           -0.4918617             -13.3842
        59        2.0000           -0.4879766             -13.2785
        60        2.0000           -0.4836445             -13.1606
        61        2.0000           -0.4742548             -12.9051
        62        2.0000           -0.4726266             -12.8608
        63        2.0000           -0.4700640             -12.7911
        64        2.0000           -0.4597371             -12.5101
        65        1.9985           -0.4546827             -12.3725
        66        1.9938           -0.4533174             -12.3354 (HOMO)
        67        0.0077           -0.4425645             -12.0428 (LUMO)
        68                         -0.4147895             -11.2870
        69                         -0.2964405              -8.0666
        70                         -0.1585000              -4.3130
        71                         -0.0753255              -2.0497
        72                         -0.0579787              -1.5777
        73                         -0.0433100              -1.1785
        74                         -0.0308920              -0.8406
        75                         -0.0224874              -0.6119
        76                         -0.0167744              -0.4565
        77                         -0.0089806              -0.2444
       ...                                ...                  ...
       132                          0.4485032              12.2044
      -------------------------------------------------------------
                  HL-Gap            0.0107529 Eh            0.2926 eV

     #   Z          covCN         q      C6AA      α(0)
     1   6 C        3.751    -0.102    22.505     6.765
     2   6 C        3.799    -0.052    21.507     6.603
     3   6 C        3.800    -0.057    21.600     6.617
     4   6 C        3.800    -0.057    21.595     6.616
     5   6 C        3.800    -0.056    21.584     6.615
     6   6 C        3.800    -0.057    21.593     6.616
     7   6 C        3.800    -0.057    21.600     6.617
     8   6 C        3.800    -0.057    21.601     6.617
     9   6 C        3.800    -0.057    21.603     6.618
    10   6 C        3.800    -0.058    21.624     6.621
    11   6 C        3.800    -0.060    21.659     6.626
    12   6 C        3.800    -0.061    21.675     6.629
    13   6 C        3.800    -0.061    21.669     6.628
    14   6 C        3.800    -0.065    21.747     6.640
    15   6 C        3.801    -0.069    21.813     6.650
    16   6 C        3.758    -0.033    21.218     6.567
    17   7 N        2.750     0.099    19.543     6.566
    18   6 C        2.889     0.032    27.291     8.565
    19   6 C        2.920    -0.028    28.703     8.786
    20   6 C        2.969     0.070    26.437     8.434
    21   6 C        2.921    -0.028    28.696     8.785
    22   6 C        2.891     0.029    27.356     8.575
    23   6 C        3.758    -0.133    23.110     6.854
    24   1 H        0.925     0.034     2.527     2.486
    25   1 H        0.925     0.032     2.556     2.500
    26   1 H        0.925     0.035     2.522     2.483
    27   1 H        0.924     0.030     2.582     2.513
    28   1 H        0.924     0.028     2.617     2.530
    29   1 H        0.924     0.028     2.612     2.527
    30   1 H        0.924     0.030     2.589     2.516
    31   1 H        0.924     0.028     2.621     2.532
    32   1 H        0.924     0.033     2.547     2.496
    33   1 H        0.924     0.026     2.641     2.541
    34   1 H        0.924     0.032     2.553     2.499
    35   1 H        0.924     0.025     2.653     2.547
    36   1 H        0.924     0.033     2.539     2.492
    37   1 H        0.924     0.025     2.655     2.548
    38   1 H        0.924     0.034     2.525     2.485
    39   1 H        0.924     0.025     2.658     2.549
    40   1 H        0.924     0.035     2.520     2.482
    41   1 H        0.924     0.024     2.680     2.560
    42   1 H        0.924     0.036     2.507     2.476
    43   1 H        0.924     0.022     2.699     2.569
    44   1 H        0.924     0.039     2.457     2.451
    45   1 H        0.924     0.024     2.680     2.560
    46   1 H        0.924     0.043     2.406     2.426
    47   1 H        0.924     0.024     2.673     2.557
    48   1 H        0.924     0.046     2.369     2.407
    49   1 H        0.924     0.017     2.787     2.611
    50   1 H        0.924     0.050     2.321     2.383
    51   1 H        0.924     0.021     2.719     2.579
    52   1 H        0.925     0.065     2.144     2.290
    53   1 H        0.924     0.048     2.340     2.392
    54   1 H        0.925     0.082     1.956     2.187
    55   1 H        0.924     0.084     1.934     2.175
    56   1 H        0.925     0.092     1.856     2.130
    57   1 H        0.926     0.105     1.738     2.062
    58   1 H        0.926     0.098     1.800     2.098
    59   1 H        0.926     0.099     1.793     2.094
    60   1 H        0.926     0.102     1.767     2.079
    61   1 H        0.924     0.101     1.774     2.083
    62   1 H        0.925     0.083     1.949     2.183
    63   1 H        0.925     0.098     1.804     2.100

Wiberg/Mayer (AO) data.
largest (>0.10) Wiberg bond orders for each atom

     #   Z sym  total        # sym  WBO       # sym  WBO       # sym  WBO
 ---------------------------------------------------------------------------
     1   6 C    3.996 --     2 C    1.020    25 H    0.987    26 H    0.987
                            24 H    0.986
     2   6 C    3.996 --     1 C    1.020     3 C    1.008    28 H    0.978
                            27 H    0.975
     3   6 C    3.996 --     2 C    1.008     4 C    1.007    30 H    0.977
                            29 H    0.975
     4   6 C    3.996 --     5 C    1.008     3 C    1.007    31 H    0.975
                            32 H    0.975
     5   6 C    3.996 --     4 C    1.008     6 C    1.007    33 H    0.975
                            34 H    0.975
     6   6 C    3.996 --     7 C    1.008     5 C    1.007    35 H    0.975
                            36 H    0.974
     7   6 C    3.997 --     6 C    1.008     8 C    1.007    37 H    0.975
                            38 H    0.974
     8   6 C    3.997 --     9 C    1.007     7 C    1.007    39 H    0.976
                            40 H    0.975
     9   6 C    3.997 --    10 C    1.008     8 C    1.007    41 H    0.975
                            42 H    0.974
    10   6 C    3.997 --     9 C    1.008    11 C    1.008    43 H    0.975
                            44 H    0.974
    11   6 C    3.996 --    10 C    1.008    12 C    1.007    45 H    0.975
                            46 H    0.973
    12   6 C    3.995 --    11 C    1.007    13 C    1.007    47 H    0.975
                            48 H    0.973
    13   6 C    3.995 --    14 C    1.007    12 C    1.007    49 H    0.973
                            50 H    0.973
    14   6 C    3.993 --    15 C    1.009    13 C    1.007    51 H    0.973
                            52 H    0.967
    15   6 C    3.980 --    14 C    1.009    16 C    0.975    53 H    0.974
                            54 H    0.961
    16   6 C    3.935 --    15 C    0.975    17 N    0.965    55 H    0.963
                            56 H    0.961
    17   7 N    3.751 --    18 C    1.315    22 C    1.301    16 C    0.965
    18   6 C    3.956 --    19 C    1.480    17 N    1.315    57 H    0.953
    19   6 C    3.984 --    18 C    1.480    20 C    1.372    58 H    0.959
    20   6 C    3.965 --    19 C    1.372    21 C    1.354    23 C    1.063
    21   6 C    3.984 --    22 C    1.503    20 C    1.354    59 H    0.960
    22   6 C    3.958 --    21 C    1.503    17 N    1.301    60 H    0.955
    23   6 C    3.984 --    20 C    1.063    62 H    0.979    63 H    0.947
                            61 H    0.939
    24   1 H    0.998 --     1 C    0.986
    25   1 H    0.999 --     1 C    0.987
    26   1 H    0.998 --     1 C    0.987
    27   1 H    0.998 --     2 C    0.975
    28   1 H    0.998 --     2 C    0.978
    29   1 H    0.999 --     3 C    0.975
    30   1 H    0.999 --     3 C    0.977
    31   1 H    0.999 --     4 C    0.975
    32   1 H    0.998 --     4 C    0.975
    33   1 H    0.999 --     5 C    0.975
    34   1 H    0.999 --     5 C    0.975
    35   1 H    0.999 --     6 C    0.975
    36   1 H    0.998 --     6 C    0.974
    37   1 H    0.999 --     7 C    0.975
    38   1 H    0.999 --     7 C    0.974
    39   1 H    0.999 --     8 C    0.976
    40   1 H    0.999 --     8 C    0.975
    41   1 H    0.999 --     9 C    0.975
    42   1 H    0.999 --     9 C    0.974
    43   1 H    0.999 --    10 C    0.975
    44   1 H    0.998 --    10 C    0.974
    45   1 H    0.999 --    11 C    0.975
    46   1 H    0.998 --    11 C    0.973
    47   1 H    0.999 --    12 C    0.975
    48   1 H    0.998 --    12 C    0.973
    49   1 H    1.000 --    13 C    0.973
    50   1 H    0.997 --    13 C    0.973
    51   1 H    1.000 --    14 C    0.973
    52   1 H    0.995 --    14 C    0.967
    53   1 H    0.998 --    15 C    0.974
    54   1 H    0.991 --    15 C    0.961
    55   1 H    0.992 --    16 C    0.963
    56   1 H    0.991 --    16 C    0.961
    57   1 H    0.989 --    18 C    0.953
    58   1 H    0.990 --    19 C    0.959
    59   1 H    0.990 --    21 C    0.960
    60   1 H    0.989 --    22 C    0.955
    61   1 H    0.988 --    23 C    0.939
    62   1 H    0.993 --    23 C    0.979
    63   1 H    0.989 --    23 C    0.947
 ---------------------------------------------------------------------------

molecular dipole:
                 x           y           z       tot (Debye)
 q only:      -15.080     -11.772     -18.296
   full:      -15.080     -11.833     -18.404      67.541

           -------------------------------------------------
          | TOTAL ENERGY              -70.072410079999 Eh   |
          | GRADIENT NORM               0.000553519459 Eh/α |
          | HOMO-LUMO GAP               0.292601463681 eV   |
           -------------------------------------------------

 * finished run on 2024/12/20 at 06:46:21.468
