   * xtb version 6.7.1 (edcfbbe) compiled by 'conda@3ef47c1a292c' on 2024-11-25

   ID    Z sym.   atoms
    1    6 C      1-6, 9-20
    2    7 N      7, 8
    3    1 H      21-47

          program call               : xtb C0480.xyz --opt --namespace C0480 --charge +1
          :  Hamiltonian                  GFN2-xTB          :
 * total energy  :   -57.7714953 Eh     change       -0.1708969E-08 Eh
 * total energy  :   -57.7916669 Eh     change       -0.2017162E-01 Eh
 * total energy  :   -57.7957090 Eh     change       -0.4042058E-02 Eh
 * total energy  :   -57.7965186 Eh     change       -0.8095653E-03 Eh
 * total energy  :   -57.7971696 Eh     change       -0.6510754E-03 Eh
 * total energy  :   -57.7974052 Eh     change       -0.2355867E-03 Eh
 * total energy  :   -57.7975946 Eh     change       -0.1893423E-03 Eh
 * total energy  :   -57.7977313 Eh     change       -0.1367645E-03 Eh
 * total energy  :   -57.7978569 Eh     change       -0.1255532E-03 Eh
 * total energy  :   -57.7979711 Eh     change       -0.1142394E-03 Eh
 * total energy  :   -57.7991897 Eh     change       -0.1291191E-04 Eh
 * total energy  :   -57.7992000 Eh     change       -0.1027524E-04 Eh
 * total energy  :   -57.7992113 Eh     change       -0.1130398E-04 Eh
 * total energy  :   -57.7992222 Eh     change       -0.1096919E-04 Eh
 * total energy  :   -57.7992311 Eh     change       -0.8826139E-05 Eh
 * total energy  :   -57.7992374 Eh     change       -0.6375579E-05 Eh
 * total energy  :   -57.7992435 Eh     change       -0.6057537E-05 Eh
 * total energy  :   -57.7992505 Eh     change       -0.6996846E-05 Eh
 * total energy  :   -57.7992528 Eh     change       -0.2316958E-05 Eh
   *** GEOMETRY OPTIMIZATION CONVERGED AFTER 68 ITERATIONS ***

 final structure:
================
47
 xtb: 6.7.1 (edcfbbe)
C            1.37913759470618       -0.94849494037268       -0.30926607011285
C            0.63466089789906       -0.15992496026976       -1.17731372187365
C           -0.70845823026856       -0.43749645109620       -1.36175695406758
C           -1.30119221895274       -1.49123934804556       -0.68492337171583
C           -0.54994271068597       -2.28267207152950        0.16940429446423
C            0.79566179780868       -2.01945016743536        0.35884040892482
N            2.76145809957670       -0.67345914823173       -0.12794791045597
N            3.31860725695823       -0.31376340541634        1.05473627967840
C            4.64703196350930       -0.19766056953040        0.88816146724961
C            4.93331560412277       -0.49744558955466       -0.43697662360877
C            3.72843649577816       -0.79477931702865       -1.05555140940059
C            3.46680255334523       -1.19823840436507       -2.45337886604962
C            5.58757048103946        0.16377701797612        1.96974430403855
C            2.55689115570205       -0.02324791329431        2.24672653334767
C            2.39627730098115        1.48229447870670        2.48726531958561
C            1.49872618076852        2.17724911454198        1.46305728021806
C            0.01405489677863        1.82023491213777        1.56785773744228
C           -0.66212828278215        2.24883575679005        2.87285021132088
C           -0.62134665079890        3.75026334347252        3.16233204996234
C           -1.30772721394960        4.58879270841540        2.09068631268238
H            1.10130581763814        0.66291769421448       -1.69608340416360
H           -1.29134626893779        0.17311354403131       -2.03252148969040
H           -2.34936564717260       -1.70036114729463       -0.82714314421554
H           -1.00807118641102       -3.11052329779524        0.68679408682100
H            1.39087627281341       -2.64735924191299        1.00560480189823
H            5.90104279781271       -0.50507673170165       -0.89332685842112
H            2.56775773059730       -1.80559101767153       -2.52639361896814
H            3.33798338346021       -0.31932931267130       -3.08530287012207
H            4.31520995667187       -1.75798514563839       -2.83844305188572
H            5.55651269614385        1.23344978818283        2.17391469339358
H            5.34998754819198       -0.36041346500289        2.89331839957384
H            6.59994370965389       -0.09036675997601        1.66910984361683
H            1.57496236174640       -0.48743974557002        2.15410563019177
H            3.07570200015028       -0.47871228818131        3.09414927198138
H            1.97890448162444        1.61434962982046        3.48454365431767
H            3.37871424536872        1.95544158579270        2.47964164348476
H            1.60745952597359        3.25345942256882        1.59427054944875
H            1.85119593392571        1.94555008451628        0.45417130524052
H           -0.50412902374635        2.29314167230043        0.73294594167390
H           -0.12414209351352        0.74204628773788        1.45278148206806
H           -1.70717915264154        1.93629721248553        2.81863683231915
H           -0.21350701582401        1.71549692529888        3.71401354456827
H           -1.12590603314692        3.91822201775460        4.11566409958804
H            0.41109895112547        4.08358250948760        3.28327386940795
H           -2.31920913867369        4.22916969254745        1.91654274520562
H           -1.36598868630049        5.62620745989540        2.40911822940245
H           -0.76228013804055        4.55711758092406        1.15053654163612

          :  Hamiltonian                  GFN2-xTB          :
         :: total energy             -57.799252800544 Eh    ::
         :: gradient norm              0.000175268820 Eh/a0 ::
         :: HOMO-LUMO gap              2.930521622201 eV    ::
         :: SCC energy               -58.744300948017 Eh    ::
         :: -> dispersion             -0.046955163309 Eh    ::
         :: repulsion energy           0.945048147473 Eh    ::

    * Orbital Energies and Occupations

         #    Occupation            Energy/Eh            Energy/eV
      -------------------------------------------------------------
         1        2.0000           -0.8761944             -23.8425
       ...           ...                  ...                  ...
        42        2.0000           -0.5664020             -15.4126
        43        2.0000           -0.5647519             -15.3677
        44        2.0000           -0.5633403             -15.3293
        45        2.0000           -0.5547367             -15.0952
        46        2.0000           -0.5536494             -15.0656
        47        2.0000           -0.5483781             -14.9221
        48        2.0000           -0.5435296             -14.7902
        49        2.0000           -0.5411943             -14.7266
        50        2.0000           -0.5396874             -14.6856
        51        2.0000           -0.5354399             -14.5701
        52        2.0000           -0.5141005             -13.9894
        53        2.0000           -0.5092975             -13.8587
        54        2.0000           -0.5046102             -13.7311 (HOMO)
        55                         -0.3969155             -10.8006 (LUMO)
        56                         -0.3646021              -9.9213
        57                         -0.3618680              -9.8469
        58                         -0.3205738              -8.7233
        59                         -0.2375989              -6.4654
        60                         -0.2044169              -5.5625
        61                         -0.1155578              -3.1445
        62                         -0.0596276              -1.6225
        63                         -0.0454870              -1.2378
        64                         -0.0309143              -0.8412
        65                         -0.0277183              -0.7543
       ...                                ...                  ...
       107                          0.5332116              14.5094
      -------------------------------------------------------------
                  HL-Gap            0.1076947 Eh            2.9305 eV

     #   Z          covCN         q      C6AA      α(0)
     1   6 C        2.914     0.043    27.044     8.528
     2   6 C        2.920    -0.031    28.776     8.797
     3   6 C        2.921    -0.017    28.435     8.745
     4   6 C        2.919    -0.016    28.405     8.740
     5   6 C        2.920    -0.019    28.480     8.751
     6   6 C        2.920    -0.038    28.939     8.822
     7   7 N        2.966     0.061    20.178     6.672
     8   7 N        2.949     0.064    20.125     6.663
     9   6 C        3.061     0.064    26.511     8.444
    10   6 C        3.036    -0.080    29.968     8.979
    11   6 C        3.057     0.064    26.513     8.444
    12   6 C        3.755    -0.126    22.983     6.836
    13   6 C        3.755    -0.127    22.993     6.837
    14   6 C        3.738    -0.024    21.087     6.553
    15   6 C        3.801    -0.071    21.857     6.656
    16   6 C        3.800    -0.062    21.699     6.632
    17   6 C        3.800    -0.061    21.668     6.628
    18   6 C        3.800    -0.061    21.681     6.629
    19   6 C        3.799    -0.056    21.581     6.614
    20   6 C        3.751    -0.106    22.587     6.778
    21   1 H        0.926     0.057     2.228     2.334
    22   1 H        0.926     0.070     2.089     2.260
    23   1 H        0.926     0.071     2.073     2.252
    24   1 H        0.926     0.068     2.104     2.268
    25   1 H        0.926     0.052     2.293     2.368
    26   1 H        0.927     0.086     1.913     2.163
    27   1 H        0.925     0.076     2.020     2.223
    28   1 H        0.925     0.092     1.862     2.134
    29   1 H        0.925     0.091     1.868     2.137
    30   1 H        0.925     0.090     1.884     2.146
    31   1 H        0.925     0.081     1.972     2.196
    32   1 H        0.925     0.090     1.880     2.144
    33   1 H        0.925     0.083     1.944     2.181
    34   1 H        0.924     0.080     1.983     2.202
    35   1 H        0.925     0.073     2.056     2.242
    36   1 H        0.924     0.050     2.321     2.382
    37   1 H        0.925     0.059     2.206     2.323
    38   1 H        0.924     0.020     2.728     2.583
    39   1 H        0.924     0.044     2.393     2.419
    40   1 H        0.924     0.015     2.808     2.620
    41   1 H        0.924     0.040     2.446     2.446
    42   1 H        0.924     0.027     2.625     2.534
    43   1 H        0.924     0.039     2.456     2.451
    44   1 H        0.924     0.030     2.579     2.512
    45   1 H        0.925     0.039     2.458     2.452
    46   1 H        0.925     0.042     2.416     2.431
    47   1 H        0.925     0.032     2.557     2.501

Wiberg/Mayer (AO) data.
largest (>0.10) Wiberg bond orders for each atom

     #   Z sym  total        # sym  WBO       # sym  WBO       # sym  WBO
 ---------------------------------------------------------------------------
     1   6 C    3.938 --     2 C    1.393     6 C    1.390     7 N    0.973
                             4 C    0.105
     2   6 C    3.988 --     3 C    1.441     1 C    1.393    21 H    0.966
                             5 C    0.109
     3   6 C    3.988 --     2 C    1.441     4 C    1.438    22 H    0.967
                             6 C    0.109
     4   6 C    3.984 --     3 C    1.438     5 C    1.437    23 H    0.967
                             1 C    0.105
     5   6 C    3.988 --     6 C    1.442     4 C    1.437    24 H    0.967
                             2 C    0.109
     6   6 C    3.989 --     5 C    1.442     1 C    1.390    25 H    0.967
                             3 C    0.109
     7   7 N    3.633 --    11 C    1.286     8 N    1.089     1 C    0.973
                             9 C    0.107
     8   7 N    3.635 --     9 C    1.302     7 N    1.089    14 C    0.971
                            11 C    0.110
     9   6 C    3.954 --    10 C    1.410     8 N    1.302    13 C    1.046
                             7 N    0.107
    10   6 C    3.973 --    11 C    1.417     9 C    1.410    26 H    0.967
    11   6 C    3.955 --    10 C    1.417     7 N    1.286    12 C    1.046
                             8 N    0.110
    12   6 C    3.983 --    11 C    1.046    27 H    0.971    29 H    0.968
                            28 H    0.948
    13   6 C    3.982 --     9 C    1.046    32 H    0.974    31 H    0.961
                            30 H    0.948
    14   6 C    3.941 --    15 C    0.985     8 N    0.971    34 H    0.956
                            33 H    0.956
    15   6 C    3.985 --    16 C    1.008    14 C    0.985    36 H    0.972
                            35 H    0.964
    16   6 C    3.994 --    15 C    1.008    17 C    1.007    38 H    0.975
                            37 H    0.970
    17   6 C    3.996 --    16 C    1.007    18 C    1.007    39 H    0.974
                            40 H    0.973
    18   6 C    3.996 --    19 C    1.008    17 C    1.007    41 H    0.976
                            42 H    0.975
    19   6 C    3.997 --    20 C    1.020    18 C    1.008    43 H    0.977
                            44 H    0.976
    20   6 C    3.996 --    19 C    1.020    45 H    0.987    46 H    0.986
                            47 H    0.986
    21   1 H    0.997 --     2 C    0.966
    22   1 H    0.994 --     3 C    0.967
    23   1 H    0.995 --     4 C    0.967
    24   1 H    0.994 --     5 C    0.967
    25   1 H    0.997 --     6 C    0.967
    26   1 H    0.992 --    10 C    0.967
    27   1 H    0.994 --    12 C    0.971
    28   1 H    0.990 --    12 C    0.948
    29   1 H    0.991 --    12 C    0.968
    30   1 H    0.991 --    13 C    0.948
    31   1 H    0.993 --    13 C    0.961
    32   1 H    0.991 --    13 C    0.974
    33   1 H    0.993 --    14 C    0.956
    34   1 H    0.993 --    14 C    0.956
    35   1 H    0.994 --    15 C    0.964
    36   1 H    0.997 --    15 C    0.972
    37   1 H    0.996 --    16 C    0.970
    38   1 H    1.000 --    16 C    0.975
    39   1 H    0.998 --    17 C    0.974
    40   1 H    1.000 --    17 C    0.973
    41   1 H    0.998 --    18 C    0.976
    42   1 H    0.999 --    18 C    0.975
    43   1 H    0.998 --    19 C    0.977
    44   1 H    0.999 --    19 C    0.976
    45   1 H    0.998 --    20 C    0.987
    46   1 H    0.998 --    20 C    0.986
    47   1 H    0.999 --    20 C    0.986
 ---------------------------------------------------------------------------

molecular dipole:
                 x           y           z       tot (Debye)
 q only:        4.851      -0.577       0.783
   full:        4.912      -0.669       0.797      12.763

           -------------------------------------------------
          | TOTAL ENERGY              -57.799252800544 Eh   |
          | GRADIENT NORM               0.000175268820 Eh/α |
          | HOMO-LUMO GAP               2.930521622201 eV   |
           -------------------------------------------------

 * finished run on 2024/12/20 at 06:46:13.331
