   * xtb version 6.7.1 (edcfbbe) compiled by 'conda@3ef47c1a292c' on 2024-11-25

   ID    Z sym.   atoms
    1    6 C      1, 3, 4, 6-8, 10-16
    2    7 N      2, 5
    3    8 O      9
    4    1 H      17-31

          program call               : xtb C0481.xyz --opt --namespace C0481 --charge +1
          :  Hamiltonian                  GFN2-xTB          :
 * total energy  :   -44.9995443 Eh     change       -0.6468781E-09 Eh
 * total energy  :   -45.0057165 Eh     change       -0.6172183E-02 Eh
 * total energy  :   -45.0075787 Eh     change       -0.1862222E-02 Eh
 * total energy  :   -45.0080709 Eh     change       -0.4922326E-03 Eh
 * total energy  :   -45.0085353 Eh     change       -0.4643463E-03 Eh
 * total energy  :   -45.0088312 Eh     change       -0.2959009E-03 Eh
 * total energy  :   -45.0092556 Eh     change       -0.4244583E-03 Eh
 * total energy  :   -45.0095770 Eh     change       -0.3213918E-03 Eh
 * total energy  :   -45.0097559 Eh     change       -0.1788495E-03 Eh
 * total energy  :   -45.0098548 Eh     change       -0.9892765E-04 Eh
 * total energy  :   -45.0103428 Eh     change       -0.7286906E-05 Eh
 * total energy  :   -45.0103659 Eh     change       -0.2314068E-04 Eh
 * total energy  :   -45.0103749 Eh     change       -0.8961664E-05 Eh
 * total energy  :   -45.0103870 Eh     change       -0.1209793E-04 Eh
 * total energy  :   -45.0103955 Eh     change       -0.8500403E-05 Eh
 * total energy  :   -45.0104048 Eh     change       -0.9272429E-05 Eh
 * total energy  :   -45.0104135 Eh     change       -0.8751227E-05 Eh
 * total energy  :   -45.0104200 Eh     change       -0.6450187E-05 Eh
 * total energy  :   -45.0104229 Eh     change       -0.2923379E-05 Eh
   *** GEOMETRY OPTIMIZATION CONVERGED AFTER 32 ITERATIONS ***

 final structure:
================
31
 xtb: 6.7.1 (edcfbbe)
C            0.97580698333460        0.06481903308057       -0.18866621779605
N            0.67513665172977       -1.00934980394806       -1.09557320616955
C            0.58169628679323       -0.89692668331644       -2.45056066984205
C            0.31760025214300       -2.13662909112138       -2.94421680302461
N            0.23917335736469       -2.98679290512818       -1.88096893342632
C            0.47605878595319       -2.28395816664284       -0.77280306945157
C            0.18853183192139       -4.41780899533468       -1.92305439996831
C            1.56287951563914       -4.94817284022709       -1.40886787644650
O            2.23860237122050       -4.18661151792110       -0.75514010187189
C            1.99998264592777       -6.27848746209697       -1.82702825455055
C            3.39269631761461       -6.40245156709562       -1.96315051533661
C            3.96720538528615       -7.56704803803048       -2.41982921551925
C            3.15371157256233       -8.64595082549294       -2.73083342001398
C            1.78506926718796       -8.55163136163210       -2.55137591041499
C            1.17698043636094       -7.38743893726552       -2.09681653632065
C           -0.30126793293948       -7.41560935648900       -1.85134912006632
H            0.75832690740591       -0.24009681227356        0.83248902839499
H            0.37859795208907        0.94103771331305       -0.43851093345044
H            2.03187707540126        0.33099509524972       -0.25868407393649
H            0.70771720581738        0.03559326884796       -2.96172032502204
H            0.17694196677128       -2.46149874966088       -3.95464874351219
H            0.48556551138166       -2.67906437455749        0.22366683799505
H           -0.59828896126143       -4.78565747892619       -1.26097849243661
H           -0.00074217925751       -4.75191592737414       -2.94211183702480
H            4.00467469223866       -5.54736542349767       -1.71899023352729
H            5.03751668722131       -7.63660269222245       -2.52998228180617
H            3.58509391953258       -9.56568889977803       -3.09380699472244
H            1.16657704346348       -9.41128231778447       -2.76172479509581
H           -0.64413485938414       -8.44671437386142       -1.82341397888871
H           -0.55652793679527       -6.95561858737184       -0.89950024271404
H           -0.84985875272010       -6.91438192143924       -2.64766868403466

          :  Hamiltonian                  GFN2-xTB          :
         :: total energy             -45.010422878635 Eh    ::
         :: gradient norm              0.000326931024 Eh/a0 ::
         :: HOMO-LUMO gap              2.936068371582 eV    ::
         :: SCC energy               -45.726374072742 Eh    ::
         :: -> dispersion             -0.027953132093 Eh    ::
         :: repulsion energy           0.715951194107 Eh    ::

    * Orbital Energies and Occupations

         #    Occupation            Energy/Eh            Energy/eV
      -------------------------------------------------------------
         1        2.0000           -0.8850592             -24.0837
       ...           ...                  ...                  ...
        29        2.0000           -0.6126629             -16.6714
        30        2.0000           -0.6118314             -16.6488
        31        2.0000           -0.6012967             -16.3621
        32        2.0000           -0.5953561             -16.2005
        33        2.0000           -0.5844927             -15.9049
        34        2.0000           -0.5787176             -15.7477
        35        2.0000           -0.5773243             -15.7098
        36        2.0000           -0.5697677             -15.5042
        37        2.0000           -0.5491927             -14.9443
        38        2.0000           -0.5345047             -14.5446
        39        2.0000           -0.5272648             -14.3476
        40        2.0000           -0.5216888             -14.1959
        41        2.0000           -0.5114810             -13.9181 (HOMO)
        42                         -0.4035825             -10.9820 (LUMO)
        43                         -0.3944710             -10.7341
        44                         -0.3620911              -9.8530
        45                         -0.3343589              -9.0984
        46                         -0.3173418              -8.6353
        47                         -0.2063508              -5.6151
        48                         -0.1699007              -4.6232
        49                         -0.1199616              -3.2643
        50                         -0.0834233              -2.2701
        51                         -0.0431190              -1.1733
        52                         -0.0396090              -1.0778
       ...                                ...                  ...
        79                          0.5467324              14.8773
      -------------------------------------------------------------
                  HL-Gap            0.1078985 Eh            2.9361 eV

     #   Z          covCN         q      C6AA      α(0)
     1   6 C        3.692    -0.085    22.321     6.760
     2   7 N        2.867     0.077    19.898     6.625
     3   6 C        3.071    -0.009    28.157     8.701
     4   6 C        3.065    -0.009    28.165     8.703
     5   7 N        2.873     0.071    19.998     6.642
     6   6 C        3.093     0.057    26.609     8.455
     7   6 C        3.743    -0.051    21.566     6.625
     8   6 C        2.828     0.229    23.191     7.891
     9   8 O        0.858    -0.359    20.883     6.127
    10   6 C        2.972    -0.026    28.648     8.780
    11   6 C        2.934    -0.014    28.359     8.734
    12   6 C        2.915    -0.023    28.580     8.767
    13   6 C        2.918    -0.010    28.277     8.720
    14   6 C        2.927    -0.031    28.770     8.796
    15   6 C        2.961     0.026    27.418     8.589
    16   6 C        3.758    -0.123    22.917     6.825
    17   1 H        0.925     0.100     1.788     2.091
    18   1 H        0.925     0.104     1.748     2.068
    19   1 H        0.924     0.108     1.718     2.050
    20   1 H        0.926     0.108     1.718     2.050
    21   1 H        0.926     0.102     1.763     2.076
    22   1 H        0.926     0.123     1.587     1.970
    23   1 H        0.924     0.105     1.739     2.062
    24   1 H        0.925     0.098     1.799     2.098
    25   1 H        0.926     0.066     2.126     2.280
    26   1 H        0.926     0.064     2.155     2.296
    27   1 H        0.926     0.065     2.136     2.286
    28   1 H        0.926     0.060     2.195     2.317
    29   1 H        0.925     0.072     2.068     2.249
    30   1 H        0.925     0.049     2.332     2.388
    31   1 H        0.925     0.055     2.260     2.351

Wiberg/Mayer (AO) data.
largest (>0.10) Wiberg bond orders for each atom

     #   Z sym  total        # sym  WBO       # sym  WBO       # sym  WBO
 ---------------------------------------------------------------------------
     1   6 C    3.934 --     2 N    0.991    17 H    0.975    18 H    0.968
                            19 H    0.959
     2   7 N    3.716 --     6 C    1.360     3 C    1.221     1 C    0.991
     3   6 C    3.949 --     4 C    1.600     2 N    1.221    20 H    0.961
     4   6 C    3.947 --     3 C    1.600     5 N    1.213    21 H    0.962
     5   7 N    3.708 --     6 C    1.342     4 C    1.213     7 C    0.995
     6   6 C    3.944 --     2 N    1.360     5 N    1.342    22 H    0.952
     7   6 C    3.945 --     5 N    0.995    24 H    0.959    23 H    0.938
                             8 C    0.915
     8   6 C    3.926 --     9 O    1.807    10 C    1.078     7 C    0.915
     9   8 O    2.107 --     8 C    1.807
    10   6 C    3.978 --    11 C    1.339    15 C    1.333     8 C    1.078
    11   6 C    3.985 --    12 C    1.471    10 C    1.339    25 H    0.965
                            14 C    0.101
    12   6 C    3.989 --    11 C    1.471    13 C    1.414    26 H    0.966
    13   6 C    3.986 --    14 C    1.439    12 C    1.414    27 H    0.968
    14   6 C    3.989 --    13 C    1.439    15 C    1.426    28 H    0.965
                            11 C    0.101
    15   6 C    3.986 --    14 C    1.426    10 C    1.333    16 C    1.030
    16   6 C    3.992 --    15 C    1.030    29 H    0.978    30 H    0.972
                            31 H    0.962
    17   1 H    0.990 --     1 C    0.975
    18   1 H    0.989 --     1 C    0.968
    19   1 H    0.988 --     1 C    0.959
    20   1 H    0.988 --     3 C    0.961
    21   1 H    0.989 --     4 C    0.962
    22   1 H    0.985 --     6 C    0.952
    23   1 H    0.988 --     7 C    0.938
    24   1 H    0.990 --     7 C    0.959
    25   1 H    0.995 --    11 C    0.965
    26   1 H    0.995 --    12 C    0.966
    27   1 H    0.995 --    13 C    0.968
    28   1 H    0.996 --    14 C    0.965
    29   1 H    0.994 --    16 C    0.978
    30   1 H    0.997 --    16 C    0.972
    31   1 H    0.997 --    16 C    0.962
 ---------------------------------------------------------------------------

molecular dipole:
                 x           y           z       tot (Debye)
 q only:        1.012      -5.890      -3.431
   full:        0.865      -5.946      -3.459      17.621

           -------------------------------------------------
          | TOTAL ENERGY              -45.010422878635 Eh   |
          | GRADIENT NORM               0.000326931024 Eh/α |
          | HOMO-LUMO GAP               2.936068371582 eV   |
           -------------------------------------------------

 * finished run on 2024/12/20 at 06:46:14.314
