   * xtb version 6.7.1 (edcfbbe) compiled by 'conda@3ef47c1a292c' on 2024-11-25

   ID    Z sym.   atoms
    1    6 C      1, 2, 4-9
    2    7 N      3
    3    1 H      10-29

          program call               : xtb C0488.xyz --opt --namespace C0488 --charge +1
          :  Hamiltonian                  GFN2-xTB          :
 * total energy  :   -29.8466523 Eh     change       -0.4482104E-10 Eh
 * total energy  :   -29.8531084 Eh     change       -0.6456101E-02 Eh
 * total energy  :   -29.8546000 Eh     change       -0.1491599E-02 Eh
 * total energy  :   -29.8546577 Eh     change       -0.5765385E-04 Eh
 * total energy  :   -29.8546816 Eh     change       -0.2388914E-04 Eh
 * total energy  :   -29.8546957 Eh     change       -0.1412258E-04 Eh
 * total energy  :   -29.8547096 Eh     change       -0.1396007E-04 Eh
 * total energy  :   -29.8547125 Eh     change       -0.2871782E-05 Eh
   *** GEOMETRY OPTIMIZATION CONVERGED AFTER 8 ITERATIONS ***

 final structure:
================
29
 xtb: 6.7.1 (edcfbbe)
C            0.81335161331648        0.12159176320850        0.03819831032660
C            0.45047951632994       -0.45550360619119       -1.32282277113831
N            0.89436675838608       -1.86112661053265       -1.55878175219611
C            0.44760553289902       -2.75773642064741       -0.44024609316275
C           -1.05381463101615       -2.86905457674638       -0.22204182144142
C            0.26908445848566       -2.37320372180610       -2.82112913232958
C            0.74048237732274       -1.76307404874539       -4.13085693178040
C            2.39417285477361       -1.97844055187599       -1.61626334897442
C            3.17782691050976       -0.81673329534229       -2.21327581706300
H            0.22527882389624       -0.31321448463919        0.84117979920326
H            0.59431095802925        1.18654472647179        0.01918669795050
H            1.86722546664149        0.00721120528282        0.27309698743276
H           -0.63316156748268       -0.42459345786514       -1.44460176373946
H            0.88954679082149        0.15994153291005       -2.10629258021528
H            0.85192970836268       -3.75168909440256       -0.64451394877864
H            0.90850917055742       -2.39085494650346        0.47706129820986
H           -1.56510006886782       -3.35189273356730       -1.04925262668581
H           -1.20973507825852       -3.48965364171473        0.65735818315531
H           -1.51891258701817       -1.90757563074962       -0.02623596493891
H            0.44872432745189       -3.45011518609813       -2.85447504931062
H           -0.80546182869591       -2.20977357964667       -2.73504044333774
H            1.76983939353805       -2.01902950427886       -4.36037886260628
H            0.12223709894100       -2.17991642233927       -4.92287413719631
H            0.61437358104045       -0.68494116999935       -4.15817558738706
H            2.75215433085998       -2.12392572980012       -0.59556351124897
H            2.61555669833225       -2.88946434636031       -2.17507105652917
H            3.12630091733893        0.07663990585533       -1.59888119907936
H            4.22118092574141       -1.12327393968545       -2.24738755608435
H            2.88019754776345       -0.56544243419095       -3.22439932105432

          :  Hamiltonian                  GFN2-xTB          :
         :: total energy             -29.854712506359 Eh    ::
         :: gradient norm              0.000461112080 Eh/a0 ::
         :: HOMO-LUMO gap              9.472051344105 eV    ::
         :: SCC energy               -30.285861989073 Eh    ::
         :: -> dispersion             -0.020800740104 Eh    ::
         :: repulsion energy           0.431149482715 Eh    ::

    * Orbital Energies and Occupations

         #    Occupation            Energy/Eh            Energy/eV
      -------------------------------------------------------------
         1        2.0000           -0.8548635             -23.2620
       ...           ...                  ...                  ...
        16        2.0000           -0.6529179             -17.7668
        17        2.0000           -0.6450506             -17.5527
        18        2.0000           -0.6351248             -17.2826
        19        2.0000           -0.6286367             -17.1061
        20        2.0000           -0.6251941             -17.0124
        21        2.0000           -0.6220932             -16.9280
        22        2.0000           -0.6143160             -16.7164
        23        2.0000           -0.6086553             -16.5624
        24        2.0000           -0.6066608             -16.5081
        25        2.0000           -0.6006237             -16.3438
        26        2.0000           -0.5981268             -16.2759
        27        2.0000           -0.5940388             -16.1646
        28        2.0000           -0.5881350             -16.0040 (HOMO)
        29                         -0.2400435              -6.5319 (LUMO)
        30                         -0.1739184              -4.7326
        31                         -0.1646196              -4.4795
        32                         -0.1558967              -4.2422
        33                         -0.0609023              -1.6572
        34                         -0.0564080              -1.5349
        35                         -0.0498257              -1.3558
        36                         -0.0405515              -1.1035
        37                         -0.0239465              -0.6516
        38                         -0.0194246              -0.5286
        39                         -0.0078403              -0.2133
       ...                                ...                  ...
        56                          0.1555453               4.2326
      -------------------------------------------------------------
                  HL-Gap            0.3480915 Eh            9.4721 eV

     #   Z          covCN         q      C6AA      α(0)
     1   6 C        3.751    -0.127    23.008     6.841
     2   6 C        3.750    -0.030    21.174     6.563
     3   7 N        3.616     0.100    19.517     6.562
     4   6 C        3.763    -0.033    21.198     6.563
     5   6 C        3.751    -0.129    23.041     6.846
     6   6 C        3.756    -0.030    21.171     6.560
     7   6 C        3.751    -0.127    23.007     6.841
     8   6 C        3.753    -0.029    21.152     6.558
     9   6 C        3.750    -0.130    23.060     6.848
    10   1 H        0.925     0.066     2.126     2.280
    11   1 H        0.925     0.081     1.973     2.196
    12   1 H        0.925     0.064     2.150     2.293
    13   1 H        0.924     0.083     1.950     2.184
    14   1 H        0.925     0.091     1.867     2.137
    15   1 H        0.924     0.078     1.995     2.209
    16   1 H        0.925     0.089     1.891     2.151
    17   1 H        0.925     0.065     2.137     2.286
    18   1 H        0.925     0.085     1.930     2.172
    19   1 H        0.925     0.067     2.115     2.274
    20   1 H        0.924     0.080     1.976     2.198
    21   1 H        0.924     0.085     1.923     2.169
    22   1 H        0.925     0.070     2.089     2.260
    23   1 H        0.925     0.083     1.946     2.182
    24   1 H        0.925     0.064     2.155     2.296
    25   1 H        0.924     0.081     1.966     2.193
    26   1 H        0.924     0.081     1.965     2.192
    27   1 H        0.925     0.069     2.093     2.262
    28   1 H        0.925     0.081     1.964     2.191
    29   1 H        0.925     0.070     2.081     2.256

Wiberg/Mayer (AO) data.
largest (>0.10) Wiberg bond orders for each atom

     #   Z sym  total        # sym  WBO       # sym  WBO       # sym  WBO
 ---------------------------------------------------------------------------
     1   6 C    3.983 --     2 C    1.021    10 H    0.981    12 H    0.979
                            11 H    0.974
     2   6 C    3.935 --     1 C    1.021    13 H    0.965    14 H    0.962
                             3 N    0.933
     3   7 N    3.796 --     2 C    0.933     6 C    0.931     4 C    0.928
                             8 C    0.925
     4   6 C    3.936 --     5 C    1.022    15 H    0.969    16 H    0.963
                             3 N    0.928
     5   6 C    3.982 --     4 C    1.022    17 H    0.981    19 H    0.979
                            18 H    0.972
     6   6 C    3.936 --     7 C    1.023    20 H    0.968    21 H    0.964
                             3 N    0.931
     7   6 C    3.982 --     6 C    1.023    24 H    0.980    22 H    0.979
                            23 H    0.972
     8   6 C    3.935 --     9 C    1.022    26 H    0.969    25 H    0.967
                             3 N    0.925
     9   6 C    3.981 --     8 C    1.022    27 H    0.979    29 H    0.976
                            28 H    0.972
    10   1 H    0.996 --     1 C    0.981
    11   1 H    0.993 --     1 C    0.974
    12   1 H    0.996 --     1 C    0.979
    13   1 H    0.993 --     2 C    0.965
    14   1 H    0.992 --     2 C    0.962
    15   1 H    0.994 --     4 C    0.969
    16   1 H    0.992 --     4 C    0.963
    17   1 H    0.996 --     5 C    0.981
    18   1 H    0.992 --     5 C    0.972
    19   1 H    0.995 --     5 C    0.979
    20   1 H    0.993 --     6 C    0.968
    21   1 H    0.993 --     6 C    0.964
    22   1 H    0.995 --     7 C    0.979
    23   1 H    0.993 --     7 C    0.972
    24   1 H    0.996 --     7 C    0.980
    25   1 H    0.993 --     8 C    0.967
    26   1 H    0.993 --     8 C    0.969
    27   1 H    0.995 --     9 C    0.979
    28   1 H    0.993 --     9 C    0.972
    29   1 H    0.995 --     9 C    0.976
 ---------------------------------------------------------------------------

molecular dipole:
                 x           y           z       tot (Debye)
 q only:        1.700      -3.265      -2.983
   full:        1.697      -3.357      -2.968      12.179

           -------------------------------------------------
          | TOTAL ENERGY              -29.854712506359 Eh   |
          | GRADIENT NORM               0.000461112080 Eh/α |
          | HOMO-LUMO GAP               9.472051344105 eV   |
           -------------------------------------------------

 * finished run on 2024/12/20 at 06:46:30.210
