   * xtb version 6.7.1 (edcfbbe) compiled by 'conda@3ef47c1a292c' on 2024-11-25

   ID    Z sym.   atoms
    1    6 C      1, 3, 5-10
    2    8 O      2
    3   15 P      4
    4    1 H      11-30

          program call               : xtb C0489.xyz --opt --namespace C0489 --charge +1
          :  Hamiltonian                  GFN2-xTB          :
 * total energy  :   -33.4987923 Eh     change       -0.1457963E-09 Eh
 * total energy  :   -33.5045369 Eh     change       -0.5744571E-02 Eh
 * total energy  :   -33.5064350 Eh     change       -0.1898079E-02 Eh
 * total energy  :   -33.5067727 Eh     change       -0.3377500E-03 Eh
 * total energy  :   -33.5070010 Eh     change       -0.2283053E-03 Eh
 * total energy  :   -33.5072331 Eh     change       -0.2320166E-03 Eh
 * total energy  :   -33.5075290 Eh     change       -0.2959062E-03 Eh
 * total energy  :   -33.5078802 Eh     change       -0.3512691E-03 Eh
 * total energy  :   -33.5082253 Eh     change       -0.3451113E-03 Eh
 * total energy  :   -33.5085366 Eh     change       -0.3113095E-03 Eh
 * total energy  :   -33.5096175 Eh     change       -0.4069158E-04 Eh
 * total energy  :   -33.5096543 Eh     change       -0.3677645E-04 Eh
 * total energy  :   -33.5096817 Eh     change       -0.2743290E-04 Eh
 * total energy  :   -33.5097001 Eh     change       -0.1835126E-04 Eh
 * total energy  :   -33.5097355 Eh     change       -0.3537745E-04 Eh
 * total energy  :   -33.5097491 Eh     change       -0.1364083E-04 Eh
 * total energy  :   -33.5097716 Eh     change       -0.2247867E-04 Eh
 * total energy  :   -33.5097797 Eh     change       -0.8162271E-05 Eh
 * total energy  :   -33.5097843 Eh     change       -0.4586494E-05 Eh
   *** GEOMETRY OPTIMIZATION CONVERGED AFTER 27 ITERATIONS ***

 final structure:
================
30
 xtb: 6.7.1 (edcfbbe)
C            0.70014120678670        0.87571038598930        0.96422250204452
O            0.39306357459198       -0.47803923780592        0.67633730851562
C            1.07340547733659       -1.40630434845610        1.47633360291475
P            0.43722564767994       -2.96774206801930        0.76395424806640
C            0.89502328939800       -2.98928211129894       -0.99996610880455
C            2.38611241779416       -3.20610922124642       -1.23854539617326
C            1.18271439508275       -4.40337451824166        1.61713019267334
C            0.66633435099509       -4.60162425805237        3.03899177055593
C           -1.38639770528318       -2.96633232975211        0.86481545504236
C           -1.94840633177313       -2.27944944950908        2.10643031973010
H            0.09407404790335        1.47471346222067        0.28914882051729
H            1.76017388900461        1.08046711425145        0.78742539973167
H            0.45134453319976        1.12303204126090        2.00063631454729
H            2.16725219763441       -1.33722265656220        1.36746205727741
H            0.82177157570008       -1.30666004099132        2.54293411331647
H            0.30879063887523       -3.78098690938563       -1.47605599625667
H            0.57127306707001       -2.02900793840098       -1.41149183817568
H            2.70628931332653       -4.18669930702287       -0.89478954614064
H            2.59327191676929       -3.14271112100763       -2.30368226865104
H            2.98282775221956       -2.44655881082656       -0.73878428162975
H            0.96977270867732       -5.28737722393888        1.00998590139628
H            2.26537805313844       -4.24955592580555        1.62386844539005
H           -0.39516666437415       -4.83549747232767        3.04365989718348
H            1.19125312728963       -5.43458566091893        3.50033787667278
H            0.83860854589652       -3.71896839537481        3.65084834921917
H           -1.74648237783871       -2.45762786866248       -0.03382092659864
H           -1.70526800458289       -4.01210224331915        0.81589824446204
H           -1.71164923972036       -1.21944964990242        2.09403107304216
H           -3.03106305620447       -2.37831794040766        2.10923091497331
H           -1.56840834659393       -2.71847629648403        3.02500355515965

          :  Hamiltonian                  GFN2-xTB          :
         :: total energy             -33.509784334196 Eh    ::
         :: gradient norm              0.000737688445 Eh/a0 ::
         :: HOMO-LUMO gap              7.001306051101 eV    ::
         :: SCC energy               -33.945862878549 Eh    ::
         :: -> dispersion             -0.022607424782 Eh    ::
         :: repulsion energy           0.436078544353 Eh    ::

    * Orbital Energies and Occupations

         #    Occupation            Energy/Eh            Energy/eV
      -------------------------------------------------------------
         1        2.0000           -0.8631685             -23.4880
       ...           ...                  ...                  ...
        19        2.0000           -0.6329741             -17.2241
        20        2.0000           -0.6279463             -17.0873
        21        2.0000           -0.6234170             -16.9640
        22        2.0000           -0.6190131             -16.8442
        23        2.0000           -0.6147331             -16.7277
        24        2.0000           -0.6024167             -16.3926
        25        2.0000           -0.5943477             -16.1730
        26        2.0000           -0.5933707             -16.1464
        27        2.0000           -0.5887008             -16.0194
        28        2.0000           -0.5853505             -15.9282
        29        2.0000           -0.5791302             -15.7589
        30        2.0000           -0.5762310             -15.6800
        31        2.0000           -0.5502088             -14.9719 (HOMO)
        32                         -0.2929156              -7.9706 (LUMO)
        33                         -0.2855909              -7.7713
        34                         -0.2796741              -7.6103
        35                         -0.2001010              -5.4450
        36                         -0.1436471              -3.9088
        37                         -0.0788265              -2.1450
        38                         -0.0533901              -1.4528
        39                         -0.0525143              -1.4290
        40                         -0.0304568              -0.8288
        41                         -0.0203972              -0.5550
        42                         -0.0143872              -0.3915
       ...                                ...                  ...
        65                          0.7456864              20.2912
      -------------------------------------------------------------
                  HL-Gap            0.2572933 Eh            7.0013 eV

     #   Z          covCN         q      C6AA      α(0)
     1   6 C        3.647     0.023    20.517     6.509
     2   8 O        1.860    -0.288    18.765     5.850
     3   6 C        3.648     0.065    19.802     6.394
     4  15 P        4.074     0.204   151.472    22.108
     5   6 C        3.749    -0.074    21.987     6.688
     6   6 C        3.818    -0.119    22.756     6.789
     7   6 C        3.749    -0.075    22.002     6.690
     8   6 C        3.814    -0.119    22.756     6.790
     9   6 C        3.749    -0.067    21.850     6.667
    10   6 C        3.808    -0.119    22.769     6.792
    11   1 H        0.925     0.087     1.911     2.162
    12   1 H        0.924     0.053     2.282     2.362
    13   1 H        0.924     0.052     2.296     2.369
    14   1 H        0.924     0.073     2.048     2.238
    15   1 H        0.924     0.077     2.014     2.219
    16   1 H        0.927     0.093     1.848     2.126
    17   1 H        0.928     0.111     1.690     2.033
    18   1 H        0.925     0.064     2.153     2.294
    19   1 H        0.925     0.083     1.953     2.185
    20   1 H        0.925     0.063     2.169     2.303
    21   1 H        0.927     0.094     1.838     2.120
    22   1 H        0.927     0.096     1.820     2.110
    23   1 H        0.925     0.068     2.104     2.268
    24   1 H        0.925     0.081     1.965     2.192
    25   1 H        0.925     0.060     2.194     2.317
    26   1 H        0.927     0.103     1.753     2.071
    27   1 H        0.927     0.094     1.839     2.120
    28   1 H        0.925     0.073     2.056     2.242
    29   1 H        0.925     0.079     1.991     2.207
    30   1 H        0.925     0.064     2.151     2.294

Wiberg/Mayer (AO) data.
largest (>0.10) Wiberg bond orders for each atom

     #   Z sym  total        # sym  WBO       # sym  WBO       # sym  WBO
 ---------------------------------------------------------------------------
     1   6 C    3.922 --    13 H    0.978    12 H    0.978    11 H    0.975
                             2 O    0.963
     2   8 O    2.129 --     3 C    0.998     1 C    0.963
     3   6 C    3.962 --     2 O    0.998     4 P    0.969    15 H    0.934
                            14 H    0.933
     4  15 P    4.562 --     5 C    1.017     9 C    1.011     7 C    1.002
                             3 C    0.969
     5   6 C    3.986 --     4 P    1.017     6 C    1.001    16 H    0.934
                            17 H    0.929
     6   6 C    3.983 --     5 C    1.001    18 H    0.980    20 H    0.978
                            19 H    0.977
     7   6 C    3.984 --     4 P    1.002     8 C    1.001    21 H    0.939
                            22 H    0.933
     8   6 C    3.984 --     7 C    1.001    25 H    0.979    23 H    0.978
                            24 H    0.977
     9   6 C    3.985 --     4 P    1.011    10 C    0.999    27 H    0.934
                            26 H    0.932
    10   6 C    3.981 --     9 C    0.999    28 H    0.979    30 H    0.978
                            29 H    0.977
    11   1 H    0.992 --     1 C    0.975
    12   1 H    0.997 --     1 C    0.978
    13   1 H    0.997 --     1 C    0.978
    14   1 H    0.995 --     3 C    0.933
    15   1 H    0.994 --     3 C    0.934
    16   1 H    0.991 --     5 C    0.934
    17   1 H    0.987 --     5 C    0.929
    18   1 H    0.996 --     6 C    0.980
    19   1 H    0.993 --     6 C    0.977
    20   1 H    0.996 --     6 C    0.978
    21   1 H    0.990 --     7 C    0.939
    22   1 H    0.991 --     7 C    0.933
    23   1 H    0.995 --     8 C    0.978
    24   1 H    0.993 --     8 C    0.977
    25   1 H    0.996 --     8 C    0.979
    26   1 H    0.989 --     9 C    0.932
    27   1 H    0.991 --     9 C    0.934
    28   1 H    0.995 --    10 C    0.979
    29   1 H    0.993 --    10 C    0.977
    30   1 H    0.996 --    10 C    0.978
 ---------------------------------------------------------------------------

molecular dipole:
                 x           y           z       tot (Debye)
 q only:        0.957      -5.272       1.776
   full:        1.092      -5.208       1.842      14.312

           -------------------------------------------------
          | TOTAL ENERGY              -33.509784334196 Eh   |
          | GRADIENT NORM               0.000737688445 Eh/α |
          | HOMO-LUMO GAP               7.001306051101 eV   |
           -------------------------------------------------

 * finished run on 2024/12/20 at 06:46:30.994
