   * xtb version 6.7.1 (edcfbbe) compiled by 'conda@3ef47c1a292c' on 2024-11-25

   ID    Z sym.   atoms
    1    6 C      1-16, 18, 19, 22-25
    2    7 N      17
    3    8 O      20, 21
    4    1 H      26-71

          program call               : xtb C0486.xyz --opt --namespace C0486 --charge +1
          :  Hamiltonian                  GFN2-xTB          :
 * total energy  :   -81.2466241 Eh     change       -0.7382823E-09 Eh
 * total energy  :   -81.2576219 Eh     change       -0.1099777E-01 Eh
 * total energy  :   -81.2601723 Eh     change       -0.2550463E-02 Eh
 * total energy  :   -81.2605831 Eh     change       -0.4107436E-03 Eh
 * total energy  :   -81.2607343 Eh     change       -0.1512314E-03 Eh
 * total energy  :   -81.2608752 Eh     change       -0.1408505E-03 Eh
 * total energy  :   -81.2609746 Eh     change       -0.9939625E-04 Eh
 * total energy  :   -81.2611015 Eh     change       -0.1269127E-03 Eh
 * total energy  :   -81.2612438 Eh     change       -0.1423306E-03 Eh
 * total energy  :   -81.2613661 Eh     change       -0.1223413E-03 Eh
 * total energy  :   -81.2680913 Eh     change       -0.1781363E-04 Eh
 * total energy  :   -81.2681124 Eh     change       -0.2102777E-04 Eh
 * total energy  :   -81.2681331 Eh     change       -0.2078586E-04 Eh
 * total energy  :   -81.2681410 Eh     change       -0.7875872E-05 Eh
 * total energy  :   -81.2681547 Eh     change       -0.1366083E-04 Eh
 * total energy  :   -81.2681633 Eh     change       -0.8613088E-05 Eh
 * total energy  :   -81.2681715 Eh     change       -0.8193787E-05 Eh
 * total energy  :   -81.2681817 Eh     change       -0.1020092E-04 Eh
 * total energy  :   -81.2681863 Eh     change       -0.4638469E-05 Eh
   *** GEOMETRY OPTIMIZATION CONVERGED AFTER 121 ITERATIONS ***

 final structure:
================
71
 xtb: 6.7.1 (edcfbbe)
C            1.65086203593131       -1.08678066522524       -0.06164354782431
C            1.53300624329370       -1.50494938710282        1.39938398238194
C            1.65103881095600       -0.33214574303958        2.37405392591366
C            0.56814067528532        0.73887317139038        2.22888603055940
C           -0.86579498490088        0.24043776357904        2.41942974877482
C           -1.14707808217189       -0.41803488311295        3.77145767154139
C           -0.87340131943270        0.46614432974942        4.98971516524375
C           -1.66657855133946        1.77382297538713        5.03084733222181
C           -3.18734229033333        1.60770800579084        5.02896200555889
C           -3.74949711353003        0.79063024576701        6.19398731857886
C           -3.42065148886011        1.33740491215894        7.58481941247153
C           -3.90141859861852        2.76620421117211        7.84665393825305
C           -5.40872415421118        2.98176973314152        7.69359530856776
C           -6.28657584241148        2.09052284398437        8.57626388616632
C           -6.04556389687817        2.25365561152972       10.08213014846042
C           -6.44960636657658        3.62438633998817       10.63815081214787
N           -7.74435360340725        3.67865171050997       11.39374521883532
C           -7.69300108737945        2.86894857773616       12.63334682415586
C           -6.59400898316332        3.26111461332401       13.64411391079567
O           -5.83592106535902        4.18160808551566       13.49969444564071
O           -6.65339684301624        2.43982746893059       14.66188473335501
C           -5.70325878347801        2.61617931254099       15.73609596014262
C           -4.39833677704045        1.90028251869132       15.43446808015025
C           -8.01606185708582        5.09051357474772       11.74019445030986
C           -8.85342782194176        3.18482186425664       10.55615054262324
H            0.81171999400119       -0.46314712545053       -0.36102248329494
H            1.66511332131742       -1.96447174477496       -0.70478977702261
H            2.57061741386238       -0.52879755283510       -0.22404645221398
H            0.58510619287442       -2.02340351643594        1.55408956286277
H            2.33180135201433       -2.21529363802130        1.62772893455788
H            1.63945001187015       -0.72322904549603        3.39372256209021
H            2.62176166593754        0.14766137699867        2.22374439087451
H            0.77374920816905        1.53156126752089        2.95144659353836
H            0.64248199240766        1.18818829480768        1.23691030800161
H           -1.54232392094694        1.08725902869687        2.28198343869748
H           -1.10080546220554       -0.48212170481241        1.63544681295786
H           -2.19106746034997       -0.74010314091654        3.78457531484244
H           -0.53680097293262       -1.31860399593365        3.86355247336051
H           -1.08612411572071       -0.11552171824119        5.88983653703614
H            0.18899031217761        0.71505891230185        5.01776990414611
H           -1.36312834465135        2.33064924294298        5.92074767917166
H           -1.39314408434846        2.38367554802484        4.16800513083129
H           -3.64088961918782        2.60177770083237        5.02897889915874
H           -3.49120709801098        1.12179750193530        4.10029374564068
H           -4.83364875044545        0.72327370385509        6.07417262215820
H           -3.36117958670928       -0.22726433807379        6.13353845688590
H           -3.84830485905027        0.66209312121551        8.33059042816206
H           -2.33917587269716        1.31776887609222        7.72635287045227
H           -3.58672544584790        3.06101610350100        8.85114760122813
H           -3.39909439064392        3.44023159246654        7.15216686737839
H           -5.62284544009420        4.03582776949671        7.89088727950146
H           -5.68756162430553        2.79384849573017        6.65660489341358
H           -7.33270859618006        2.28895972002998        8.33368637620475
H           -6.09106257238149        1.04968924907805        8.31898407724006
H           -6.55553549353208        1.44621076513671       10.60860138415065
H           -4.98130911452020        2.11266455602539       10.26865602033228
H           -5.68133682232654        4.00029153260973       11.31414039828143
H           -6.53662963606415        4.32875744996388        9.80951314572716
H           -8.65064545015810        2.94720039280829       13.15475552025206
H           -7.54040929977482        1.81619795184166       12.38729506883342
H           -5.53445771197059        3.68659645489329       15.88172647522299
H           -6.19805829875493        2.18959553831252       16.60909792256810
H           -3.90819211489392        2.34455283503148       14.57144401655748
H           -3.73830600397710        1.99106638086857       16.29134710630509
H           -4.57827230407406        0.84574631896843       15.24167683991004
H           -8.11687348754544        5.68326333306700       10.83343563715662
H           -8.94032954039519        5.16494779814220       12.31045009702863
H           -7.19771408912394        5.49227159427716       12.33476176476486
H           -8.90630473378610        3.76756329117145        9.63840494869290
H           -8.70697730174565        2.13836474429651       10.29963809824468
H           -9.79922009887316        3.28480188520211       11.08655320356655

          :  Hamiltonian                  GFN2-xTB          :
         :: total energy             -81.268186319882 Eh    ::
         :: gradient norm              0.000696830575 Eh/a0 ::
         :: HOMO-LUMO gap              2.050066635097 eV    ::
         :: SCC energy               -82.363660798866 Eh    ::
         :: -> dispersion             -0.059175891523 Eh    ::
         :: repulsion energy           1.095474478985 Eh    ::

    * Orbital Energies and Occupations

         #    Occupation            Energy/Eh            Energy/eV
      -------------------------------------------------------------
         1        2.0000           -0.8908664             -24.2417
       ...           ...                  ...                  ...
        63        2.0000           -0.5112998             -13.9132
        64        2.0000           -0.5059346             -13.7672
        65        2.0000           -0.5023214             -13.6689
        66        2.0000           -0.4954837             -13.4828
        67        2.0000           -0.4900873             -13.3360
        68        2.0000           -0.4862425             -13.2313
        69        2.0000           -0.4817727             -13.1097
        70        2.0000           -0.4726154             -12.8605
        71        2.0000           -0.4710573             -12.8181
        72        2.0000           -0.4681179             -12.7381
        73        2.0000           -0.4582002             -12.4683
        74        2.0000           -0.4529370             -12.3250
        75        2.0000           -0.4516379             -12.2897 (HOMO)
        76                         -0.3762993             -10.2396 (LUMO)
        77                         -0.2326762              -6.3314
        78                         -0.1826181              -4.9693
        79                         -0.1498678              -4.0781
        80                         -0.1441085              -3.9214
        81                         -0.1156356              -3.1466
        82                         -0.0666359              -1.8133
        83                         -0.0549711              -1.4958
        84                         -0.0395164              -1.0753
        85                         -0.0320195              -0.8713
        86                         -0.0231107              -0.6289
       ...                                ...                  ...
       146                          0.5238467              14.2546
      -------------------------------------------------------------
                  HL-Gap            0.0753386 Eh            2.0501 eV

     #   Z          covCN         q      C6AA      α(0)
     1   6 C        3.751    -0.102    22.502     6.765
     2   6 C        3.799    -0.052    21.507     6.603
     3   6 C        3.800    -0.057    21.598     6.617
     4   6 C        3.800    -0.057    21.598     6.617
     5   6 C        3.800    -0.056    21.587     6.615
     6   6 C        3.800    -0.056    21.591     6.616
     7   6 C        3.800    -0.057    21.595     6.616
     8   6 C        3.800    -0.057    21.604     6.618
     9   6 C        3.800    -0.058    21.612     6.619
    10   6 C        3.800    -0.058    21.623     6.621
    11   6 C        3.800    -0.059    21.642     6.624
    12   6 C        3.800    -0.062    21.688     6.631
    13   6 C        3.800    -0.063    21.714     6.635
    14   6 C        3.800    -0.069    21.821     6.651
    15   6 C        3.799    -0.072    21.879     6.660
    16   6 C        3.757    -0.049    21.507     6.612
    17   7 N        3.621     0.140    18.865     6.451
    18   6 C        3.766    -0.068    21.838     6.660
    19   6 C        2.710     0.363    20.842     7.473
    20   8 O        0.856    -0.396    21.600     6.231
    21   8 O        1.703    -0.238    17.948     5.720
    22   6 C        3.697     0.069    19.590     6.331
    23   6 C        3.751    -0.122    22.901     6.825
    24   6 C        3.725    -0.102    22.553     6.781
    25   6 C        3.723    -0.096    22.442     6.765
    26   1 H        0.925     0.034     2.531     2.488
    27   1 H        0.925     0.032     2.560     2.502
    28   1 H        0.925     0.034     2.530     2.487
    29   1 H        0.924     0.030     2.588     2.516
    30   1 H        0.924     0.027     2.630     2.536
    31   1 H        0.924     0.027     2.622     2.532
    32   1 H        0.924     0.029     2.604     2.524
    33   1 H        0.924     0.027     2.630     2.536
    34   1 H        0.924     0.032     2.553     2.499
    35   1 H        0.924     0.026     2.646     2.544
    36   1 H        0.924     0.032     2.554     2.499
    37   1 H        0.924     0.025     2.655     2.548
    38   1 H        0.924     0.032     2.551     2.498
    39   1 H        0.924     0.025     2.665     2.553
    40   1 H        0.924     0.034     2.536     2.490
    41   1 H        0.924     0.025     2.664     2.552
    42   1 H        0.924     0.035     2.515     2.480
    43   1 H        0.924     0.024     2.668     2.555
    44   1 H        0.924     0.036     2.497     2.471
    45   1 H        0.924     0.023     2.683     2.562
    46   1 H        0.924     0.038     2.475     2.460
    47   1 H        0.924     0.021     2.713     2.576
    48   1 H        0.924     0.041     2.430     2.438
    49   1 H        0.924     0.023     2.693     2.566
    50   1 H        0.924     0.047     2.357     2.401
    51   1 H        0.924     0.022     2.709     2.574
    52   1 H        0.925     0.052     2.291     2.367
    53   1 H        0.924     0.030     2.580     2.512
    54   1 H        0.925     0.060     2.204     2.322
    55   1 H        0.924     0.041     2.432     2.439
    56   1 H        0.925     0.077     2.013     2.219
    57   1 H        0.925     0.104     1.750     2.069
    58   1 H        0.924     0.094     1.844     2.124
    59   1 H        0.924     0.108     1.711     2.046
    60   1 H        0.924     0.111     1.687     2.031
    61   1 H        0.924     0.074     2.043     2.235
    62   1 H        0.924     0.083     1.945     2.181
    63   1 H        0.925     0.063     2.168     2.303
    64   1 H        0.925     0.075     2.030     2.228
    65   1 H        0.925     0.065     2.138     2.287
    66   1 H        0.925     0.099     1.795     2.095
    67   1 H        0.925     0.093     1.850     2.127
    68   1 H        0.925     0.122     1.601     1.979
    69   1 H        0.925     0.103     1.756     2.072
    70   1 H        0.925     0.103     1.757     2.073
    71   1 H        0.925     0.094     1.840     2.121

Wiberg/Mayer (AO) data.
largest (>0.10) Wiberg bond orders for each atom

     #   Z sym  total        # sym  WBO       # sym  WBO       # sym  WBO
 ---------------------------------------------------------------------------
     1   6 C    3.997 --     2 C    1.020    28 H    0.988    27 H    0.987
                            26 H    0.986
     2   6 C    3.998 --     1 C    1.020     3 C    1.008    30 H    0.978
                            29 H    0.976
     3   6 C    3.998 --     2 C    1.008     4 C    1.008    32 H    0.977
                            31 H    0.976
     4   6 C    3.998 --     5 C    1.008     3 C    1.008    34 H    0.975
                            33 H    0.975
     5   6 C    3.998 --     4 C    1.008     6 C    1.008    35 H    0.975
                            36 H    0.975
     6   6 C    3.998 --     5 C    1.008     7 C    1.008    37 H    0.975
                            38 H    0.975
     7   6 C    3.997 --     8 C    1.008     6 C    1.008    39 H    0.975
                            40 H    0.975
     8   6 C    3.997 --     9 C    1.008     7 C    1.008    41 H    0.975
                            42 H    0.974
     9   6 C    3.997 --     8 C    1.008    10 C    1.008    43 H    0.975
                            44 H    0.974
    10   6 C    3.997 --     9 C    1.008    11 C    1.007    45 H    0.976
                            46 H    0.974
    11   6 C    3.997 --    12 C    1.008    10 C    1.007    47 H    0.975
                            48 H    0.974
    12   6 C    3.996 --    11 C    1.008    13 C    1.007    49 H    0.975
                            50 H    0.973
    13   6 C    3.994 --    14 C    1.007    12 C    1.007    51 H    0.973
                            52 H    0.972
    14   6 C    3.992 --    13 C    1.007    15 C    1.004    53 H    0.975
                            54 H    0.971
    15   6 C    3.984 --    14 C    1.004    16 C    1.004    56 H    0.965
                            55 H    0.965
    16   6 C    3.913 --    15 C    1.004    57 H    0.961    58 H    0.960
                            17 N    0.914
    17   7 N    3.812 --    25 C    0.957    18 C    0.957    24 C    0.953
                            16 C    0.914
    18   6 C    3.944 --    17 N    0.957    59 H    0.951    60 H    0.947
                            19 C    0.936
    19   6 C    3.938 --    20 O    1.732    21 O    1.212    18 C    0.936
    20   8 O    2.061 --    19 C    1.732    21 O    0.193
    21   8 O    2.362 --    19 C    1.212    22 C    0.900    20 O    0.193
    22   6 C    3.893 --    23 C    1.014    61 H    0.969    62 H    0.968
                            21 O    0.900
    23   6 C    3.986 --    22 C    1.014    63 H    0.984    65 H    0.984
                            64 H    0.977
    24   6 C    3.919 --    67 H    0.976    66 H    0.975    68 H    0.966
                            17 N    0.953
    25   6 C    3.927 --    71 H    0.975    69 H    0.973    70 H    0.971
                            17 N    0.957
    26   1 H    0.999 --     1 C    0.986
    27   1 H    0.999 --     1 C    0.987
    28   1 H    0.999 --     1 C    0.988
    29   1 H    0.999 --     2 C    0.976
    30   1 H    0.999 --     2 C    0.978
    31   1 H    0.999 --     3 C    0.976
    32   1 H    0.999 --     3 C    0.977
    33   1 H    0.999 --     4 C    0.975
    34   1 H    0.999 --     4 C    0.975
    35   1 H    0.999 --     5 C    0.975
    36   1 H    0.999 --     5 C    0.975
    37   1 H    0.999 --     6 C    0.975
    38   1 H    0.999 --     6 C    0.975
    39   1 H    0.999 --     7 C    0.975
    40   1 H    0.999 --     7 C    0.975
    41   1 H    0.999 --     8 C    0.975
    42   1 H    0.999 --     8 C    0.974
    43   1 H    0.999 --     9 C    0.975
    44   1 H    0.999 --     9 C    0.974
    45   1 H    0.999 --    10 C    0.976
    46   1 H    0.999 --    10 C    0.974
    47   1 H    1.000 --    11 C    0.975
    48   1 H    0.998 --    11 C    0.974
    49   1 H    0.999 --    12 C    0.975
    50   1 H    0.998 --    12 C    0.973
    51   1 H    1.000 --    13 C    0.973
    52   1 H    0.997 --    13 C    0.972
    53   1 H    0.999 --    14 C    0.975
    54   1 H    0.996 --    14 C    0.971
    55   1 H    0.998 --    15 C    0.965
    56   1 H    0.994 --    15 C    0.965
    57   1 H    0.989 --    16 C    0.961
    58   1 H    0.991 --    16 C    0.960
    59   1 H    0.988 --    18 C    0.951
    60   1 H    0.988 --    18 C    0.947
    61   1 H    0.995 --    22 C    0.969
    62   1 H    0.993 --    22 C    0.968
    63   1 H    0.996 --    23 C    0.984
    64   1 H    0.994 --    23 C    0.977
    65   1 H    0.996 --    23 C    0.984
    66   1 H    0.990 --    24 C    0.975
    67   1 H    0.991 --    24 C    0.976
    68   1 H    0.985 --    24 C    0.966
    69   1 H    0.989 --    25 C    0.973
    70   1 H    0.989 --    25 C    0.971
    71   1 H    0.991 --    25 C    0.975
 ---------------------------------------------------------------------------

molecular dipole:
                 x           y           z       tot (Debye)
 q only:      -13.881       5.889      21.787
   full:      -14.130       5.855      21.892      67.881

           -------------------------------------------------
          | TOTAL ENERGY              -81.268186319882 Eh   |
          | GRADIENT NORM               0.000696830575 Eh/α |
          | HOMO-LUMO GAP               2.050066635097 eV   |
           -------------------------------------------------

 * finished run on 2024/12/20 at 06:46:28.138
