   * xtb version 6.7.1 (edcfbbe) compiled by 'conda@3ef47c1a292c' on 2024-11-25

   ID    Z sym.   atoms
    1    6 C      1, 2, 4, 6, 8-20
    2    8 O      3
    3    7 N      5, 7
    4    1 H      21-37

          program call               : xtb C0484.xyz --opt --namespace C0484 --charge +1
          :  Hamiltonian                  GFN2-xTB          :
 * total energy  :   -54.5958085 Eh     change       -0.6051195E-09 Eh
 * total energy  :   -54.6030621 Eh     change       -0.7253574E-02 Eh
 * total energy  :   -54.6043497 Eh     change       -0.1287621E-02 Eh
 * total energy  :   -54.6046503 Eh     change       -0.3005494E-03 Eh
 * total energy  :   -54.6049896 Eh     change       -0.3393691E-03 Eh
 * total energy  :   -54.6053316 Eh     change       -0.3419491E-03 Eh
 * total energy  :   -54.6057620 Eh     change       -0.4303713E-03 Eh
 * total energy  :   -54.6062540 Eh     change       -0.4920146E-03 Eh
 * total energy  :   -54.6066906 Eh     change       -0.4366262E-03 Eh
 * total energy  :   -54.6069394 Eh     change       -0.2488222E-03 Eh
 * total energy  :   -54.6127742 Eh     change       -0.7813868E-05 Eh
 * total energy  :   -54.6127852 Eh     change       -0.1095990E-04 Eh
 * total energy  :   -54.6127689 Eh     change        0.1630228E-04 Eh
 * total energy  :   -54.6128001 Eh     change       -0.3127820E-04 Eh
 * total energy  :   -54.6128088 Eh     change       -0.8620782E-05 Eh
 * total energy  :   -54.6128181 Eh     change       -0.9333450E-05 Eh
 * total energy  :   -54.6128294 Eh     change       -0.1126583E-04 Eh
 * total energy  :   -54.6128374 Eh     change       -0.7996687E-05 Eh
 * total energy  :   -54.6128410 Eh     change       -0.3668909E-05 Eh
   *** GEOMETRY OPTIMIZATION CONVERGED AFTER 68 ITERATIONS ***

 final structure:
================
37
 xtb: 6.7.1 (edcfbbe)
C            2.31910405450167        0.14901596792708        1.60363576396113
C            1.49404414997849       -0.77402465294847        0.77829626660253
O            1.50998028298896       -0.85758638102507       -0.41797853467020
C            0.53821776617428       -1.68549119856322        1.59102219920801
N            0.08088625506960       -2.74651687251859        0.74159784502295
C           -0.53268653060521       -2.54543161534591       -0.42510925146000
N           -0.62482530709314       -3.67033181450621       -1.12150917534270
C           -0.03154521794954       -4.67405478910220       -0.38530818648710
C            0.43658025757795       -4.08038779601017        0.80363729124037
C            1.09877587397542       -4.82632156813003        1.77058730303390
C            1.27852833193117       -6.16939851734972        1.51187575333806
C            0.81544924160353       -6.75934759460149        0.33250497532756
C            0.15502648349253       -6.02932816819718       -0.63325453470907
C           -1.30735519297652       -3.80721164437234       -2.39249085039900
C           -2.80519630181538       -3.72093087696559       -2.20007895771197
C           -3.53379437763462       -2.69605804339899       -2.78657202968993
C           -4.90418415929036       -2.62327232887065       -2.60188202947313
C           -5.55044541810032       -3.56625917364215       -1.82123231079186
C           -4.82562214277262       -4.58669721048790       -1.22752007903999
C           -3.45754380587094       -4.66569309851542       -1.41655850288467
H            2.76172624658427        0.91768052160800        0.97579788996459
H            3.12462150196711       -0.41766100745046        2.07028131564177
H            1.72873741311341        0.60189309804794        2.39609278090811
H            1.04212665831247       -2.09761071018117        2.46456464037118
H           -0.30374103414621       -1.07126204172900        1.92609717019816
H           -0.92451233801674       -1.60168965290635       -0.75339208978355
H            1.45897626234101       -4.38513184027761        2.68561041284376
H            1.78965353753912       -6.78215777103099        2.23692550440590
H            0.98036151623133       -7.81334148184183        0.17633811325593
H           -0.19925179648440       -6.49613621658508       -1.53783697996408
H           -0.96520663481559       -3.01497215766427       -3.06254698355617
H           -1.02953506489408       -4.77190097242287       -2.82103726996638
H           -3.03345381674063       -1.96159272101589       -3.40066788306553
H           -5.46547696201087       -1.82944693920745       -3.06936838920456
H           -6.61803520570284       -3.50915242262807       -1.67820434767183
H           -5.32640352544897       -5.32562668919232       -0.62149561728653
H           -2.89638100100945       -5.46793361890780       -0.95784122216538

          :  Hamiltonian                  GFN2-xTB          :
         :: total energy             -54.612841033801 Eh    ::
         :: gradient norm              0.000339686627 Eh/a0 ::
         :: HOMO-LUMO gap              2.787572348241 eV    ::
         :: SCC energy               -55.523623217385 Eh    ::
         :: -> dispersion             -0.037537419509 Eh    ::
         :: repulsion energy           0.910782183583 Eh    ::

    * Orbital Energies and Occupations

         #    Occupation            Energy/Eh            Energy/eV
      -------------------------------------------------------------
         1        2.0000           -0.8734123             -23.7668
       ...           ...                  ...                  ...
        38        2.0000           -0.5918602             -16.1053
        39        2.0000           -0.5839159             -15.8892
        40        2.0000           -0.5829269             -15.8622
        41        2.0000           -0.5814306             -15.8215
        42        2.0000           -0.5784503             -15.7404
        43        2.0000           -0.5710921             -15.5402
        44        2.0000           -0.5536811             -15.0664
        45        2.0000           -0.5485881             -14.9278
        46        2.0000           -0.5400175             -14.6946
        47        2.0000           -0.5294158             -14.4061
        48        2.0000           -0.5275997             -14.3567
        49        2.0000           -0.5120223             -13.9328
        50        2.0000           -0.5110662             -13.9068 (HOMO)
        51                         -0.4086248             -11.1192 (LUMO)
        52                         -0.3924564             -10.6793
        53                         -0.3611038              -9.8261
        54                         -0.3527953              -9.6000
        55                         -0.3354750              -9.1287
        56                         -0.3299993              -8.9797
        57                         -0.2356595              -6.4126
        58                         -0.2067940              -5.6272
        59                         -0.1640667              -4.4645
        60                         -0.1231233              -3.3504
        61                         -0.0809476              -2.2027
       ...                                ...                  ...
        97                          0.5565734              15.1451
      -------------------------------------------------------------
                  HL-Gap            0.1024414 Eh            2.7876 eV

     #   Z          covCN         q      C6AA      α(0)
     1   6 C        3.754    -0.153    23.524     6.916
     2   6 C        2.810     0.245    22.903     7.841
     3   8 O        0.857    -0.326    20.262     6.035
     4   6 C        3.744    -0.049    21.533     6.620
     5   7 N        2.829     0.035    20.628     6.746
     6   6 C        3.072     0.077    26.220     8.396
     7   7 N        2.828     0.040    20.548     6.733
     8   6 C        3.119     0.043    26.866     8.489
     9   6 C        3.113     0.039    26.977     8.508
    10   6 C        2.909    -0.033    28.833     8.805
    11   6 C        2.925    -0.018    28.462     8.749
    12   6 C        2.925    -0.018    28.470     8.750
    13   6 C        2.909    -0.030    28.758     8.793
    14   6 C        3.748    -0.024    21.071     6.547
    15   6 C        2.972    -0.004    28.111     8.697
    16   6 C        2.922    -0.036    28.905     8.817
    17   6 C        2.920    -0.022    28.560     8.764
    18   6 C        2.920    -0.022    28.545     8.761
    19   6 C        2.919    -0.024    28.595     8.769
    20   6 C        2.923    -0.038    28.939     8.822
    21   1 H        0.925     0.104     1.753     2.071
    22   1 H        0.925     0.104     1.753     2.070
    23   1 H        0.925     0.089     1.887     2.148
    24   1 H        0.925     0.103     1.759     2.074
    25   1 H        0.924     0.102     1.771     2.081
    26   1 H        0.926     0.114     1.666     2.019
    27   1 H        0.926     0.064     2.149     2.293
    28   1 H        0.926     0.079     1.988     2.205
    29   1 H        0.926     0.080     1.980     2.200
    30   1 H        0.926     0.071     2.070     2.250
    31   1 H        0.924     0.084     1.935     2.176
    32   1 H        0.924     0.088     1.898     2.155
    33   1 H        0.926     0.043     2.412     2.429
    34   1 H        0.926     0.056     2.247     2.344
    35   1 H        0.926     0.057     2.237     2.339
    36   1 H        0.926     0.052     2.296     2.369
    37   1 H        0.926     0.032     2.560     2.502

Wiberg/Mayer (AO) data.
largest (>0.10) Wiberg bond orders for each atom

     #   Z sym  total        # sym  WBO       # sym  WBO       # sym  WBO
 ---------------------------------------------------------------------------
     1   6 C    3.981 --     2 C    1.030    21 H    0.971    23 H    0.959
                            22 H    0.935
     2   6 C    3.919 --     3 O    1.883     1 C    1.030     4 C    0.930
     3   8 O    2.128 --     2 C    1.883
     4   6 C    3.953 --     5 N    0.996    24 H    0.955    25 H    0.940
                             2 C    0.930
     5   7 N    3.669 --     6 C    1.344     9 C    1.118     4 C    0.996
     6   6 C    3.953 --     7 N    1.379     5 N    1.344    26 H    0.953
     7   7 N    3.686 --     6 C    1.379     8 C    1.129    14 C    0.959
     8   6 C    3.954 --    13 C    1.338     9 C    1.272     7 N    1.129
     9   6 C    3.950 --    10 C    1.343     8 C    1.272     5 N    1.118
    10   6 C    3.987 --    11 C    1.492     9 C    1.343    27 H    0.963
                            13 C    0.118
    11   6 C    3.983 --    10 C    1.492    12 C    1.378    28 H    0.966
    12   6 C    3.984 --    13 C    1.495    11 C    1.378    29 H    0.966
    13   6 C    3.985 --    12 C    1.495     8 C    1.338    30 H    0.961
                            10 C    0.118
    14   6 C    3.937 --    15 C    0.981    31 H    0.960     7 N    0.959
                            32 H    0.958
    15   6 C    3.977 --    16 C    1.419    20 C    1.411    14 C    0.981
                            18 C    0.109
    16   6 C    3.990 --    17 C    1.438    15 C    1.419    33 H    0.968
                            19 C    0.110
    17   6 C    3.990 --    18 C    1.443    16 C    1.438    34 H    0.969
                            20 C    0.112
    18   6 C    3.989 --    17 C    1.443    19 C    1.436    35 H    0.969
                            15 C    0.109
    19   6 C    3.991 --    20 C    1.447    18 C    1.436    36 H    0.969
                            16 C    0.110
    20   6 C    3.992 --    19 C    1.447    15 C    1.411    37 H    0.969
                            17 C    0.112
    21   1 H    0.988 --     1 C    0.971
    22   1 H    0.989 --     1 C    0.935
    23   1 H    0.992 --     1 C    0.959
    24   1 H    0.989 --     4 C    0.955
    25   1 H    0.988 --     4 C    0.940
    26   1 H    0.986 --     6 C    0.953
    27   1 H    0.995 --    10 C    0.963
    28   1 H    0.993 --    11 C    0.966
    29   1 H    0.993 --    12 C    0.966
    30   1 H    0.994 --    13 C    0.961
    31   1 H    0.991 --    14 C    0.960
    32   1 H    0.992 --    14 C    0.958
    33   1 H    0.998 --    16 C    0.968
    34   1 H    0.996 --    17 C    0.969
    35   1 H    0.996 --    18 C    0.969
    36   1 H    0.997 --    19 C    0.969
    37   1 H    0.999 --    20 C    0.969
 ---------------------------------------------------------------------------

molecular dipole:
                 x           y           z       tot (Debye)
 q only:       -0.586      -6.160       0.764
   full:       -0.583      -6.014       0.897      15.526

           -------------------------------------------------
          | TOTAL ENERGY              -54.612841033801 Eh   |
          | GRADIENT NORM               0.000339686627 Eh/α |
          | HOMO-LUMO GAP               2.787572348241 eV   |
           -------------------------------------------------

 * finished run on 2024/12/20 at 06:46:18.719
