   * xtb version 6.7.1 (edcfbbe) compiled by 'conda@3ef47c1a292c' on 2024-11-25

   ID    Z sym.   atoms
    1    8 O      1, 7
    2    6 C      2-6, 8, 10, 13-19
    3    7 N      9, 11, 12
    4    1 H      20-33

          program call               : xtb C0482.xyz --opt --namespace C0482 --charge +1
          :  Hamiltonian                  GFN2-xTB          :
 * total energy  :   -53.6547819 Eh     change       -0.5839951E-09 Eh
 * total energy  :   -53.6600438 Eh     change       -0.5261874E-02 Eh
 * total energy  :   -53.6611251 Eh     change       -0.1081360E-02 Eh
 * total energy  :   -53.6614622 Eh     change       -0.3371238E-03 Eh
 * total energy  :   -53.6618783 Eh     change       -0.4160959E-03 Eh
 * total energy  :   -53.6621751 Eh     change       -0.2967914E-03 Eh
 * total energy  :   -53.6625165 Eh     change       -0.3414185E-03 Eh
 * total energy  :   -53.6627604 Eh     change       -0.2438119E-03 Eh
 * total energy  :   -53.6629000 Eh     change       -0.1396290E-03 Eh
 * total energy  :   -53.6630242 Eh     change       -0.1242228E-03 Eh
 * total energy  :   -53.6664975 Eh     change       -0.8989668E-05 Eh
 * total energy  :   -53.6665103 Eh     change       -0.1279772E-04 Eh
 * total energy  :   -53.6665172 Eh     change       -0.6873766E-05 Eh
 * total energy  :   -53.6665245 Eh     change       -0.7358532E-05 Eh
 * total energy  :   -53.6665315 Eh     change       -0.7015985E-05 Eh
 * total energy  :   -53.6665409 Eh     change       -0.9378718E-05 Eh
 * total energy  :   -53.6665482 Eh     change       -0.7308056E-05 Eh
 * total energy  :   -53.6665538 Eh     change       -0.5563255E-05 Eh
 * total energy  :   -53.6665579 Eh     change       -0.4155132E-05 Eh
   *** GEOMETRY OPTIMIZATION CONVERGED AFTER 64 ITERATIONS ***

 final structure:
================
33
 xtb: 6.7.1 (edcfbbe)
O            2.25344202849060        2.14329545901832        1.36441554863665
C            2.85686810851458        1.29076710621702        0.73356238425283
C            2.94145884526110        1.28618322400849       -0.69839960971204
C            2.45362287452292        2.20446202245415       -1.61554262044764
C            2.83001444671078        1.73387207387762       -2.88024610663723
C            3.51596868615111        0.56795076154144       -2.65835479437061
O            3.58963183971565        0.28907337679338       -1.36031406783627
C            3.63311188065464        0.17787633648330        1.45204888531489
N            2.92156929009687       -0.41713772167150        2.56264262562247
C            2.55180287801858        0.19331102774268        3.70793732178978
N            2.70293748926522        1.49477682376616        3.95262585392981
N            2.06755366948005       -0.70981263553836        4.57896239666535
C            2.10915247664071       -1.96135178271338        3.97676943619701
C            2.64644388743514       -1.77568142118490        2.69347872959406
C            2.81309977534384       -2.84087439325033        1.82494896186890
C            2.43215617654999       -4.09142193773735        2.27848158954453
C            1.90427796026682       -4.27558675394179        3.55318893627570
C            1.73238344011195       -3.21570188321719        4.42537175709190
C            1.58845560477369       -0.40433785846162        5.90379056179681
H            1.90372068368975        3.09250566209126       -1.37938215403665
H            2.62658987362540        2.18802965950438       -3.82751006324055
H            3.97916270818629       -0.12127547345210       -3.33869077748172
H            3.88562826312029       -0.61530230585526        0.75027818786640
H            4.56578125731827        0.62866360535513        1.81779147153632
H            2.70186300283463        2.10490814567787        3.13052764373803
H            2.30889876968568        1.87509811725643        4.79769280732916
H            3.21691171895787       -2.71544622621366        0.83361615075342
H            2.54729471499439       -4.94360388998059        1.62834957034391
H            1.62131607582705       -5.26699964958732        3.86795817003664
H            1.32032705610682       -3.37123962122569        5.40870682300975
H            2.38574801307695        0.02658152419979        6.51166228868965
H            0.74768353536219        0.29058785127018        5.85818922724816
H            1.25194296919842       -1.32326922324783        6.37517286460172

          :  Hamiltonian                  GFN2-xTB          :
         :: total energy             -53.666557934883 Eh    ::
         :: gradient norm              0.000751335725 Eh/a0 ::
         :: HOMO-LUMO gap              2.772819137017 eV    ::
         :: SCC energy               -54.456396667178 Eh    ::
         :: -> dispersion             -0.032950174378 Eh    ::
         :: repulsion energy           0.789838732295 Eh    ::

    * Orbital Energies and Occupations

         #    Occupation            Energy/Eh            Energy/eV
      -------------------------------------------------------------
         1        2.0000           -0.8733886             -23.7661
       ...           ...                  ...                  ...
        36        2.0000           -0.6120076             -16.6536
        37        2.0000           -0.6046480             -16.4533
        38        2.0000           -0.5933335             -16.1454
        39        2.0000           -0.5904326             -16.0665
        40        2.0000           -0.5869986             -15.9730
        41        2.0000           -0.5761877             -15.6789
        42        2.0000           -0.5662700             -15.4090
        43        2.0000           -0.5595322             -15.2256
        44        2.0000           -0.5567801             -15.1508
        45        2.0000           -0.5419007             -14.7459
        46        2.0000           -0.5294328             -14.4066
        47        2.0000           -0.5261200             -14.3165
        48        2.0000           -0.5179510             -14.0942 (HOMO)
        49                         -0.4160517             -11.3213 (LUMO)
        50                         -0.3785329             -10.3004
        51                         -0.3470376              -9.4434
        52                         -0.3346935              -9.1075
        53                         -0.3174895              -8.6393
        54                         -0.2738109              -7.4508
        55                         -0.2214527              -6.0260
        56                         -0.1817431              -4.9455
        57                         -0.1300785              -3.5396
        58                         -0.1046217              -2.8469
        59                         -0.0667906              -1.8175
       ...                                ...                  ...
        90                          0.5788255              15.7506
      -------------------------------------------------------------
                  HL-Gap            0.1018992 Eh            2.7728 eV

     #   Z          covCN         q      C6AA      α(0)
     1   8 O        0.858    -0.377    21.224     6.177
     2   6 C        2.812     0.218    23.411     7.927
     3   6 C        3.114     0.082    26.032     8.358
     4   6 C        3.025    -0.023    28.559     8.766
     5   6 C        3.007    -0.046    29.130     8.853
     6   6 C        3.076     0.101    25.690     8.310
     7   8 O        1.727    -0.166    16.804     5.535
     8   6 C        3.740    -0.039    21.341     6.591
     9   7 N        2.817    -0.025    21.729     6.923
    10   6 C        2.986     0.198    23.783     8.000
    11   7 N        2.637    -0.256    26.662     7.669
    12   7 N        2.818    -0.022    21.674     6.915
    13   6 C        3.081     0.039    27.045     8.526
    14   6 C        3.082     0.036    27.097     8.534
    15   6 C        2.911    -0.038    28.936     8.821
    16   6 C        2.926    -0.023    28.579     8.767
    17   6 C        2.926    -0.023    28.576     8.767
    18   6 C        2.911    -0.036    28.891     8.814
    19   6 C        3.690    -0.068    22.004     6.713
    20   1 H        0.926     0.088     1.894     2.152
    21   1 H        0.927     0.082     1.953     2.185
    22   1 H        0.926     0.088     1.903     2.157
    23   1 H        0.925     0.105     1.742     2.064
    24   1 H        0.923     0.095     1.830     2.115
    25   1 H        0.859     0.261     0.843     1.438
    26   1 H        0.860     0.214     1.036     1.595
    27   1 H        0.926     0.060     2.194     2.316
    28   1 H        0.926     0.073     2.051     2.240
    29   1 H        0.926     0.074     2.039     2.233
    30   1 H        0.926     0.065     2.144     2.290
    31   1 H        0.924     0.083     1.947     2.182
    32   1 H        0.924     0.081     1.971     2.196
    33   1 H        0.925     0.099     1.794     2.094

Wiberg/Mayer (AO) data.
largest (>0.10) Wiberg bond orders for each atom

     #   Z sym  total        # sym  WBO       # sym  WBO       # sym  WBO
 ---------------------------------------------------------------------------
     1   8 O    2.082 --     2 C    1.723
     2   6 C    3.950 --     1 O    1.723     3 C    1.141     8 C    0.955
     3   6 C    3.904 --     4 C    1.436     2 C    1.141     7 O    1.078
                             6 C    0.119
     4   6 C    3.982 --     3 C    1.436     5 C    1.374    20 H    0.968
     5   6 C    3.983 --     6 C    1.529     4 C    1.374    21 H    0.969
     6   6 C    3.914 --     5 C    1.529     7 O    1.187    22 H    0.961
                             3 C    0.119
     7   8 O    2.463 --     6 C    1.187     3 C    1.078
     8   6 C    3.953 --     9 N    0.981    23 H    0.957     2 C    0.955
                            24 H    0.938
     9   7 N    3.589 --    10 C    1.248    14 C    1.085     8 C    0.981
    10   6 C    3.972 --    11 N    1.297    12 N    1.263     9 N    1.248
    11   7 N    3.352 --    10 C    1.297    26 H    0.930    25 H    0.861
    12   7 N    3.601 --    10 C    1.263    13 C    1.088    19 C    0.989
    13   6 C    3.950 --    18 C    1.368    14 C    1.285    12 N    1.088
    14   6 C    3.948 --    15 C    1.370    13 C    1.285     9 N    1.085
    15   6 C    3.986 --    16 C    1.462    14 C    1.370    27 H    0.962
                            18 C    0.113
    16   6 C    3.981 --    15 C    1.462    17 C    1.409    28 H    0.967
    17   6 C    3.982 --    18 C    1.463    16 C    1.409    29 H    0.967
    18   6 C    3.986 --    17 C    1.463    13 C    1.368    30 H    0.962
                            15 C    0.113
    19   6 C    3.945 --    12 N    0.989    33 H    0.972    31 H    0.971
                            32 H    0.970
    20   1 H    0.992 --     4 C    0.968
    21   1 H    0.993 --     5 C    0.969
    22   1 H    0.992 --     6 C    0.961
    23   1 H    0.989 --     8 C    0.957
    24   1 H    0.990 --     8 C    0.938
    25   1 H    0.931 --    11 N    0.861
    26   1 H    0.953 --    11 N    0.930
    27   1 H    0.996 --    15 C    0.962
    28   1 H    0.994 --    16 C    0.967
    29   1 H    0.994 --    17 C    0.967
    30   1 H    0.995 --    18 C    0.962
    31   1 H    0.993 --    19 C    0.971
    32   1 H    0.993 --    19 C    0.970
    33   1 H    0.990 --    19 C    0.972
 ---------------------------------------------------------------------------

molecular dipole:
                 x           y           z       tot (Debye)
 q only:        5.069      -0.793       4.768
   full:        5.094      -0.720       4.708      17.725

           -------------------------------------------------
          | TOTAL ENERGY              -53.666557934883 Eh   |
          | GRADIENT NORM               0.000751335725 Eh/α |
          | HOMO-LUMO GAP               2.772819137017 eV   |
           -------------------------------------------------

 * finished run on 2024/12/20 at 06:46:16.016
