   * xtb version 6.7.1 (edcfbbe) compiled by 'conda@3ef47c1a292c' on 2024-11-25

   ID    Z sym.   atoms
    1    7 N      1, 4, 6
    2    6 C      2, 3, 5, 7-19
    3    1 H      20-35

          program call               : xtb C0483.xyz --opt --namespace C0483 --charge +1
          :  Hamiltonian                  GFN2-xTB          :
 * total energy  :   -50.8100617 Eh     change       -0.3085106E-09 Eh
 * total energy  :   -50.8181384 Eh     change       -0.8076711E-02 Eh
 * total energy  :   -50.8208458 Eh     change       -0.2707386E-02 Eh
 * total energy  :   -50.8213740 Eh     change       -0.5282340E-03 Eh
 * total energy  :   -50.8218581 Eh     change       -0.4841157E-03 Eh
 * total energy  :   -50.8220610 Eh     change       -0.2028754E-03 Eh
 * total energy  :   -50.8222421 Eh     change       -0.1810350E-03 Eh
 * total energy  :   -50.8223298 Eh     change       -0.8775120E-04 Eh
 * total energy  :   -50.8223901 Eh     change       -0.6031603E-04 Eh
 * total energy  :   -50.8224423 Eh     change       -0.5215369E-04 Eh
 * total energy  :   -50.8224816 Eh     change       -0.3935274E-04 Eh
 * total energy  :   -50.8225010 Eh     change       -0.1941055E-04 Eh
 * total energy  :   -50.8225094 Eh     change       -0.8319401E-05 Eh
 * total energy  :   -50.8225170 Eh     change       -0.7685135E-05 Eh
 * total energy  :   -50.8225252 Eh     change       -0.8119117E-05 Eh
 * total energy  :   -50.8225298 Eh     change       -0.4643695E-05 Eh
   *** GEOMETRY OPTIMIZATION CONVERGED AFTER 16 ITERATIONS ***

 final structure:
================
35
 xtb: 6.7.1 (edcfbbe)
N            0.83317132931966       -0.00364878093741       -0.00013757826230
C            0.30913675664818       -0.73409939873590       -1.01732322838007
C            0.52260471688165       -2.03732242631016       -1.38562109222373
N           -0.33295526592757       -2.31541534588152       -2.42120957545185
C           -1.05764052450364       -1.22695636597240       -2.69535918828984
N           -0.68179273327102       -0.24898049971885       -1.83896553325466
C           -1.27745444791214        1.05536299661676       -1.70347455065903
C           -2.10441230836166       -1.12588934908635       -3.70357574455664
C           -2.13929251321296       -0.04712800370795       -4.58869051205561
C           -3.13700554622865        0.03165248471198       -5.54280603782149
C           -4.10606588878395       -0.95529928343550       -5.62092713348028
C           -4.07455746744983       -2.02950129261156       -4.74506652515381
C           -3.07974971537920       -2.12115257761741       -3.79094950341432
C           -0.37485808770274       -3.56048850481809       -3.10245700786742
C           -0.34632460042350       -3.59701905880532       -4.49067832473974
C           -0.37817955892693       -4.82033827777197       -5.13548309122455
C           -0.43232947638700       -5.99528277436718       -4.40267268444039
C           -0.45219946625696       -5.95111592429608       -3.01838369208305
C           -0.42221237337930       -4.73368852712328       -2.36106820344385
H            0.85116271382090        0.99867869570000       -0.09067292819844
H            1.62749250756189       -0.40335655281462        0.47144572692079
H            1.21741705325167       -2.75739131135221       -1.01067345447298
H           -0.62005615857122        1.82855659274949       -2.10585511018207
H           -2.22246450883025        1.07860970500258       -2.24194678255822
H           -1.46504782783967        1.25735237778914       -0.64868086553858
H           -1.36864435863418        0.70809210396895       -4.55187483353220
H           -3.15480985907033        0.86445210144849       -6.22813358648137
H           -4.88394144880906       -0.88886379583094       -6.36501014921470
H           -4.82896722653493       -2.79797262713566       -4.80387135746381
H           -3.06414034409383       -2.95166585766227       -3.10185919992586
H           -0.28945213093245       -2.68001688670336       -5.05644192395608
H           -0.35415025418736       -4.85398261596014       -6.21307552208694
H           -0.45544895004975       -6.94607549638721       -4.91112540377699
H           -0.49283938006875       -6.86443334431700       -2.44634916835687
H           -0.45100265575550       -4.69107217862796       -1.28295623437298

          :  Hamiltonian                  GFN2-xTB          :
         :: total energy             -50.822529805204 Eh    ::
         :: gradient norm              0.000859550085 Eh/a0 ::
         :: HOMO-LUMO gap              3.026434600482 eV    ::
         :: SCC energy               -51.724023370857 Eh    ::
         :: -> dispersion             -0.038428971345 Eh    ::
         :: repulsion energy           0.901493565653 Eh    ::

    * Orbital Energies and Occupations

         #    Occupation            Energy/Eh            Energy/eV
      -------------------------------------------------------------
         1        2.0000           -0.8634275             -23.4951
       ...           ...                  ...                  ...
        35        2.0000           -0.6005336             -16.3414
        36        2.0000           -0.5992489             -16.3064
        37        2.0000           -0.5963899             -16.2286
        38        2.0000           -0.5778331             -15.7236
        39        2.0000           -0.5516267             -15.0105
        40        2.0000           -0.5497914             -14.9606
        41        2.0000           -0.5451841             -14.8352
        42        2.0000           -0.5438144             -14.7979
        43        2.0000           -0.5359175             -14.5831
        44        2.0000           -0.5319342             -14.4747
        45        2.0000           -0.5286862             -14.3863
        46        2.0000           -0.5271423             -14.3443
        47        2.0000           -0.5053683             -13.7518 (HOMO)
        48                         -0.3941489             -10.7253 (LUMO)
        49                         -0.3528867              -9.6025
        50                         -0.3494873              -9.5100
        51                         -0.3450874              -9.3903
        52                         -0.3279461              -8.9239
        53                         -0.3185159              -8.6673
        54                         -0.2201297              -5.9900
        55                         -0.2153153              -5.8590
        56                         -0.1614383              -4.3930
        57                         -0.1337237              -3.6388
        58                         -0.0734582              -1.9989
       ...                                ...                  ...
        92                          0.5561174              15.1327
      -------------------------------------------------------------
                  HL-Gap            0.1112194 Eh            3.0264 eV

     #   Z          covCN         q      C6AA      α(0)
     1   7 N        2.635    -0.259    26.729     7.678
     2   6 C        2.993     0.116    25.436     8.273
     3   6 C        3.033    -0.057    29.383     8.891
     4   7 N        2.863     0.031    20.696     6.757
     5   6 C        3.075     0.093    25.867     8.339
     6   7 N        2.861    -0.001    21.279     6.851
     7   6 C        3.690    -0.070    22.041     6.719
     8   6 C        2.973    -0.003    28.106     8.696
     9   6 C        2.922    -0.033    28.812     8.802
    10   6 C        2.918    -0.020    28.516     8.757
    11   6 C        2.920    -0.015    28.385     8.737
    12   6 C        2.919    -0.019    28.476     8.751
    13   6 C        2.923    -0.027    28.678     8.782
    14   6 C        2.919     0.051    26.857     8.498
    15   6 C        2.920    -0.035    28.878     8.812
    16   6 C        2.921    -0.019    28.479     8.751
    17   6 C        2.919    -0.018    28.463     8.749
    18   6 C        2.921    -0.019    28.477     8.751
    19   6 C        2.921    -0.036    28.893     8.815
    20   1 H        0.860     0.200     1.106     1.647
    21   1 H        0.860     0.201     1.102     1.645
    22   1 H        0.927     0.086     1.918     2.166
    23   1 H        0.924     0.083     1.948     2.183
    24   1 H        0.925     0.094     1.844     2.124
    25   1 H        0.924     0.092     1.856     2.131
    26   1 H        0.926     0.046     2.366     2.405
    27   1 H        0.926     0.063     2.168     2.303
    28   1 H        0.926     0.066     2.133     2.284
    29   1 H        0.926     0.063     2.169     2.303
    30   1 H        0.926     0.045     2.389     2.417
    31   1 H        0.926     0.048     2.340     2.392
    32   1 H        0.926     0.065     2.146     2.291
    33   1 H        0.926     0.068     2.110     2.271
    34   1 H        0.926     0.067     2.122     2.278
    35   1 H        0.926     0.056     2.250     2.345

Wiberg/Mayer (AO) data.
largest (>0.10) Wiberg bond orders for each atom

     #   Z sym  total        # sym  WBO       # sym  WBO       # sym  WBO
 ---------------------------------------------------------------------------
     1   7 N    3.278 --     2 C    1.199    21 H    0.942    20 H    0.936
                             3 C    0.103
     2   6 C    3.954 --     3 C    1.466     1 N    1.199     6 N    1.157
     3   6 C    3.915 --     2 C    1.466     4 N    1.172    22 H    0.965
                             5 C    0.103     1 N    0.103
     4   7 N    3.691 --     5 C    1.319     3 C    1.172    14 C    0.985
     5   6 C    3.940 --     4 N    1.319     6 N    1.255     8 C    1.053
                             3 C    0.103
     6   7 N    3.638 --     5 C    1.255     2 C    1.157     7 C    0.993
     7   6 C    3.945 --     6 N    0.993    24 H    0.971    25 H    0.969
                            23 H    0.967
     8   6 C    3.978 --     9 C    1.375    13 C    1.371     5 C    1.053
                            11 C    0.103
     9   6 C    3.987 --    10 C    1.450     8 C    1.375    26 H    0.969
                            12 C    0.105
    10   6 C    3.989 --     9 C    1.450    11 C    1.435    27 H    0.967
                            13 C    0.107
    11   6 C    3.978 --    10 C    1.435    12 C    1.430    28 H    0.968
                             8 C    0.103
    12   6 C    3.989 --    13 C    1.456    11 C    1.430    29 H    0.967
                             9 C    0.105
    13   6 C    3.989 --    12 C    1.456     8 C    1.371    30 H    0.969
                            10 C    0.107
    14   6 C    3.940 --    19 C    1.394    15 C    1.390     4 N    0.985
                            17 C    0.104
    15   6 C    3.989 --    16 C    1.446    14 C    1.390    31 H    0.967
                            18 C    0.110
    16   6 C    3.989 --    15 C    1.446    17 C    1.435    32 H    0.967
                            19 C    0.109
    17   6 C    3.984 --    18 C    1.438    16 C    1.435    33 H    0.968
                            14 C    0.104
    18   6 C    3.988 --    19 C    1.443    17 C    1.438    34 H    0.967
                            15 C    0.110
    19   6 C    3.986 --    18 C    1.443    14 C    1.394    35 H    0.966
                            16 C    0.109
    20   1 H    0.959 --     1 N    0.936
    21   1 H    0.959 --     1 N    0.942
    22   1 H    0.992 --     3 C    0.965
    23   1 H    0.992 --     7 C    0.967
    24   1 H    0.991 --     7 C    0.971
    25   1 H    0.991 --     7 C    0.969
    26   1 H    0.998 --     9 C    0.969
    27   1 H    0.995 --    10 C    0.967
    28   1 H    0.995 --    11 C    0.968
    29   1 H    0.995 --    12 C    0.967
    30   1 H    0.998 --    13 C    0.969
    31   1 H    0.998 --    15 C    0.967
    32   1 H    0.995 --    16 C    0.967
    33   1 H    0.995 --    17 C    0.968
    34   1 H    0.995 --    18 C    0.967
    35   1 H    0.997 --    19 C    0.966
 ---------------------------------------------------------------------------

molecular dipole:
                 x           y           z       tot (Debye)
 q only:       -1.462      -2.547      -4.725
   full:       -1.223      -2.397      -4.695      13.755

           -------------------------------------------------
          | TOTAL ENERGY              -50.822529805204 Eh   |
          | GRADIENT NORM               0.000859550085 Eh/α |
          | HOMO-LUMO GAP               3.026434600482 eV   |
           -------------------------------------------------

 * finished run on 2024/12/20 at 06:46:16.663
