   * xtb version 6.7.1 (edcfbbe) compiled by 'conda@3ef47c1a292c' on 2024-11-25

   ID    Z sym.   atoms
    1    6 C      1-10, 12-15
    2    7 N      11
    3    8 O      16
    4    1 H      17-48

          program call               : xtb C0487.xyz --opt --namespace C0487 --charge +1
          :  Hamiltonian                  GFN2-xTB          :
 * total energy  :   -52.8857899 Eh     change       -0.6775736E-10 Eh
 * total energy  :   -52.8937411 Eh     change       -0.7951142E-02 Eh
 * total energy  :   -52.8957471 Eh     change       -0.2006077E-02 Eh
 * total energy  :   -52.8959013 Eh     change       -0.1541266E-03 Eh
 * total energy  :   -52.8959974 Eh     change       -0.9614930E-04 Eh
 * total energy  :   -52.8960466 Eh     change       -0.4922375E-04 Eh
 * total energy  :   -52.8960947 Eh     change       -0.4807281E-04 Eh
 * total energy  :   -52.8961215 Eh     change       -0.2673959E-04 Eh
 * total energy  :   -52.8961362 Eh     change       -0.1471236E-04 Eh
 * total energy  :   -52.8961548 Eh     change       -0.1863431E-04 Eh
 * total energy  :   -52.8962543 Eh     change       -0.1751990E-04 Eh
 * total energy  :   -52.8962736 Eh     change       -0.1939048E-04 Eh
 * total energy  :   -52.8962934 Eh     change       -0.1976022E-04 Eh
 * total energy  :   -52.8963095 Eh     change       -0.1609304E-04 Eh
 * total energy  :   -52.8963209 Eh     change       -0.1142835E-04 Eh
 * total energy  :   -52.8963289 Eh     change       -0.7962381E-05 Eh
 * total energy  :   -52.8963357 Eh     change       -0.6784494E-05 Eh
 * total energy  :   -52.8963422 Eh     change       -0.6528494E-05 Eh
 * total energy  :   -52.8963449 Eh     change       -0.2648804E-05 Eh
   *** GEOMETRY OPTIMIZATION CONVERGED AFTER 22 ITERATIONS ***

 final structure:
================
48
 xtb: 6.7.1 (edcfbbe)
C            0.94187228647926        0.59094344274109        0.03138753009063
C            0.94914948096630       -0.25785698360359       -1.23423332961098
C            1.30604699748766       -1.72237869345753       -0.97511032324885
C            0.32893378377266       -2.47426792821178       -0.06880920563433
C           -1.11010909957710       -2.54359689803667       -0.58442803571681
C           -1.27086747772595       -3.18351061161950       -1.96505131082884
C           -0.72197992058540       -4.60706625899785       -2.09005993724853
C           -1.35086262475438       -5.62032256086751       -1.13005193083094
C           -2.86059134065229       -5.81600252335937       -1.29890348203815
C           -3.39361607009098       -6.20073244400353       -2.68121693150472
N           -3.13133037246134       -7.59196059518976       -3.19398232632841
C           -3.27710539053257       -8.58334314266159       -2.11211735586879
C           -4.14277099305323       -7.88580683055614       -4.22816547425689
C           -1.75827882774706       -7.72300542843994       -3.76731017468142
C           -1.54899219400835       -7.15233499968997       -5.17504975581998
O           -1.95108982955476       -5.80275963990396       -5.22327399577080
H            0.13437585687277        0.29929309179727        0.69824547051522
H            0.80713471819259        1.63986904613401       -0.22120148929377
H            1.88450373025620        0.48670067040890        0.56412747150281
H           -0.02398534342670       -0.19011930754915       -1.72432582049244
H            1.68901971160650        0.15048862860650       -1.92667420160404
H            1.38580320890117       -2.23845654730016       -1.93472102498918
H            2.29273871244689       -1.75975676303025       -0.50730952877175
H            0.71184705501143       -3.48640063367966        0.08305937634206
H            0.31296636259233       -1.99353889847109        0.91022162002680
H           -1.71155362373960       -3.08878213179411        0.14732268334987
H           -1.51849458337112       -1.53338642845389       -0.63559294107738
H           -2.33093163678652       -3.17268007020433       -2.23061648345530
H           -0.75660744235842       -2.56490316419589       -2.70154139954407
H           -0.85636867444339       -4.92710033522659       -3.12535268506878
H            0.35134380387739       -4.58793479248863       -1.89812271086703
H           -0.82109907804110       -6.57426513152395       -1.20794607976982
H           -1.18977903563409       -5.27319090512457       -0.10891155126413
H           -3.21541814194830       -6.51314688937357       -0.53903493809291
H           -3.33725306391695       -4.85866500657141       -1.07963758035825
H           -4.47917091574628       -6.09152576735250       -2.64238502221292
H           -3.00570130443413       -5.51060704834897       -3.42951253210663
H           -4.22356813403776       -8.43172641577359       -1.59628449703874
H           -3.26552631611296       -9.59069306157215       -2.52550472324631
H           -2.46300528498807       -8.49101292858017       -1.39711419102926
H           -4.15729576179645       -7.08913145555827       -4.96884812354223
H           -3.91695410486621       -8.83296661819125       -4.71526151195314
H           -5.12901915188912       -7.95717060884679       -3.77329852503839
H           -1.07218830060191       -7.22333055523742       -3.08614851375974
H           -1.50379445534936       -8.78390276895847       -3.81136512817297
H           -0.47668971753302       -7.25058089627704       -5.38669737580540
H           -2.09213949965423       -7.74139361734738       -5.92572260237153
H           -1.62667799706601       -5.39019059405062       -6.03053940150360

          :  Hamiltonian                  GFN2-xTB          :
         :: total energy             -52.896344852860 Eh    ::
         :: gradient norm              0.000213806975 Eh/a0 ::
         :: HOMO-LUMO gap              6.857153537549 eV    ::
         :: SCC energy               -53.607896181038 Eh    ::
         :: -> dispersion             -0.038960297593 Eh    ::
         :: repulsion energy           0.711551328178 Eh    ::

    * Orbital Energies and Occupations

         #    Occupation            Energy/Eh            Energy/eV
      -------------------------------------------------------------
         1        2.0000           -0.8570846             -23.3225
       ...           ...                  ...                  ...
        37        2.0000           -0.5625716             -15.3084
        38        2.0000           -0.5601043             -15.2412
        39        2.0000           -0.5529725             -15.0471
        40        2.0000           -0.5499327             -14.9644
        41        2.0000           -0.5381249             -14.6431
        42        2.0000           -0.5331819             -14.5086
        43        2.0000           -0.5260010             -14.3132
        44        2.0000           -0.5142360             -13.9931
        45        2.0000           -0.5083638             -13.8333
        46        2.0000           -0.5047660             -13.7354
        47        2.0000           -0.4879462             -13.2777
        48        2.0000           -0.4842132             -13.1761
        49        2.0000           -0.4809844             -13.0883 (HOMO)
        50                         -0.2289886              -6.2311 (LUMO)
        51                         -0.1665289              -4.5315
        52                         -0.1460885              -3.9753
        53                         -0.1424950              -3.8775
        54                         -0.1040621              -2.8317
        55                         -0.0606853              -1.6513
        56                         -0.0556880              -1.5153
        57                         -0.0504781              -1.3736
        58                         -0.0281039              -0.7647
        59                         -0.0189352              -0.5153
        60                         -0.0106259              -0.2891
       ...                                ...                  ...
        96                          0.2431573               6.6166
      -------------------------------------------------------------
                  HL-Gap            0.2519958 Eh            6.8572 eV

     #   Z          covCN         q      C6AA      α(0)
     1   6 C        3.751    -0.104    22.545     6.771
     2   6 C        3.799    -0.053    21.529     6.606
     3   6 C        3.800    -0.058    21.626     6.621
     4   6 C        3.800    -0.059    21.640     6.623
     5   6 C        3.800    -0.060    21.652     6.625
     6   6 C        3.800    -0.062    21.690     6.631
     7   6 C        3.800    -0.068    21.813     6.650
     8   6 C        3.799    -0.065    21.754     6.641
     9   6 C        3.799    -0.076    21.952     6.671
    10   6 C        3.755    -0.052    21.560     6.621
    11   7 N        3.620     0.137    18.914     6.459
    12   6 C        3.722    -0.095    22.427     6.763
    13   6 C        3.724    -0.097    22.461     6.767
    14   6 C        3.759    -0.046    21.442     6.602
    15   6 C        3.672     0.072    19.604     6.346
    16   8 O        1.656    -0.439    21.627     6.278
    17   1 H        0.925     0.034     2.528     2.486
    18   1 H        0.925     0.036     2.500     2.472
    19   1 H        0.925     0.037     2.488     2.467
    20   1 H        0.924     0.029     2.603     2.523
    21   1 H        0.924     0.031     2.578     2.511
    22   1 H        0.924     0.025     2.665     2.553
    23   1 H        0.924     0.034     2.532     2.488
    24   1 H        0.924     0.025     2.663     2.552
    25   1 H        0.924     0.040     2.450     2.448
    26   1 H        0.924     0.024     2.673     2.557
    27   1 H        0.924     0.041     2.430     2.438
    28   1 H        0.924     0.024     2.679     2.560
    29   1 H        0.924     0.044     2.400     2.423
    30   1 H        0.924     0.033     2.549     2.497
    31   1 H        0.924     0.047     2.352     2.398
    32   1 H        0.924     0.020     2.735     2.586
    33   1 H        0.924     0.061     2.183     2.310
    34   1 H        0.924     0.050     2.315     2.379
    35   1 H        0.924     0.079     1.988     2.205
    36   1 H        0.924     0.078     2.001     2.212
    37   1 H        0.925     0.123     1.586     1.969
    38   1 H        0.925     0.099     1.792     2.094
    39   1 H        0.925     0.092     1.856     2.130
    40   1 H        0.925     0.102     1.771     2.081
    41   1 H        0.925     0.111     1.690     2.033
    42   1 H        0.925     0.092     1.857     2.131
    43   1 H        0.925     0.095     1.830     2.115
    44   1 H        0.925     0.113     1.674     2.023
    45   1 H        0.924     0.084     1.943     2.180
    46   1 H        0.924     0.061     2.182     2.310
    47   1 H        0.923     0.048     2.344     2.395
    48   1 H        0.805     0.314     0.682     1.297

Wiberg/Mayer (AO) data.
largest (>0.10) Wiberg bond orders for each atom

     #   Z sym  total        # sym  WBO       # sym  WBO       # sym  WBO
 ---------------------------------------------------------------------------
     1   6 C    3.997 --     2 C    1.020    19 H    0.987    18 H    0.987
                            17 H    0.986
     2   6 C    3.998 --     1 C    1.020     3 C    1.008    21 H    0.978
                            20 H    0.976
     3   6 C    3.997 --     2 C    1.008     4 C    1.008    23 H    0.977
                            22 H    0.976
     4   6 C    3.997 --     5 C    1.008     3 C    1.008    24 H    0.975
                            25 H    0.974
     5   6 C    3.996 --     4 C    1.008     6 C    1.008    26 H    0.975
                            27 H    0.974
     6   6 C    3.996 --     5 C    1.008     7 C    1.007    28 H    0.975
                            29 H    0.974
     7   6 C    3.995 --     6 C    1.007     8 C    1.007    31 H    0.973
                            30 H    0.970
     8   6 C    3.992 --     7 C    1.007     9 C    1.006    33 H    0.968
                            32 H    0.968
     9   6 C    3.984 --    10 C    1.008     8 C    1.006    34 H    0.971
                            35 H    0.959
    10   6 C    3.914 --     9 C    1.008    36 H    0.969    37 H    0.950
                            11 N    0.912
    11   7 N    3.811 --    12 C    0.962    13 C    0.960    14 C    0.939
                            10 C    0.912
    12   6 C    3.932 --    39 H    0.975    38 H    0.974    40 H    0.973
                            11 N    0.962
    13   6 C    3.929 --    42 H    0.975    43 H    0.975    41 H    0.972
                            11 N    0.960
    14   6 C    3.939 --    15 C    1.004    45 H    0.968    44 H    0.952
                            11 N    0.939
    15   6 C    3.958 --    14 C    1.004    16 O    1.003    47 H    0.965
                            46 H    0.964
    16   8 O    1.962 --    15 C    1.003    48 H    0.885
    17   1 H    0.999 --     1 C    0.986
    18   1 H    0.999 --     1 C    0.987
    19   1 H    0.999 --     1 C    0.987
    20   1 H    0.999 --     2 C    0.976
    21   1 H    0.999 --     2 C    0.978
    22   1 H    0.999 --     3 C    0.976
    23   1 H    0.999 --     3 C    0.977
    24   1 H    0.999 --     4 C    0.975
    25   1 H    0.998 --     4 C    0.974
    26   1 H    0.999 --     5 C    0.975
    27   1 H    0.998 --     5 C    0.974
    28   1 H    0.999 --     6 C    0.975
    29   1 H    0.998 --     6 C    0.974
    30   1 H    0.999 --     7 C    0.970
    31   1 H    0.998 --     7 C    0.973
    32   1 H    1.000 --     8 C    0.968
    33   1 H    0.996 --     8 C    0.968
    34   1 H    0.997 --     9 C    0.971
    35   1 H    0.993 --     9 C    0.959
    36   1 H    0.994 --    10 C    0.969
    37   1 H    0.985 --    10 C    0.950
    38   1 H    0.990 --    12 C    0.974
    39   1 H    0.991 --    12 C    0.975
    40   1 H    0.990 --    12 C    0.973
    41   1 H    0.988 --    13 C    0.972
    42   1 H    0.991 --    13 C    0.975
    43   1 H    0.991 --    13 C    0.975
    44   1 H    0.987 --    14 C    0.952
    45   1 H    0.993 --    14 C    0.968
    46   1 H    0.996 --    15 C    0.964
    47   1 H    0.997 --    15 C    0.965
    48   1 H    0.901 --    16 O    0.885
 ---------------------------------------------------------------------------

molecular dipole:
                 x           y           z       tot (Debye)
 q only:       -5.230     -13.786      -6.247
   full:       -5.162     -13.950      -6.470      41.230

           -------------------------------------------------
          | TOTAL ENERGY              -52.896344852860 Eh   |
          | GRADIENT NORM               0.000213806975 Eh/α |
          | HOMO-LUMO GAP               6.857153537549 eV   |
           -------------------------------------------------

 * finished run on 2024/12/20 at 06:46:29.603
