   * xtb version 6.7.1 (edcfbbe) compiled by 'conda@3ef47c1a292c' on 2024-11-25

   ID    Z sym.   atoms
    1    6 C      1, 2, 4, 6, 7, 9, 10
    2   16 S      3
    3    7 N      5, 8
    4    1 H      11-27

          program call               : xtb C0494.xyz --opt --namespace C0494 --charge +1
          :  Hamiltonian                  GFN2-xTB          :
 * total energy  :   -32.3456292 Eh     change       -0.1508056E-09 Eh
 * total energy  :   -32.3519358 Eh     change       -0.6306643E-02 Eh
 * total energy  :   -32.3537570 Eh     change       -0.1821161E-02 Eh
 * total energy  :   -32.3545374 Eh     change       -0.7804315E-03 Eh
 * total energy  :   -32.3556831 Eh     change       -0.1145676E-02 Eh
 * total energy  :   -32.3566141 Eh     change       -0.9309638E-03 Eh
 * total energy  :   -32.3575832 Eh     change       -0.9690875E-03 Eh
 * total energy  :   -32.3583560 Eh     change       -0.7728186E-03 Eh
 * total energy  :   -32.3588003 Eh     change       -0.4443312E-03 Eh
 * total energy  :   -32.3589919 Eh     change       -0.1916179E-03 Eh
 * total energy  :   -32.3599229 Eh     change       -0.1561716E-04 Eh
 * total energy  :   -32.3599358 Eh     change       -0.1285448E-04 Eh
 * total energy  :   -32.3599464 Eh     change       -0.1064580E-04 Eh
 * total energy  :   -32.3599570 Eh     change       -0.1054013E-04 Eh
 * total energy  :   -32.3599679 Eh     change       -0.1091908E-04 Eh
 * total energy  :   -32.3599783 Eh     change       -0.1046827E-04 Eh
 * total energy  :   -32.3599865 Eh     change       -0.8199816E-05 Eh
 * total energy  :   -32.3599937 Eh     change       -0.7135567E-05 Eh
 * total energy  :   -32.3599977 Eh     change       -0.4003462E-05 Eh
   *** GEOMETRY OPTIMIZATION CONVERGED AFTER 39 ITERATIONS ***

 final structure:
================
27
 xtb: 6.7.1 (edcfbbe)
C            0.98263574595561        0.10990383542550        0.91960314253092
C            0.58696152320796       -1.16222994198068        0.20057348896519
S            1.27022751318252       -2.66651062335659        1.00094828819648
C            2.99677340129425       -2.37698530757235        1.14979679454307
N            3.69246154745930       -1.82668029316344        0.15443202373868
C            4.86072420725751       -0.99237928762852        0.36264255945301
C            3.31963655954978       -1.97510377404336       -1.23511679355111
N            3.56055494198161       -2.76786925880170        2.28634990621852
C            2.78976264803203       -3.04381565403984        3.47996360495276
C            4.95152047632252       -3.16527001529566        2.38862617881850
H            0.70581952833449        0.06548719732092        1.97076831129851
H            0.45634843549306        0.94762717522513        0.46777405051561
H            2.05115561864459        0.30136504399393        0.84555323859832
H           -0.48682051758226       -1.33493488948883        0.28351867528299
H            0.85467827582096       -1.14687253167353       -0.85316746809181
H            5.77498687219753       -1.48009783786539        0.02133230983506
H            4.73317181286719       -0.07877721024124       -0.22151463545762
H            4.95970230168370       -0.71793949565873        1.40849937642805
H            2.56096891560419       -2.74568327598022       -1.34881677237172
H            2.96256886851175       -1.03314737623350       -1.65635774932782
H            4.20389547470937       -2.27909725503087       -1.79800131498111
H            2.51396098885695       -4.09855231190980        3.53428974332685
H            3.39675184925983       -2.79522496451255        4.34947419236926
H            1.88034484742078       -2.44826017226446        3.49981477812703
H            5.39315978683347       -3.30080658300604        1.40638568898035
H            5.53441813106134       -2.44046383176419        2.95910622316984
H            4.99320024603995       -4.12026136045383        2.91360215842560

          :  Hamiltonian                  GFN2-xTB          :
         :: total energy             -32.359997677515 Eh    ::
         :: gradient norm              0.000865343675 Eh/a0 ::
         :: HOMO-LUMO gap              3.070909993814 eV    ::
         :: SCC energy               -32.782404373125 Eh    ::
         :: -> dispersion             -0.021770538829 Eh    ::
         :: repulsion energy           0.422406695610 Eh    ::

    * Orbital Energies and Occupations

         #    Occupation            Energy/Eh            Energy/eV
      -------------------------------------------------------------
         1        2.0000           -0.8811215             -23.9765
       ...           ...                  ...                  ...
        18        2.0000           -0.6469315             -17.6039
        19        2.0000           -0.6374265             -17.3453
        20        2.0000           -0.6367691             -17.3274
        21        2.0000           -0.6312586             -17.1774
        22        2.0000           -0.6265298             -17.0487
        23        2.0000           -0.6220273             -16.9262
        24        2.0000           -0.6182361             -16.8231
        25        2.0000           -0.6122212             -16.6594
        26        2.0000           -0.6096204             -16.5886
        27        2.0000           -0.5869521             -15.9718
        28        2.0000           -0.5791986             -15.7608
        29        2.0000           -0.5416202             -14.7382
        30        2.0000           -0.5311338             -14.4529 (HOMO)
        31                         -0.4182799             -11.3820 (LUMO)
        32                         -0.3436583              -9.3514
        33                         -0.3057628              -8.3202
        34                         -0.1798512              -4.8940
        35                         -0.1777935              -4.8380
        36                         -0.1494520              -4.0668
        37                         -0.1213064              -3.3009
        38                         -0.1203698              -3.2754
        39                         -0.0640851              -1.7438
        40                         -0.0458657              -1.2481
        41                         -0.0365372              -0.9942
       ...                                ...                  ...
        62                          0.3433530               9.3431
      -------------------------------------------------------------
                  HL-Gap            0.1128539 Eh            3.0709 eV

     #   Z          covCN         q      C6AA      α(0)
     1   6 C        3.776    -0.114    22.704     6.789
     2   6 C        3.793    -0.021    20.952     6.518
     3  16 S        2.068    -0.057   143.414    20.156
     4   6 C        2.831     0.145    24.847     8.168
     5   7 N        2.764    -0.030    21.817     6.937
     6   6 C        3.701    -0.072    22.045     6.714
     7   6 C        3.702    -0.069    21.976     6.703
     8   7 N        2.795    -0.008    21.413     6.873
     9   6 C        3.709    -0.081    22.189     6.733
    10   6 C        3.702    -0.078    22.154     6.730
    11   1 H        0.925     0.062     2.170     2.304
    12   1 H        0.925     0.075     2.028     2.227
    13   1 H        0.925     0.046     2.373     2.409
    14   1 H        0.925     0.088     1.896     2.154
    15   1 H        0.925     0.071     2.073     2.251
    16   1 H        0.924     0.081     1.970     2.195
    17   1 H        0.924     0.089     1.893     2.152
    18   1 H        0.925     0.079     1.986     2.204
    19   1 H        0.925     0.084     1.942     2.180
    20   1 H        0.924     0.079     1.988     2.205
    21   1 H        0.924     0.088     1.900     2.155
    22   1 H        0.924     0.090     1.876     2.142
    23   1 H        0.925     0.094     1.842     2.123
    24   1 H        0.925     0.091     1.866     2.136
    25   1 H        0.925     0.083     1.949     2.183
    26   1 H        0.924     0.086     1.920     2.167
    27   1 H        0.924     0.098     1.807     2.102

Wiberg/Mayer (AO) data.
largest (>0.10) Wiberg bond orders for each atom

     #   Z sym  total        # sym  WBO       # sym  WBO       # sym  WBO
 ---------------------------------------------------------------------------
     1   6 C    3.988 --     2 C    1.029    13 H    0.984    11 H    0.984
                            12 H    0.970
     2   6 C    3.955 --     1 C    1.029    15 H    0.966     3 S    0.960
                            14 H    0.960
     3  16 S    2.390 --     4 C    1.117     2 C    0.960
     4   6 C    3.969 --     8 N    1.368     5 N    1.327     3 S    1.117
     5   7 N    3.556 --     4 C    1.327     7 C    0.990     6 C    0.981
                             8 N    0.124
     6   6 C    3.950 --     5 N    0.981    18 H    0.978    16 H    0.968
                            17 H    0.967
     7   6 C    3.950 --     5 N    0.990    19 H    0.976    20 H    0.967
                            21 H    0.966
     8   7 N    3.601 --     4 C    1.368     9 C    0.989    10 C    0.982
                             5 N    0.124
     9   6 C    3.943 --     8 N    0.989    23 H    0.971    24 H    0.970
                            22 H    0.964
    10   6 C    3.946 --     8 N    0.982    25 H    0.976    26 H    0.967
                            27 H    0.966
    11   1 H    0.996 --     1 C    0.984
    12   1 H    0.994 --     1 C    0.970
    13   1 H    0.998 --     1 C    0.984
    14   1 H    0.992 --     2 C    0.960
    15   1 H    0.995 --     2 C    0.966
    16   1 H    0.993 --     6 C    0.968
    17   1 H    0.992 --     6 C    0.967
    18   1 H    0.994 --     6 C    0.978
    19   1 H    0.993 --     7 C    0.976
    20   1 H    0.993 --     7 C    0.967
    21   1 H    0.992 --     7 C    0.966
    22   1 H    0.991 --     9 C    0.964
    23   1 H    0.991 --     9 C    0.971
    24   1 H    0.992 --     9 C    0.970
    25   1 H    0.993 --    10 C    0.976
    26   1 H    0.991 --    10 C    0.967
    27   1 H    0.990 --    10 C    0.966
 ---------------------------------------------------------------------------

molecular dipole:
                 x           y           z       tot (Debye)
 q only:        6.281      -3.686       2.124
   full:        6.289      -3.529       1.949      18.988

           -------------------------------------------------
          | TOTAL ENERGY              -32.359997677515 Eh   |
          | GRADIENT NORM               0.000865343675 Eh/α |
          | HOMO-LUMO GAP               3.070909993814 eV   |
           -------------------------------------------------

 * finished run on 2024/12/20 at 06:46:39.165
