   * xtb version 6.7.1 (edcfbbe) compiled by 'conda@3ef47c1a292c' on 2024-11-25

   ID    Z sym.   atoms
    1    6 C      1-6, 8-12
    2    7 N      7
    3    1 H      13-26

          program call               : xtb C0491.xyz --opt --namespace C0491 --charge +1
          :  Hamiltonian                  GFN2-xTB          :
 * total energy  :   -33.1098295 Eh     change       -0.1864890E-09 Eh
 * total energy  :   -33.1338289 Eh     change       -0.2399942E-01 Eh
 * total energy  :   -33.1354002 Eh     change       -0.1571305E-02 Eh
 * total energy  :   -33.1352690 Eh     change        0.1312599E-03 Eh
 * total energy  :   -33.1360677 Eh     change       -0.7987413E-03 Eh
 * total energy  :   -33.1362045 Eh     change       -0.1368065E-03 Eh
 * total energy  :   -33.1363758 Eh     change       -0.1712532E-03 Eh
 * total energy  :   -33.1364646 Eh     change       -0.8879250E-04 Eh
 * total energy  :   -33.1365669 Eh     change       -0.1023581E-03 Eh
 * total energy  :   -33.1366097 Eh     change       -0.4279794E-04 Eh
 * total energy  :   -33.1368301 Eh     change       -0.6020785E-04 Eh
 * total energy  :   -33.1368835 Eh     change       -0.5342222E-04 Eh
 * total energy  :   -33.1369250 Eh     change       -0.4146232E-04 Eh
 * total energy  :   -33.1369590 Eh     change       -0.3398278E-04 Eh
 * total energy  :   -33.1369709 Eh     change       -0.1193910E-04 Eh
 * total energy  :   -33.1369718 Eh     change       -0.8956612E-06 Eh
 * total energy  :   -33.1369722 Eh     change       -0.3693656E-06 Eh
 * total energy  :   -33.1369711 Eh     change        0.1101821E-05 Eh
 * total energy  :   -33.1369756 Eh     change       -0.4501346E-05 Eh
   *** GEOMETRY OPTIMIZATION CONVERGED AFTER 24 ITERATIONS ***

 final structure:
================
26
 xtb: 6.7.1 (edcfbbe)
C            0.94819014240527        0.41114459176878       -0.18903342794831
C           -0.22558300025356        0.18782892252534       -0.13365200456634
C           -1.65418361655848       -0.06286784674968       -0.09626630808370
C           -2.45981717430511        1.24317598956827       -0.13500644564194
C           -2.07464956446748        2.15719599100038       -1.29689161704112
C           -2.42505896020372        1.59822172517000       -2.68428596326243
N           -3.86379938654880        1.53065717165469       -2.86265759346661
C           -4.52470676497188        0.40325683907838       -2.58049051602795
C           -5.90094839423928        0.33866567891069       -2.66798397678706
C           -6.61004298467621        1.46700186206330       -3.05665598415407
C           -5.90520640512887        2.62889148687643       -3.34699784017540
C           -4.53076581972681        2.62891909913666       -3.23656285443903
H            1.98173987464359        0.58937180705483       -0.20974391934683
H           -1.91575878672588       -0.72109716014256       -0.93112220298077
H           -1.88993747397341       -0.59806050066505        0.82674232708972
H           -3.52935087315080        1.01332707737771       -0.15635871826113
H           -2.26470733170573        1.79047602839243        0.78833769986870
H           -2.55461000570101        3.12968174293288       -1.17035922163031
H           -0.99418170981391        2.30662169446307       -1.27112454681485
H           -2.00506621386328        2.25037118215257       -3.45190985092310
H           -1.99654548462313        0.60276673549490       -2.80263487133626
H           -3.93933821151249       -0.45800709725869       -2.29477563991236
H           -6.40679898456678       -0.58483300799455       -2.43620080101353
H           -7.68543426873498        1.44156323579737       -3.13546029789527
H           -6.41553222524840        3.52639013694162       -3.65713216387321
H           -3.94612637636073        3.51131661444708       -3.45190326137967

          :  Hamiltonian                  GFN2-xTB          :
         :: total energy             -33.136975555157 Eh    ::
         :: gradient norm              0.000375839826 Eh/a0 ::
         :: HOMO-LUMO gap              1.157350936155 eV    ::
         :: SCC energy               -33.762355898503 Eh    ::
         :: -> dispersion             -0.020809730131 Eh    ::
         :: repulsion energy           0.625380343346 Eh    ::

    * Orbital Energies and Occupations

         #    Occupation            Energy/Eh            Energy/eV
      -------------------------------------------------------------
         1        2.0000           -0.8831708             -24.0323
       ...           ...                  ...                  ...
        19        2.0000           -0.6366182             -17.3233
        20        2.0000           -0.6303791             -17.1535
        21        2.0000           -0.6268128             -17.0564
        22        2.0000           -0.6242778             -16.9875
        23        2.0000           -0.6198878             -16.8680
        24        2.0000           -0.6170509             -16.7908
        25        2.0000           -0.6134846             -16.6938
        26        2.0000           -0.5883139             -16.0088
        27        2.0000           -0.5799924             -15.7824
        28        2.0000           -0.5707505             -15.5309
        29        2.0000           -0.5596164             -15.2279
        30        2.0000           -0.5076993             -13.8152
        31        2.0000           -0.5040484             -13.7159 (HOMO)
        32                         -0.4615165             -12.5585 (LUMO)
        33                         -0.4314234             -11.7396
        34                         -0.3106589              -8.4535
        35                         -0.2497193              -6.7952
        36                         -0.2438279              -6.6349
        37                         -0.1717563              -4.6737
        38                         -0.0841956              -2.2911
        39                         -0.0687837              -1.8717
        40                         -0.0497962              -1.3550
        41                         -0.0375413              -1.0216
        42                         -0.0354298              -0.9641
       ...                                ...                  ...
        62                          1.3418060              36.5124
      -------------------------------------------------------------
                  HL-Gap            0.0425319 Eh            1.1574 eV

     #   Z          covCN         q      C6AA      α(0)
     1   6 C        1.909    -0.102    33.931     9.407
     2   6 C        1.966    -0.032    31.912     9.123
     3   6 C        3.803    -0.044    21.362     6.580
     4   6 C        3.805    -0.061    21.667     6.627
     5   6 C        3.801    -0.070    21.848     6.655
     6   6 C        3.759    -0.037    21.286     6.577
     7   7 N        2.750     0.116    19.257     6.518
     8   6 C        2.892     0.034    27.238     8.557
     9   6 C        2.916    -0.011    28.282     8.721
    10   6 C        2.925     0.014    27.707     8.632
    11   6 C        2.916    -0.009    28.253     8.716
    12   6 C        2.894     0.033    27.273     8.562
    13   1 H        0.928     0.093     1.854     2.129
    14   1 H        0.924     0.040     2.456     2.451
    15   1 H        0.924     0.069     2.095     2.264
    16   1 H        0.924     0.026     2.640     2.541
    17   1 H        0.924     0.067     2.122     2.278
    18   1 H        0.924     0.053     2.278     2.360
    19   1 H        0.924     0.090     1.883     2.146
    20   1 H        0.924     0.091     1.871     2.139
    21   1 H        0.924     0.098     1.805     2.101
    22   1 H        0.926     0.110     1.693     2.035
    23   1 H        0.926     0.108     1.713     2.047
    24   1 H        0.926     0.108     1.716     2.048
    25   1 H        0.926     0.109     1.707     2.043
    26   1 H        0.926     0.109     1.701     2.040

Wiberg/Mayer (AO) data.
largest (>0.10) Wiberg bond orders for each atom

     #   Z sym  total        # sym  WBO       # sym  WBO       # sym  WBO
 ---------------------------------------------------------------------------
     1   6 C    3.971 --     2 C    2.901    13 H    0.968
     2   6 C    3.979 --     1 C    2.901     3 C    1.049
     3   6 C    3.996 --     2 C    1.049     4 C    0.989    14 H    0.955
                            15 H    0.954
     4   6 C    3.994 --     5 C    1.011     3 C    0.989    16 H    0.973
                            17 H    0.970
     5   6 C    3.980 --     4 C    1.011    18 H    0.973     6 C    0.972
                            19 H    0.958
     6   6 C    3.932 --     5 C    0.972     7 N    0.964    20 H    0.962
                            21 H    0.960
     7   7 N    3.770 --     8 C    1.328    12 C    1.324     6 C    0.964
     8   6 C    3.958 --     9 C    1.456     7 N    1.328    22 H    0.952
     9   6 C    3.981 --     8 C    1.456    10 C    1.426    23 H    0.959
    10   6 C    3.969 --     9 C    1.426    11 C    1.417    24 H    0.961
    11   6 C    3.981 --    12 C    1.467    10 C    1.417    25 H    0.959
    12   6 C    3.958 --    11 C    1.467     7 N    1.324    26 H    0.954
    13   1 H    0.991 --     1 C    0.968
    14   1 H    0.998 --     3 C    0.955
    15   1 H    0.995 --     3 C    0.954
    16   1 H    0.999 --     4 C    0.973
    17   1 H    0.994 --     4 C    0.970
    18   1 H    0.997 --     5 C    0.973
    19   1 H    0.990 --     5 C    0.958
    20   1 H    0.991 --     6 C    0.962
    21   1 H    0.990 --     6 C    0.960
    22   1 H    0.988 --     8 C    0.952
    23   1 H    0.988 --     9 C    0.959
    24   1 H    0.988 --    10 C    0.961
    25   1 H    0.988 --    11 C    0.959
    26   1 H    0.988 --    12 C    0.954
 ---------------------------------------------------------------------------

molecular dipole:
                 x           y           z       tot (Debye)
 q only:       -8.139       2.860      -4.959
   full:       -8.176       2.862      -5.025      25.453

           -------------------------------------------------
          | TOTAL ENERGY              -33.136975555157 Eh   |
          | GRADIENT NORM               0.000375839826 Eh/α |
          | HOMO-LUMO GAP               1.157350936155 eV   |
           -------------------------------------------------

 * finished run on 2024/12/20 at 06:46:33.317
