   * xtb version 6.7.1 (edcfbbe) compiled by 'conda@3ef47c1a292c' on 2024-11-25

   ID    Z sym.   atoms
    1    6 C      1-3, 5-7, 9-13
    2    7 N      4, 8, 14
    3    8 O      15, 16
    4    1 H      17-30

          program call               : xtb C0498.xyz --opt --namespace C0498 --charge +1
          :  Hamiltonian                  GFN2-xTB          :
 * total energy  :   -47.1415396 Eh     change       -0.1105533E-08 Eh
 * total energy  :   -47.1489180 Eh     change       -0.7378376E-02 Eh
 * total energy  :   -47.1501236 Eh     change       -0.1205591E-02 Eh
 * total energy  :   -47.1502327 Eh     change       -0.1090765E-03 Eh
 * total energy  :   -47.1503171 Eh     change       -0.8446906E-04 Eh
 * total energy  :   -47.1503477 Eh     change       -0.3055838E-04 Eh
 * total energy  :   -47.1503805 Eh     change       -0.3285179E-04 Eh
 * total energy  :   -47.1504172 Eh     change       -0.3668583E-04 Eh
 * total energy  :   -47.1504406 Eh     change       -0.2335793E-04 Eh
 * total energy  :   -47.1504713 Eh     change       -0.3071444E-04 Eh
 * total energy  :   -47.1504841 Eh     change       -0.1278679E-04 Eh
 * total energy  :   -47.1504935 Eh     change       -0.9456878E-05 Eh
 * total energy  :   -47.1504993 Eh     change       -0.5774925E-05 Eh
 * total energy  :   -47.1505024 Eh     change       -0.3088848E-05 Eh
   *** GEOMETRY OPTIMIZATION CONVERGED AFTER 14 ITERATIONS ***

 final structure:
================
30
 xtb: 6.7.1 (edcfbbe)
C            1.37755992728636       -0.23526175461496        0.19250189110022
C            0.33173104708585       -0.22906718951395        1.31837168728830
C            0.68725781742077        0.75942720782079        2.36372816960845
N            1.37423281146939        0.47753406052844        3.48115837516663
C            1.85407435285793       -0.81521986961810        3.90137722606860
C            1.53958079042563        1.64183920061846        4.20032014677006
C            0.92955875311661        2.66295142182606        3.44670461633492
N            0.41291243263364        2.06789693386002        2.31431288809244
C           -0.27402514484691        2.79740602307380        1.28023778456144
C            0.92285448036524        3.97928089864714        3.87947389579023
C            1.54410266083512        4.22099471959490        5.09159778836908
C            2.14845991628211        3.21598806988476        5.85327348823488
C            2.15548550666765        1.90754663127312        5.41939775834704
N            1.56551556638013        5.59532563520888        5.59472629166378
O            2.11276110481221        5.78167771728308        6.64969768171538
O            1.03042858343315        6.42754990735572        4.90558799057488
H            1.43434494854746        0.73383808560952       -0.29518487549916
H            1.09977202165637       -0.97600167082668       -0.55079032817287
H            2.36327655007158       -0.48729731863109        0.57453194697640
H           -0.64638859174719        0.01264542952226        0.89991679804382
H            0.26209255915282       -1.22268140104065        1.76076893198190
H            2.74766418201362       -0.68149665433460        4.50753171687076
H            1.09872263681284       -1.32914912759438        4.49925213219037
H            2.10887377350390       -1.42872920513107        3.04056867106719
H           -1.01065549196831        3.46045563165181        1.73381538955536
H            0.43657746204648        3.40210013573788        0.71373329677965
H           -0.78052294091491        2.11807023815179        0.60023799052981
H            0.47250517617815        4.79096734007990        3.32981265766471
H            2.60817815388523        3.49357407891461        6.79005943325976
H            2.61570895453782        1.13306482466280        6.00964855906578

          :  Hamiltonian                  GFN2-xTB          :
         :: total energy             -47.150502405631 Eh    ::
         :: gradient norm              0.000333296492 Eh/a0 ::
         :: HOMO-LUMO gap              2.899265297419 eV    ::
         :: SCC energy               -47.787847626816 Eh    ::
         :: -> dispersion             -0.028065101507 Eh    ::
         :: repulsion energy           0.637345221186 Eh    ::

    * Orbital Energies and Occupations

         #    Occupation            Energy/Eh            Energy/eV
      -------------------------------------------------------------
         1        2.0000           -0.8993706             -24.4731
       ...           ...                  ...                  ...
        30        2.0000           -0.6474111             -17.6170
        31        2.0000           -0.6411121             -17.4455
        32        2.0000           -0.6293267             -17.1249
        33        2.0000           -0.6239725             -16.9792
        34        2.0000           -0.6150807             -16.7372
        35        2.0000           -0.6043362             -16.4448
        36        2.0000           -0.6004105             -16.3380
        37        2.0000           -0.5990527             -16.3011
        38        2.0000           -0.5794924             -15.7688
        39        2.0000           -0.5768621             -15.6972
        40        2.0000           -0.5690714             -15.4852
        41        2.0000           -0.5607695             -15.2593
        42        2.0000           -0.5500331             -14.9672 (HOMO)
        43                         -0.4434871             -12.0679 (LUMO)
        44                         -0.4212919             -11.4639
        45                         -0.3802560             -10.3473
        46                         -0.3630112              -9.8780
        47                         -0.2579184              -7.0183
        48                         -0.1988090              -5.4099
        49                         -0.1646250              -4.4797
        50                         -0.1282091              -3.4887
        51                         -0.0860562              -2.3417
        52                         -0.0666150              -1.8127
        53                         -0.0617285              -1.6797
       ...                                ...                  ...
        78                          0.5122548              13.9392
      -------------------------------------------------------------
                  HL-Gap            0.1065460 Eh            2.8993 eV

     #   Z          covCN         q      C6AA      α(0)
     1   6 C        3.754    -0.116    22.770     6.804
     2   6 C        3.803    -0.074    21.906     6.663
     3   6 C        3.081     0.119    25.305     8.247
     4   7 N        2.830     0.024    20.818     6.777
     5   6 C        3.690    -0.078    22.180     6.740
     6   6 C        3.094     0.043    26.916     8.503
     7   6 C        3.110     0.041    26.935     8.503
     8   7 N        2.826     0.028    20.757     6.767
     9   6 C        3.691    -0.078    22.187     6.741
    10   6 C        2.909    -0.030    28.739     8.790
    11   6 C        2.923     0.011    27.773     8.642
    12   6 C        2.924    -0.017    28.433     8.744
    13   6 C        2.910    -0.029    28.719     8.787
    14   7 N        2.758     0.561    13.367     5.430
    15   8 O        0.929    -0.344    20.561     6.081
    16   8 O        0.930    -0.357    20.809     6.118
    17   1 H        0.925     0.061     2.182     2.310
    18   1 H        0.925     0.082     1.956     2.187
    19   1 H        0.925     0.059     2.214     2.327
    20   1 H        0.924     0.087     1.911     2.162
    21   1 H        0.925     0.087     1.910     2.161
    22   1 H        0.925     0.102     1.766     2.078
    23   1 H        0.924     0.098     1.808     2.103
    24   1 H        0.925     0.098     1.804     2.100
    25   1 H        0.925     0.103     1.759     2.074
    26   1 H        0.924     0.101     1.772     2.082
    27   1 H        0.925     0.098     1.804     2.101
    28   1 H        0.926     0.112     1.679     2.026
    29   1 H        0.926     0.118     1.626     1.994
    30   1 H        0.926     0.088     1.900     2.156

Wiberg/Mayer (AO) data.
largest (>0.10) Wiberg bond orders for each atom

     #   Z sym  total        # sym  WBO       # sym  WBO       # sym  WBO
 ---------------------------------------------------------------------------
     1   6 C    3.976 --    19 H    0.986    17 H    0.986    18 H    0.978
                             2 C    0.977
     2   6 C    3.978 --     3 C    1.030     1 C    0.977    21 H    0.960
                            20 H    0.952
     3   6 C    3.945 --     8 N    1.337     4 N    1.322     2 C    1.030
     4   7 N    3.667 --     3 C    1.322     6 C    1.136     5 C    0.988
     5   6 C    3.935 --     4 N    0.988    24 H    0.970    22 H    0.969
                            23 H    0.962
     6   6 C    3.959 --    13 C    1.340     7 C    1.269     4 N    1.136
     7   6 C    3.959 --    10 C    1.354     6 C    1.269     8 N    1.127
     8   7 N    3.672 --     3 C    1.337     7 C    1.127     9 C    0.989
     9   6 C    3.934 --     8 N    0.989    27 H    0.969    25 H    0.967
                            26 H    0.961
    10   6 C    3.978 --    11 C    1.441     7 C    1.354    28 H    0.951
                            13 C    0.116
    11   6 C    3.971 --    10 C    1.441    12 C    1.351    14 N    0.933
    12   6 C    3.976 --    13 C    1.493    11 C    1.351    29 H    0.952
    13   6 C    3.983 --    12 C    1.493     6 C    1.340    30 H    0.960
                            10 C    0.116
    14   7 N    3.919 --    15 O    1.481    16 O    1.469    11 C    0.933
    15   8 O    1.976 --    14 N    1.481    16 O    0.386
    16   8 O    1.963 --    14 N    1.469    15 O    0.386
    17   1 H    0.996 --     1 C    0.986
    18   1 H    0.992 --     1 C    0.978
    19   1 H    0.997 --     1 C    0.986
    20   1 H    0.991 --     2 C    0.952
    21   1 H    0.992 --     2 C    0.960
    22   1 H    0.989 --     5 C    0.969
    23   1 H    0.989 --     5 C    0.962
    24   1 H    0.990 --     5 C    0.970
    25   1 H    0.989 --     9 C    0.967
    26   1 H    0.989 --     9 C    0.961
    27   1 H    0.990 --     9 C    0.969
    28   1 H    0.987 --    10 C    0.951
    29   1 H    0.986 --    12 C    0.952
    30   1 H    0.991 --    13 C    0.960
 ---------------------------------------------------------------------------

molecular dipole:
                 x           y           z       tot (Debye)
 q only:        1.764       0.665       4.589
   full:        1.712       0.542       4.549      12.430

           -------------------------------------------------
          | TOTAL ENERGY              -47.150502405631 Eh   |
          | GRADIENT NORM               0.000333296492 Eh/α |
          | HOMO-LUMO GAP               2.899265297419 eV   |
           -------------------------------------------------

 * finished run on 2024/12/20 at 06:46:43.690
