   * xtb version 6.7.1 (edcfbbe) compiled by 'conda@3ef47c1a292c' on 2024-11-25

   ID    Z sym.   atoms
    1    6 C      1-3, 6, 8-14
    2    7 N      4, 5, 7
    3   16 S      15
    4    9 F      16-24
    5    1 H      25-41

          program call               : xtb C0493.xyz --opt --namespace C0493 --charge +1
          :  Hamiltonian                  GFN2-xTB          :
 * total energy  :   -66.9494647 Eh     change       -0.6212986E-10 Eh
 * total energy  :   -85.4715022 Eh     change       -0.1852204E+02 Eh
 * total energy  :   -85.8833400 Eh     change       -0.4118379E+00 Eh
 * total energy  :   -86.1015299 Eh     change       -0.2181898E+00 Eh
 * total energy  :   -86.2445574 Eh     change       -0.1430275E+00 Eh
 * total energy  :   -86.3344877 Eh     change       -0.8993030E-01 Eh
 * total energy  :   -86.3937168 Eh     change       -0.5922918E-01 Eh
 * total energy  :   -86.4362302 Eh     change       -0.4251333E-01 Eh
 * total energy  :   -86.4698874 Eh     change       -0.3365720E-01 Eh
 * total energy  :   -86.4953910 Eh     change       -0.2550364E-01 Eh
 * total energy  :   -86.5814445 Eh     change       -0.6916569E-04 Eh
 * total energy  :   -86.5814905 Eh     change       -0.4607718E-04 Eh
 * total energy  :   -86.5815120 Eh     change       -0.2150441E-04 Eh
 * total energy  :   -86.5815275 Eh     change       -0.1544131E-04 Eh
 * total energy  :   -86.5815378 Eh     change       -0.1028285E-04 Eh
 * total energy  :   -86.5815496 Eh     change       -0.1180845E-04 Eh
 * total energy  :   -86.5815565 Eh     change       -0.6887998E-05 Eh
 * total energy  :   -86.5815623 Eh     change       -0.5821727E-05 Eh
 * total energy  :   -86.5815668 Eh     change       -0.4490314E-05 Eh
   *** GEOMETRY OPTIMIZATION CONVERGED AFTER 176 ITERATIONS ***

 final structure:
================
41
 xtb: 6.7.1 (edcfbbe)
C            3.34638258550282       -1.26824784759665        0.48256304739821
C            2.31872447484073       -0.69349983453448       -0.48092362943344
C            0.90162801258007       -1.22193046350017       -0.22186845165167
N            0.43673524943673       -0.88118211231174        1.09763036305574
N            0.78069023239934       -1.61786150975276        2.14607766738808
C            0.24544325512369       -1.05024568633941        3.18147689152443
N           -0.45118791514812        0.05839996052016        2.81482600336664
C           -0.31086186434133        0.13795216851049        1.48570718153098
C           -1.22716347087497        0.95951199877128        3.64411031139930
C           -0.74992976112773        0.99260848098563        5.09496585505012
C            0.65878489086100        1.56986528911444        5.26578999967777
C            0.64582832659940        3.10000293710197        5.21980155032732
C            2.00413109201522        3.72217560667863        5.51498999682908
C            3.09006964921318        3.49961677125263        4.42373589382495
S            1.76986200965506        3.12133029581042        1.13871088014303
F            1.86053730020239        1.72952760030197        2.02055526011512
F            3.16949669846858        2.66261894338738        0.36830033563108
F            0.90073881444886        2.40191303891617       -0.05205975847615
F            0.27196097777366        3.34361193245692        1.95404684979724
F            2.59511606865987        3.89119376295752        3.19204590543658
F            4.17587430648629        4.20950841591211        4.62543855626109
F            3.43112704218748        2.22944407717020        4.28487708936096
F            1.87912285097906        5.06378772326249        5.64643804406009
F            2.51695450403883        3.26633442102127        6.67822568312698
H            3.15940659578779       -0.94413750935462        1.50284665936615
H            4.33755432038677       -0.92706124501351        0.20072312206173
H            3.33660876836821       -2.35434470788207        0.45772026395298
H            2.32222451389818        0.39313707915979       -0.42280117789920
H            2.57848611254033       -0.97377566794483       -1.50160464077753
H            0.20564979587817       -0.80663327652934       -0.95119058000289
H            0.90597988573106       -2.31214673660279       -0.28306424067743
H            0.35103899047312       -1.42248484560301        4.17895799545926
H           -0.71847636107913        0.90352852614115        0.85520162609873
H           -1.16845018000761        1.95222147906980        3.19586464949815
H           -2.27142631160322        0.63166197003725        3.61659183859686
H           -1.46033105357573        1.59818066469501        5.65834821170463
H           -0.78768103649660       -0.01171195245370        5.51658132109577
H            1.05315702786665        1.25641124873369        6.23341387206696
H            1.31705380975508        1.17206335450005        4.49347111632913
H            0.30270025934724        3.47510080218851        4.25600792119288
H           -0.02538046728447        3.48251484676620        5.99327051618769

          :  Hamiltonian                  GFN2-xTB          :
         :: total energy             -86.581566781684 Eh    ::
         :: gradient norm              0.000990364432 Eh/a0 ::
         :: HOMO-LUMO gap              3.675943339111 eV    ::
         :: SCC energy               -87.177124680755 Eh    ::
         :: -> dispersion             -0.042028039616 Eh    ::
         :: repulsion energy           0.595557899070 Eh    ::

    * Orbital Energies and Occupations

         #    Occupation            Energy/Eh            Energy/eV
      -------------------------------------------------------------
         1        2.0000           -1.0399065             -28.2973
       ...           ...                  ...                  ...
        60        2.0000           -0.6233681             -16.9627
        61        2.0000           -0.6144866             -16.7210
        62        2.0000           -0.6048608             -16.4591
        63        2.0000           -0.6013768             -16.3643
        64        2.0000           -0.5939814             -16.1631
        65        2.0000           -0.5928059             -16.1311
        66        2.0000           -0.5898679             -16.0511
        67        2.0000           -0.5862707             -15.9532
        68        2.0000           -0.5804630             -15.7952
        69        2.0000           -0.5755901             -15.6626
        70        2.0000           -0.5661032             -15.4045
        71        2.0000           -0.5490855             -14.9414
        72        2.0000           -0.5415982             -14.7376 (HOMO)
        73                         -0.4065098             -11.0617 (LUMO)
        74                         -0.3845547             -10.4643
        75                         -0.3343685              -9.0986
        76                         -0.1986004              -5.4042
        77                         -0.1860336              -5.0622
        78                         -0.1847859              -5.0283
        79                         -0.1614630              -4.3936
        80                         -0.1500561              -4.0832
        81                         -0.1364831              -3.7139
        82                         -0.1318566              -3.5880
        83                         -0.1213154              -3.3012
       ...                                ...                  ...
       118                          0.6214599              16.9108
      -------------------------------------------------------------
                  HL-Gap            0.1350884 Eh            3.6759 eV

     #   Z          covCN         q      C6AA      α(0)
     1   6 C        3.752    -0.123    22.912     6.826
     2   6 C        3.801    -0.070    21.833     6.653
     3   6 C        3.743    -0.038    21.332     6.589
     4   7 N        3.059     0.163    18.495     6.387
     5   7 N        2.048    -0.143    24.788     7.385
     6   6 C        3.152     0.082    25.913     8.326
     7   7 N        2.853     0.056    20.260     6.685
     8   6 C        3.075     0.048    26.839     8.494
     9   6 C        3.739    -0.036    21.293     6.584
    10   6 C        3.802    -0.078    21.986     6.676
    11   6 C        3.801    -0.077    21.974     6.674
    12   6 C        3.804    -0.098    22.359     6.732
    13   6 C        3.518     0.317    16.945     6.072
    14   6 C        3.328     0.487    17.370     6.617
    15  16 S        3.351     1.977    82.764    15.312
    16   9 F        0.787    -0.469    14.418     4.485
    17   9 F        0.786    -0.513    15.039     4.581
    18   9 F        0.787    -0.456    14.254     4.460
    19   9 F        0.782    -0.568    15.830     4.700
    20   9 F        0.999    -0.249    11.743     4.049
    21   9 F        0.791    -0.139    10.620     3.850
    22   9 F        0.791    -0.163    10.858     3.892
    23   9 F        0.790    -0.193    11.165     3.947
    24   9 F        0.789    -0.187    11.102     3.936
    25   1 H        0.925     0.048     2.351     2.398
    26   1 H        0.925     0.067     2.119     2.276
    27   1 H        0.925     0.058     2.224     2.332
    28   1 H        0.925     0.071     2.071     2.251
    29   1 H        0.925     0.076     2.021     2.223
    30   1 H        0.924     0.088     1.902     2.157
    31   1 H        0.924     0.110     1.701     2.039
    32   1 H        0.927     0.116     1.644     2.005
    33   1 H        0.926     0.136     1.493     1.911
    34   1 H        0.924     0.112     1.678     2.026
    35   1 H        0.924     0.093     1.848     2.126
    36   1 H        0.924     0.084     1.939     2.178
    37   1 H        0.925     0.071     2.079     2.255
    38   1 H        0.924     0.080     1.979     2.200
    39   1 H        0.925     0.062     2.180     2.309
    40   1 H        0.925     0.094     1.845     2.124
    41   1 H        0.924     0.104     1.745     2.066

Wiberg/Mayer (AO) data.
largest (>0.10) Wiberg bond orders for each atom

     #   Z sym  total        # sym  WBO       # sym  WBO       # sym  WBO
 ---------------------------------------------------------------------------
     1   6 C    3.990 --     2 C    1.023    27 H    0.985    25 H    0.984
                            26 H    0.981
     2   6 C    3.979 --     1 C    1.023     3 C    0.973    28 H    0.972
                            29 H    0.966
     3   6 C    3.926 --     2 C    0.973     4 N    0.966    30 H    0.965
                            31 H    0.956
     4   7 N    3.755 --     8 C    1.413     5 N    1.211     3 C    0.966
     5   7 N    3.027 --     6 C    1.586     4 N    1.211
     6   6 C    3.950 --     5 N    1.586     7 N    1.243    32 H    0.952
     7   7 N    3.713 --     8 C    1.334     6 C    1.243     9 C    0.963
     8   6 C    3.948 --     4 N    1.413     7 N    1.334    33 H    0.947
     9   6 C    3.936 --    10 C    1.005     7 N    0.963    34 H    0.955
                            35 H    0.951
    10   6 C    3.986 --    11 C    1.007     9 C    1.005    37 H    0.970
                            36 H    0.966
    11   6 C    3.988 --    10 C    1.007    12 C    1.004    39 H    0.972
                            38 H    0.972
    12   6 C    3.966 --    11 C    1.004    13 C    0.964    40 H    0.962
                            41 H    0.960
    13   6 C    3.863 --    12 C    0.964    24 F    0.961    23 F    0.957
                            14 C    0.893
    14   6 C    3.828 --    21 F    1.012    22 F    0.988    13 C    0.893
                            20 F    0.870
    15  16 S    3.295 --    18 F    0.869    16 F    0.846    17 F    0.799
                            19 F    0.706
    16   9 F    0.888 --    15 S    0.846
    17   9 F    0.834 --    15 S    0.799
    18   9 F    0.910 --    15 S    0.869
    19   9 F    0.747 --    15 S    0.706
    20   9 F    1.064 --    14 C    0.870
    21   9 F    1.147 --    14 C    1.012
    22   9 F    1.119 --    14 C    0.988
    23   9 F    1.070 --    13 C    0.957
    24   9 F    1.078 --    13 C    0.961
    25   1 H    0.998 --     1 C    0.984
    26   1 H    0.995 --     1 C    0.981
    27   1 H    0.997 --     1 C    0.985
    28   1 H    0.995 --     2 C    0.972
    29   1 H    0.994 --     2 C    0.966
    30   1 H    0.992 --     3 C    0.965
    31   1 H    0.988 --     3 C    0.956
    32   1 H    0.986 --     6 C    0.952
    33   1 H    0.982 --     8 C    0.947
    34   1 H    0.987 --     9 C    0.955
    35   1 H    0.991 --     9 C    0.951
    36   1 H    0.993 --    10 C    0.966
    37   1 H    0.995 --    10 C    0.970
    38   1 H    0.994 --    11 C    0.972
    39   1 H    0.996 --    11 C    0.972
    40   1 H    0.991 --    12 C    0.962
    41   1 H    0.989 --    12 C    0.960
 ---------------------------------------------------------------------------

molecular dipole:
                 x           y           z       tot (Debye)
 q only:        0.011       1.369       4.112
   full:       -0.238       1.775       4.034      11.218

           -------------------------------------------------
          | TOTAL ENERGY              -86.581566781684 Eh   |
          | GRADIENT NORM               0.000990364432 Eh/α |
          | HOMO-LUMO GAP               3.675943339111 eV   |
           -------------------------------------------------

 * finished run on 2024/12/20 at 06:46:38.440
