   * xtb version 6.7.1 (edcfbbe) compiled by 'conda@3ef47c1a292c' on 2024-11-25

   ID    Z sym.   atoms
    1    6 C      1-4, 8-15
    2    7 N      5-7
    3    1 H      16-33

          program call               : xtb C0499.xyz --opt --namespace C0499 --charge +1
          :  Hamiltonian                  GFN2-xTB          :
 * total energy  :   -43.2500162 Eh     change       -0.1648047E-08 Eh
 * total energy  :   -43.2601068 Eh     change       -0.1009067E-01 Eh
 * total energy  :   -43.2613393 Eh     change       -0.1232436E-02 Eh
 * total energy  :   -43.2614670 Eh     change       -0.1277233E-03 Eh
 * total energy  :   -43.2616281 Eh     change       -0.1610948E-03 Eh
 * total energy  :   -43.2617136 Eh     change       -0.8556157E-04 Eh
 * total energy  :   -43.2618234 Eh     change       -0.1097710E-03 Eh
 * total energy  :   -43.2619389 Eh     change       -0.1154683E-03 Eh
 * total energy  :   -43.2620085 Eh     change       -0.6965125E-04 Eh
 * total energy  :   -43.2620545 Eh     change       -0.4595260E-04 Eh
 * total energy  :   -43.2622619 Eh     change       -0.4932340E-04 Eh
 * total energy  :   -43.2622866 Eh     change       -0.2473450E-04 Eh
 * total energy  :   -43.2623127 Eh     change       -0.2610342E-04 Eh
 * total energy  :   -43.2623348 Eh     change       -0.2205038E-04 Eh
 * total energy  :   -43.2623524 Eh     change       -0.1767337E-04 Eh
 * total energy  :   -43.2623604 Eh     change       -0.8002168E-05 Eh
 * total energy  :   -43.2623718 Eh     change       -0.1134199E-04 Eh
 * total energy  :   -43.2623770 Eh     change       -0.5227795E-05 Eh
 * total energy  :   -43.2623815 Eh     change       -0.4541146E-05 Eh
   *** GEOMETRY OPTIMIZATION CONVERGED AFTER 23 ITERATIONS ***

 final structure:
================
33
 xtb: 6.7.1 (edcfbbe)
C            1.68453829405671       -0.60566493148279        0.72901510044820
C            0.92574385228426       -0.12615122771173        1.96123593094218
C            1.12816007297212        1.36391779112753        2.23985130529680
C            0.38713707786290        2.28755500555027        1.26313568826760
N           -1.03631893269259        2.22820469049089        1.47134094095788
N           -1.59422899878154        2.95137065066043        2.39273334941982
N           -2.86499540323559        2.69353118239535        2.41972809629342
C           -3.18735891880721        1.75464932856173        1.48347365432540
C           -1.96305398064759        1.44328126921840        0.84700939215851
C           -1.90382098336371        0.51608753499007       -0.19372030049382
C           -3.09066503721205       -0.07565459644516       -0.55590445700095
C           -4.30629311227988        0.23332695907714        0.07896405970388
C           -4.38379773758316        1.14777980415300        1.10274298752942
C           -3.73383778711988        3.32906943906078        3.37817426824286
C           -4.01065900473357        2.40190227819715        4.55743508996051
H            1.38572119044970       -0.07106742457592       -0.17018819407158
H            1.50324916823363       -1.66477652483636        0.56689943444415
H            2.75307362314036       -0.46228466911345        0.86551107552201
H           -0.13887090980656       -0.35231522472284        1.85694754633845
H            1.28747133465362       -0.68356839943166        2.82629968980235
H            0.80007243892846        1.60358287709364        3.25332481199991
H            2.19107927378794        1.59719823166891        2.17124010314259
H            0.69619608880622        3.32001380419453        1.43666011237399
H            0.59738016733609        2.01228210255262        0.22968138414728
H           -0.97782662773731        0.27245985862224       -0.68637083479488
H           -3.09547037799810       -0.80025045300650       -1.35457469528130
H           -5.20334525189307       -0.26425786034779       -0.25361815997980
H           -5.31782054424016        1.38566398304425        1.58373554648915
H           -3.22814078182369        4.23448655969626        3.71686227187163
H           -4.66406878207304        3.59770606572528        2.87283961423588
H           -3.08834237284506        2.16194905344800        5.07940730581024
H           -4.67832897127906        2.89995130142923        5.25352116758646
H           -4.48117806636020        1.47861154071515        4.22993671431389

          :  Hamiltonian                  GFN2-xTB          :
         :: total energy             -43.262381542248 Eh    ::
         :: gradient norm              0.000655815819 Eh/a0 ::
         :: HOMO-LUMO gap              2.681647915156 eV    ::
         :: SCC energy               -43.927986856503 Eh    ::
         :: -> dispersion             -0.029224114315 Eh    ::
         :: repulsion energy           0.665605314255 Eh    ::

    * Orbital Energies and Occupations

         #    Occupation            Energy/Eh            Energy/eV
      -------------------------------------------------------------
         1        2.0000           -0.9100252             -24.7630
       ...           ...                  ...                  ...
        28        2.0000           -0.6073844             -16.5278
        29        2.0000           -0.6021857             -16.3863
        30        2.0000           -0.5985182             -16.2865
        31        2.0000           -0.5963211             -16.2267
        32        2.0000           -0.5942281             -16.1698
        33        2.0000           -0.5882112             -16.0060
        34        2.0000           -0.5868850             -15.9700
        35        2.0000           -0.5840271             -15.8922
        36        2.0000           -0.5756781             -15.6650
        37        2.0000           -0.5605153             -15.2524
        38        2.0000           -0.5581482             -15.1880
        39        2.0000           -0.5519922             -15.0205
        40        2.0000           -0.5439241             -14.8009 (HOMO)
        41                         -0.4453754             -12.1193 (LUMO)
        42                         -0.3791961             -10.3185
        43                         -0.3717101             -10.1147
        44                         -0.2538366              -6.9072
        45                         -0.1841233              -5.0103
        46                         -0.1457796              -3.9669
        47                         -0.0691921              -1.8828
        48                         -0.0641926              -1.7468
        49                         -0.0489658              -1.3324
        50                         -0.0311455              -0.8475
        51                         -0.0305009              -0.8300
       ...                                ...                  ...
        78                          0.5333277              14.5126
      -------------------------------------------------------------
                  HL-Gap            0.0985487 Eh            2.6816 eV

     #   Z          covCN         q      C6AA      α(0)
     1   6 C        3.752    -0.112    22.703     6.795
     2   6 C        3.800    -0.060    21.647     6.624
     3   6 C        3.802    -0.070    21.837     6.653
     4   6 C        3.743    -0.027    21.135     6.558
     5   7 N        2.984     0.125    19.102     6.491
     6   7 N        2.145    -0.097    23.658     7.217
     7   7 N        2.985     0.121    19.165     6.502
     8   6 C        3.069     0.037    27.102     8.536
     9   6 C        3.068     0.039    27.069     8.531
    10   6 C        2.906    -0.030    28.743     8.791
    11   6 C        2.926    -0.012    28.322     8.728
    12   6 C        2.927    -0.012    28.305     8.725
    13   6 C        2.906    -0.031    28.775     8.796
    14   6 C        3.742    -0.023    21.056     6.547
    15   6 C        3.753    -0.122    22.902     6.824
    16   1 H        0.925     0.031     2.573     2.508
    17   1 H        0.925     0.052     2.296     2.369
    18   1 H        0.925     0.053     2.286     2.364
    19   1 H        0.924     0.026     2.641     2.541
    20   1 H        0.924     0.058     2.228     2.334
    21   1 H        0.924     0.057     2.234     2.337
    22   1 H        0.924     0.078     2.004     2.214
    23   1 H        0.924     0.096     1.821     2.111
    24   1 H        0.925     0.090     1.880     2.144
    25   1 H        0.926     0.080     1.975     2.198
    26   1 H        0.926     0.086     1.920     2.167
    27   1 H        0.926     0.086     1.921     2.168
    28   1 H        0.926     0.077     2.009     2.216
    29   1 H        0.924     0.101     1.779     2.086
    30   1 H        0.924     0.088     1.898     2.155
    31   1 H        0.925     0.068     2.103     2.268
    32   1 H        0.925     0.085     1.933     2.174
    33   1 H        0.925     0.063     2.166     2.301

Wiberg/Mayer (AO) data.
largest (>0.10) Wiberg bond orders for each atom

     #   Z sym  total        # sym  WBO       # sym  WBO       # sym  WBO
 ---------------------------------------------------------------------------
     1   6 C    3.993 --     2 C    1.021    18 H    0.986    17 H    0.985
                            16 H    0.983
     2   6 C    3.994 --     1 C    1.021     3 C    1.009    19 H    0.975
                            20 H    0.973
     3   6 C    3.981 --     2 C    1.009     4 C    0.975    21 H    0.974
                            22 H    0.966
     4   6 C    3.934 --     3 C    0.975     5 N    0.969    23 H    0.960
                            24 H    0.959
     5   7 N    3.726 --     6 N    1.333     9 C    1.184     4 C    0.969
                             7 N    0.122
     6   7 N    3.016 --     5 N    1.333     7 N    1.331
     7   7 N    3.725 --     6 N    1.331     8 C    1.185    14 C    0.967
                             5 N    0.122
     8   6 C    3.962 --    13 C    1.302     9 C    1.246     7 N    1.185
     9   6 C    3.962 --    10 C    1.301     8 C    1.246     5 N    1.184
    10   6 C    3.985 --    11 C    1.531     9 C    1.301    25 H    0.960
                            13 C    0.121
    11   6 C    3.984 --    10 C    1.531    12 C    1.338    26 H    0.965
    12   6 C    3.984 --    13 C    1.531    11 C    1.338    27 H    0.965
    13   6 C    3.985 --    12 C    1.531     8 C    1.302    28 H    0.963
                            10 C    0.121
    14   6 C    3.936 --    15 C    0.996     7 N    0.967    29 H    0.964
                            30 H    0.959
    15   6 C    3.979 --    14 C    0.996    31 H    0.984    33 H    0.984
                            32 H    0.976
    16   1 H    0.999 --     1 C    0.983
    17   1 H    0.997 --     1 C    0.985
    18   1 H    0.997 --     1 C    0.986
    19   1 H    0.999 --     2 C    0.975
    20   1 H    0.996 --     2 C    0.973
    21   1 H    0.997 --     3 C    0.974
    22   1 H    0.993 --     3 C    0.966
    23   1 H    0.989 --     4 C    0.960
    24   1 H    0.991 --     4 C    0.959
    25   1 H    0.993 --    10 C    0.960
    26   1 H    0.992 --    11 C    0.965
    27   1 H    0.992 --    12 C    0.965
    28   1 H    0.993 --    13 C    0.963
    29   1 H    0.989 --    14 C    0.964
    30   1 H    0.991 --    14 C    0.959
    31   1 H    0.995 --    15 C    0.984
    32   1 H    0.991 --    15 C    0.976
    33   1 H    0.996 --    15 C    0.984
 ---------------------------------------------------------------------------

molecular dipole:
                 x           y           z       tot (Debye)
 q only:       -4.053       3.317       3.203
   full:       -4.211       3.264       2.998      15.537

           -------------------------------------------------
          | TOTAL ENERGY              -43.262381542248 Eh   |
          | GRADIENT NORM               0.000655815819 Eh/α |
          | HOMO-LUMO GAP               2.681647915156 eV   |
           -------------------------------------------------

 * finished run on 2024/12/20 at 06:46:44.638
