   * xtb version 6.7.1 (edcfbbe) compiled by 'conda@3ef47c1a292c' on 2024-11-25

   ID    Z sym.   atoms
    1    6 C      1-10, 12-15
    2    7 N      11
    3    1 H      16-39

          program call               : xtb C0496.xyz --opt --namespace C0496 --charge +1
          :  Hamiltonian                  GFN2-xTB          :
 * total energy  :   -44.7243843 Eh     change       -0.2101004E-09 Eh
 * total energy  :   -44.7318532 Eh     change       -0.7468860E-02 Eh
 * total energy  :   -44.7340688 Eh     change       -0.2215662E-02 Eh
 * total energy  :   -44.7344403 Eh     change       -0.3715010E-03 Eh
 * total energy  :   -44.7347334 Eh     change       -0.2930722E-03 Eh
 * total energy  :   -44.7348388 Eh     change       -0.1054014E-03 Eh
 * total energy  :   -44.7349426 Eh     change       -0.1037792E-03 Eh
 * total energy  :   -44.7350121 Eh     change       -0.6948391E-04 Eh
 * total energy  :   -44.7351025 Eh     change       -0.9045459E-04 Eh
 * total energy  :   -44.7352046 Eh     change       -0.1020848E-03 Eh
 * total energy  :   -44.7407857 Eh     change       -0.1287395E-04 Eh
 * total energy  :   -44.7408001 Eh     change       -0.1435203E-04 Eh
 * total energy  :   -44.7408131 Eh     change       -0.1299713E-04 Eh
 * total energy  :   -44.7408240 Eh     change       -0.1091229E-04 Eh
 * total energy  :   -44.7408330 Eh     change       -0.8976317E-05 Eh
 * total energy  :   -44.7408407 Eh     change       -0.7723435E-05 Eh
 * total energy  :   -44.7408474 Eh     change       -0.6697419E-05 Eh
 * total energy  :   -44.7408527 Eh     change       -0.5275662E-05 Eh
 * total energy  :   -44.7408564 Eh     change       -0.3732723E-05 Eh
   *** GEOMETRY OPTIMIZATION CONVERGED AFTER 77 ITERATIONS ***

 final structure:
================
39
 xtb: 6.7.1 (edcfbbe)
C            0.10513119237082       -0.45469840054665        0.26659828954239
C           -0.46404465472143        0.88721834655577       -0.18748535276967
C            0.51197832913613        1.56741524536538       -1.19151592270772
C            0.71606082289991        0.72877279898025       -2.43544124577437
C           -0.20084170779254        0.69724793910081       -3.48044911394629
C            0.01238303363993       -0.11210475203985       -4.58335813220108
C            1.14532663902137       -0.90270428441283       -4.66276748329497
C            2.06668749883326       -0.87919663136470       -3.63022109125697
C            1.85246615869962       -0.06920407056744       -2.52939827767404
C            0.03894722466550        2.99794475807541       -1.48716368131101
N            1.10094081869864        3.97636837573269       -1.88577762904854
C            1.89205331532935        3.47373208070365       -3.02272420664941
C            0.43572375659743        5.23075897945453       -2.28953986663578
C            1.99802385922799        4.26818476450316       -0.75322352482268
C           -1.87301411919678        0.69067453512924       -0.73623012772325
H            0.17544301060518       -1.14558637978911       -0.56939663992353
H           -0.54439640408128       -0.89470731363559        1.01764991577402
H            1.09379757104593       -0.33574041244722        0.70412359317057
H           -0.52293639755676        1.54306668008898        0.68998600011251
H            1.46927605171883        1.60932397359756       -0.66167415584601
H           -1.10347425042239        1.28964269058480       -3.44612278913118
H           -0.71570937299011       -0.12834442410152       -5.37978168636884
H            1.30583204305862       -1.53604495913048       -5.52063824576618
H            2.95172903284488       -1.49418166539507       -3.67787652800904
H            2.57617661121199       -0.06763478415495       -1.72595241930985
H           -0.69388008282258        2.97389780077679       -2.29376076443274
H           -0.44810618884702        3.40314360158103       -0.59717881298778
H            1.23615656636069        3.21945858542339       -3.85311784306647
H            2.59755288949366        4.23601385161962       -3.34912837484710
H            2.44377466725634        2.58011220222900       -2.74096101768033
H           -0.17815977161119        5.61334222135456       -1.47592409786207
H            1.17808619663402        5.98380826295975       -2.54858233039358
H           -0.19984252244478        5.05962607343465       -3.15652270074648
H            1.42684857746341        4.65399698004771        0.08935943179590
H            2.52323607807287        3.37016808490941       -0.43723312813225
H            2.73692509908437        5.01222124028644       -1.04515338110247
H           -2.50280482291726        0.26631263186686        0.04089448443281
H           -2.32376070747009        1.62867758100719       -1.05180909545792
H           -1.86651604107917       -0.00164220777632       -1.57318204796218

          :  Hamiltonian                  GFN2-xTB          :
         :: total energy             -44.740856411411 Eh    ::
         :: gradient norm              0.000161131750 Eh/a0 ::
         :: HOMO-LUMO gap              4.728039043793 eV    ::
         :: SCC energy               -45.464950175339 Eh    ::
         :: -> dispersion             -0.035986734189 Eh    ::
         :: repulsion energy           0.724093763929 Eh    ::

    * Orbital Energies and Occupations

         #    Occupation            Energy/Eh            Energy/eV
      -------------------------------------------------------------
         1        2.0000           -0.8659288             -23.5631
       ...           ...                  ...                  ...
        30        2.0000           -0.5925738             -16.1248
        31        2.0000           -0.5834851             -15.8774
        32        2.0000           -0.5808687             -15.8062
        33        2.0000           -0.5798560             -15.7787
        34        2.0000           -0.5684449             -15.4682
        35        2.0000           -0.5593261             -15.2200
        36        2.0000           -0.5500254             -14.9670
        37        2.0000           -0.5451353             -14.8339
        38        2.0000           -0.5419721             -14.7478
        39        2.0000           -0.5271165             -14.3436
        40        2.0000           -0.5247846             -14.2801
        41        2.0000           -0.5106390             -13.8952
        42        2.0000           -0.5063256             -13.7778 (HOMO)
        43                         -0.3325733              -9.0498 (LUMO)
        44                         -0.3295555              -8.9677
        45                         -0.2279846              -6.2038
        46                         -0.2026122              -5.5134
        47                         -0.1615704              -4.3966
        48                         -0.1473024              -4.0083
        49                         -0.1414837              -3.8500
        50                         -0.0717608              -1.9527
        51                         -0.0549355              -1.4949
        52                         -0.0446729              -1.2156
        53                         -0.0268188              -0.7298
       ...                                ...                  ...
        84                          0.5577370              15.1768
      -------------------------------------------------------------
                  HL-Gap            0.1737522 Eh            4.7280 eV

     #   Z          covCN         q      C6AA      α(0)
     1   6 C        3.756    -0.114    22.735     6.798
     2   6 C        3.850    -0.010    20.717     6.474
     3   6 C        3.855    -0.036    21.177     6.545
     4   6 C        2.968    -0.002    28.073     8.691
     5   6 C        2.923    -0.044    29.095     8.846
     6   6 C        2.919    -0.028    28.702     8.785
     7   6 C        2.920    -0.025    28.630     8.774
     8   6 C        2.919    -0.026    28.654     8.778
     9   6 C        2.926    -0.042    29.043     8.838
    10   6 C        3.763    -0.044    21.409     6.595
    11   7 N        3.622     0.143    18.808     6.441
    12   6 C        3.721    -0.096    22.457     6.768
    13   6 C        3.731    -0.097    22.452     6.764
    14   6 C        3.722    -0.095    22.425     6.763
    15   6 C        3.755    -0.117    22.792     6.807
    16   1 H        0.925     0.050     2.322     2.383
    17   1 H        0.925     0.056     2.244     2.343
    18   1 H        0.925     0.039     2.461     2.453
    19   1 H        0.924     0.032     2.560     2.502
    20   1 H        0.924     0.045     2.379     2.412
    21   1 H        0.926     0.030     2.586     2.515
    22   1 H        0.926     0.046     2.372     2.409
    23   1 H        0.926     0.051     2.306     2.375
    24   1 H        0.926     0.049     2.336     2.390
    25   1 H        0.925     0.031     2.572     2.508
    26   1 H        0.925     0.089     1.888     2.149
    27   1 H        0.924     0.081     1.966     2.193
    28   1 H        0.925     0.099     1.793     2.094
    29   1 H        0.925     0.096     1.823     2.112
    30   1 H        0.925     0.105     1.738     2.061
    31   1 H        0.925     0.098     1.799     2.097
    32   1 H        0.925     0.099     1.792     2.093
    33   1 H        0.925     0.099     1.797     2.096
    34   1 H        0.925     0.098     1.804     2.100
    35   1 H        0.925     0.101     1.778     2.085
    36   1 H        0.925     0.098     1.807     2.102
    37   1 H        0.925     0.057     2.239     2.340
    38   1 H        0.925     0.030     2.585     2.514
    39   1 H        0.925     0.054     2.275     2.359

Wiberg/Mayer (AO) data.
largest (>0.10) Wiberg bond orders for each atom

     #   Z sym  total        # sym  WBO       # sym  WBO       # sym  WBO
 ---------------------------------------------------------------------------
     1   6 C    3.992 --     2 C    1.010    18 H    0.985    16 H    0.984
                            17 H    0.983
     2   6 C    3.990 --    15 C    1.012     1 C    1.010    19 H    0.966
                             3 C    0.953
     3   6 C    3.982 --     4 C    0.997    10 C    0.990    20 H    0.954
                             2 C    0.953
     4   6 C    3.986 --     5 C    1.411     9 C    1.408     3 C    0.997
                             7 C    0.110
     5   6 C    3.992 --     6 C    1.442     4 C    1.411    21 H    0.963
                             8 C    0.110
     6   6 C    3.991 --     5 C    1.442     7 C    1.439    22 H    0.970
                             9 C    0.110
     7   6 C    3.990 --     6 C    1.439     8 C    1.438    23 H    0.970
                             4 C    0.110
     8   6 C    3.991 --     9 C    1.445     7 C    1.438    24 H    0.970
                             5 C    0.110
     9   6 C    3.991 --     8 C    1.445     4 C    1.408    25 H    0.968
                             6 C    0.110
    10   6 C    3.920 --     3 C    0.990    27 H    0.965    26 H    0.960
                            11 N    0.917
    11   7 N    3.815 --    14 C    0.960    13 C    0.958    12 C    0.958
                            10 C    0.917
    12   6 C    3.926 --    29 H    0.975    28 H    0.974    30 H    0.969
                            11 N    0.958
    13   6 C    3.928 --    31 H    0.975    33 H    0.975    32 H    0.974
                            11 N    0.958
    14   6 C    3.929 --    34 H    0.975    36 H    0.975    35 H    0.969
                            11 N    0.960
    15   6 C    3.993 --     2 C    1.012    38 H    0.985    37 H    0.982
                            39 H    0.982
    16   1 H    0.998 --     1 C    0.984
    17   1 H    0.996 --     1 C    0.983
    18   1 H    0.998 --     1 C    0.985
    19   1 H    0.998 --     2 C    0.966
    20   1 H    0.998 --     3 C    0.954
    21   1 H    0.999 --     5 C    0.963
    22   1 H    0.998 --     6 C    0.970
    23   1 H    0.997 --     7 C    0.970
    24   1 H    0.997 --     8 C    0.970
    25   1 H    0.999 --     9 C    0.968
    26   1 H    0.992 --    10 C    0.960
    27   1 H    0.993 --    10 C    0.965
    28   1 H    0.990 --    12 C    0.974
    29   1 H    0.991 --    12 C    0.975
    30   1 H    0.989 --    12 C    0.969
    31   1 H    0.990 --    13 C    0.975
    32   1 H    0.990 --    13 C    0.974
    33   1 H    0.990 --    13 C    0.975
    34   1 H    0.990 --    14 C    0.975
    35   1 H    0.990 --    14 C    0.969
    36   1 H    0.990 --    14 C    0.975
    37   1 H    0.996 --    15 C    0.982
    38   1 H    0.999 --    15 C    0.985
    39   1 H    0.997 --    15 C    0.982
 ---------------------------------------------------------------------------

molecular dipole:
                 x           y           z       tot (Debye)
 q only:        1.960       6.672      -3.660
   full:        1.951       6.746      -3.653      20.119

           -------------------------------------------------
          | TOTAL ENERGY              -44.740856411411 Eh   |
          | GRADIENT NORM               0.000161131750 Eh/α |
          | HOMO-LUMO GAP               4.728039043793 eV   |
           -------------------------------------------------

 * finished run on 2024/12/20 at 06:46:41.722
