   * xtb version 6.7.1 (edcfbbe) compiled by 'conda@3ef47c1a292c' on 2024-11-25

   ID    Z sym.   atoms
    1    6 C      1, 2, 4, 6, 7, 9-16
    2    8 O      3
    3    7 N      5, 8
    4    1 H      17-33

          program call               : xtb C0497.xyz --opt --namespace C0497 --charge +1
          :  Hamiltonian                  GFN2-xTB          :
 * total energy  :   -46.0458880 Eh     change       -0.4583072E-09 Eh
 * total energy  :   -46.0563837 Eh     change       -0.1049563E-01 Eh
 * total energy  :   -46.0589387 Eh     change       -0.2555064E-02 Eh
 * total energy  :   -46.0596472 Eh     change       -0.7085072E-03 Eh
 * total energy  :   -46.0603256 Eh     change       -0.6783625E-03 Eh
 * total energy  :   -46.0609451 Eh     change       -0.6195154E-03 Eh
 * total energy  :   -46.0615582 Eh     change       -0.6130783E-03 Eh
 * total energy  :   -46.0621953 Eh     change       -0.6371601E-03 Eh
 * total energy  :   -46.0628156 Eh     change       -0.6202746E-03 Eh
 * total energy  :   -46.0634445 Eh     change       -0.6288507E-03 Eh
 * total energy  :   -46.0738509 Eh     change       -0.1396824E-03 Eh
 * total energy  :   -46.0738789 Eh     change       -0.2795588E-04 Eh
 * total energy  :   -46.0739150 Eh     change       -0.3616401E-04 Eh
 * total energy  :   -46.0739587 Eh     change       -0.4368449E-04 Eh
 * total energy  :   -46.0739808 Eh     change       -0.2206134E-04 Eh
 * total energy  :   -46.0739922 Eh     change       -0.1145139E-04 Eh
 * total energy  :   -46.0740020 Eh     change       -0.9754114E-05 Eh
 * total energy  :   -46.0740051 Eh     change       -0.3168849E-05 Eh
 * total energy  :   -46.0740079 Eh     change       -0.2762265E-05 Eh
   *** GEOMETRY OPTIMIZATION CONVERGED AFTER 41 ITERATIONS ***

 final structure:
================
33
 xtb: 6.7.1 (edcfbbe)
C            0.98906535563240        0.15453352515202        2.14188391537908
C            0.47320288588824       -0.92249148818878        1.24811107681639
O           -0.66515271221548       -1.01869372309390        0.87591508157484
C            1.51939273950858       -1.97565508078268        0.81393610927154
N            0.89052973511229       -2.92345648586354       -0.08596310333549
C            0.18783683072634       -2.64566909844438       -1.19332643317714
C            0.03998150565291       -1.34942339180011       -1.88226813129460
N           -0.38097531163710       -3.76105946508967       -1.66454261385970
C           -0.04789511281573       -4.81393669237423       -0.83638756408126
C            0.76280555719192       -4.27755325394442        0.17804049043497
C            1.28037809944787       -5.08322424957063        1.18371213184165
C            0.95787427544623       -6.42478681993259        1.14360449286927
C            0.14943929336184       -6.95585523560606        0.13699886289815
C           -0.36605743710701       -6.16531759052146       -0.86946150175832
C           -1.20967828296160       -3.83320538040568       -2.83818846016753
C            2.80926084884749       -1.39234330579422        0.23531992061927
H            0.15512149846187        0.66274927661220        2.61890006294144
H            1.53453784452265        0.88417648383038        1.54442645351875
H            1.66657867264625       -0.23950342444040        2.89413153612695
H            1.77421561452279       -2.53852613289803        1.71866365091549
H           -0.99903439616333       -1.02067596416062       -1.82334086410294
H            0.65619653999896       -0.57669976303648       -1.43855464110045
H            0.30038763449240       -1.45426426261364       -2.93578927595150
H            1.91132403230364       -4.69431614382181        1.96632482885869
H            1.34080621793321       -7.08102930710377        1.90852906161101
H           -0.07494534826535       -8.01035331805301        0.14720749576688
H           -0.98540348968518       -6.58776486975078       -1.64333411772759
H           -2.02261119419147       -3.10901778697300       -2.77335632377878
H           -0.62407085040506       -3.62902105215258       -3.73669712923724
H           -1.63291824155987       -4.83124365562619       -2.91558876182563
H            3.34558905994451       -0.84442837758745        1.00355586944774
H            3.45065222802608       -2.19955283185543       -0.11231935353148
H            2.62178590732902       -0.72158113410571       -0.59815276594790

          :  Hamiltonian                  GFN2-xTB          :
         :: total energy             -46.074007903792 Eh    ::
         :: gradient norm              0.000631194971 Eh/a0 ::
         :: HOMO-LUMO gap              3.549412517560 eV    ::
         :: SCC energy               -46.785649566283 Eh    ::
         :: -> dispersion             -0.031712584717 Eh    ::
         :: repulsion energy           0.711641662492 Eh    ::

    * Orbital Energies and Occupations

         #    Occupation            Energy/Eh            Energy/eV
      -------------------------------------------------------------
         1        2.0000           -0.8694415             -23.6587
       ...           ...                  ...                  ...
        30        2.0000           -0.6225209             -16.9397
        31        2.0000           -0.6169425             -16.7879
        32        2.0000           -0.6137992             -16.7023
        33        2.0000           -0.6044791             -16.4487
        34        2.0000           -0.6002866             -16.3346
        35        2.0000           -0.5985503             -16.2874
        36        2.0000           -0.5928429             -16.1321
        37        2.0000           -0.5885085             -16.0141
        38        2.0000           -0.5746587             -15.6373
        39        2.0000           -0.5673424             -15.4382
        40        2.0000           -0.5420285             -14.7493
        41        2.0000           -0.5414855             -14.7346
        42        2.0000           -0.5316618             -14.4673 (HOMO)
        43                         -0.4012232             -10.9178 (LUMO)
        44                         -0.3872031             -10.5363
        45                         -0.3560677              -9.6891
        46                         -0.3479232              -9.4675
        47                         -0.2307480              -6.2790
        48                         -0.1794892              -4.8842
        49                         -0.1329035              -3.6165
        50                         -0.0893915              -2.4325
        51                         -0.0652635              -1.7759
        52                         -0.0466176              -1.2685
        53                         -0.0361792              -0.9845
       ...                                ...                  ...
        81                          0.5495928              14.9552
      -------------------------------------------------------------
                  HL-Gap            0.1304385 Eh            3.5494 eV

     #   Z          covCN         q      C6AA      α(0)
     1   6 C        3.754    -0.151    23.483     6.910
     2   6 C        2.810     0.238    23.022     7.861
     3   8 O        0.857    -0.339    20.494     6.070
     4   6 C        3.788     0.005    20.500     6.449
     5   7 N        2.829     0.008    21.120     6.826
     6   6 C        3.072     0.134    25.007     8.199
     7   6 C        3.755    -0.130    23.054     6.846
     8   7 N        2.832     0.018    20.933     6.795
     9   6 C        3.091     0.040    27.007     8.518
    10   6 C        3.099     0.038    27.031     8.520
    11   6 C        2.910    -0.035    28.877     8.812
    12   6 C        2.925    -0.020    28.497     8.754
    13   6 C        2.925    -0.019    28.490     8.753
    14   6 C        2.909    -0.033    28.825     8.804
    15   6 C        3.692    -0.074    22.099     6.727
    16   6 C        3.752    -0.124    22.943     6.831
    17   1 H        0.925     0.099     1.796     2.096
    18   1 H        0.925     0.099     1.792     2.094
    19   1 H        0.925     0.082     1.956     2.187
    20   1 H        0.924     0.092     1.863     2.135
    21   1 H        0.924     0.113     1.670     2.021
    22   1 H        0.925     0.087     1.907     2.160
    23   1 H        0.924     0.094     1.838     2.120
    24   1 H        0.926     0.063     2.169     2.303
    25   1 H        0.926     0.077     2.009     2.216
    26   1 H        0.926     0.078     1.999     2.211
    27   1 H        0.926     0.068     2.105     2.269
    28   1 H        0.924     0.094     1.843     2.123
    29   1 H        0.924     0.089     1.893     2.152
    30   1 H        0.925     0.099     1.797     2.096
    31   1 H        0.925     0.080     1.982     2.202
    32   1 H        0.925     0.070     2.084     2.257
    33   1 H        0.925     0.061     2.188     2.313

Wiberg/Mayer (AO) data.
largest (>0.10) Wiberg bond orders for each atom

     #   Z sym  total        # sym  WBO       # sym  WBO       # sym  WBO
 ---------------------------------------------------------------------------
     1   6 C    3.985 --     2 C    1.026    17 H    0.971    19 H    0.963
                            18 H    0.937
     2   6 C    3.920 --     3 O    1.876     1 C    1.026     4 C    0.933
     3   8 O    2.103 --     2 C    1.876
     4   6 C    3.951 --    16 C    0.986     5 N    0.968    20 H    0.935
                             2 C    0.933
     5   7 N    3.649 --     6 C    1.321    10 C    1.112     4 C    0.968
     6   6 C    3.956 --     8 N    1.333     5 N    1.321     7 C    1.051
     7   6 C    3.978 --     6 C    1.051    22 H    0.970    23 H    0.952
                            21 H    0.940
     8   7 N    3.663 --     6 C    1.333     9 C    1.119    15 C    0.992
     9   6 C    3.954 --    14 C    1.344    10 C    1.279     8 N    1.119
    10   6 C    3.953 --    11 C    1.348     9 C    1.279     5 N    1.112
    11   6 C    3.985 --    12 C    1.486    10 C    1.348    24 H    0.961
                            14 C    0.118
    12   6 C    3.983 --    11 C    1.486    13 C    1.385    25 H    0.967
    13   6 C    3.985 --    14 C    1.488    12 C    1.385    26 H    0.966
    14   6 C    3.986 --    13 C    1.488     9 C    1.344    27 H    0.962
                            11 C    0.118
    15   6 C    3.942 --     8 N    0.992    30 H    0.973    28 H    0.966
                            29 H    0.964
    16   6 C    3.981 --     4 C    0.986    32 H    0.981    33 H    0.980
                            31 H    0.978
    17   1 H    0.990 --     1 C    0.971
    18   1 H    0.990 --     1 C    0.937
    19   1 H    0.993 --     1 C    0.963
    20   1 H    0.991 --     4 C    0.935
    21   1 H    0.984 --     7 C    0.940
    22   1 H    0.992 --     7 C    0.970
    23   1 H    0.989 --     7 C    0.952
    24   1 H    0.995 --    11 C    0.961
    25   1 H    0.994 --    12 C    0.967
    26   1 H    0.993 --    13 C    0.966
    27   1 H    0.995 --    14 C    0.962
    28   1 H    0.991 --    15 C    0.966
    29   1 H    0.991 --    15 C    0.964
    30   1 H    0.990 --    15 C    0.973
    31   1 H    0.993 --    16 C    0.978
    32   1 H    0.995 --    16 C    0.981
    33   1 H    0.996 --    16 C    0.980
 ---------------------------------------------------------------------------

molecular dipole:
                 x           y           z       tot (Debye)
 q only:        1.476      -5.867      -1.178
   full:        1.603      -5.808      -1.149      15.591

           -------------------------------------------------
          | TOTAL ENERGY              -46.074007903792 Eh   |
          | GRADIENT NORM               0.000631194971 Eh/α |
          | HOMO-LUMO GAP               3.549412517560 eV   |
           -------------------------------------------------

 * finished run on 2024/12/20 at 06:46:42.963
