   * xtb version 6.7.1 (edcfbbe) compiled by 'conda@3ef47c1a292c' on 2024-11-25

   ID    Z sym.   atoms
    1    6 C      1-12, 14-18
    2    7 N      13
    3    1 H      19-48

          program call               : xtb C0490.xyz --opt --namespace C0490 --charge +1
          :  Hamiltonian                  GFN2-xTB          :
 * total energy  :   -54.2344720 Eh     change       -0.4021501E-08 Eh
 * total energy  :   -54.2372069 Eh     change       -0.2734889E-02 Eh
 * total energy  :   -54.2376478 Eh     change       -0.4409047E-03 Eh
 * total energy  :   -54.2377341 Eh     change       -0.8628892E-04 Eh
 * total energy  :   -54.2378202 Eh     change       -0.8606840E-04 Eh
 * total energy  :   -54.2378935 Eh     change       -0.7330051E-04 Eh
 * total energy  :   -54.2379760 Eh     change       -0.8247764E-04 Eh
 * total energy  :   -54.2380729 Eh     change       -0.9689259E-04 Eh
 * total energy  :   -54.2381442 Eh     change       -0.7136058E-04 Eh
 * total energy  :   -54.2381733 Eh     change       -0.2906971E-04 Eh
 * total energy  :   -54.2382237 Eh     change       -0.2427668E-04 Eh
 * total energy  :   -54.2382511 Eh     change       -0.2741271E-04 Eh
 * total energy  :   -54.2382625 Eh     change       -0.1143806E-04 Eh
 * total energy  :   -54.2382722 Eh     change       -0.9683973E-05 Eh
 * total energy  :   -54.2382836 Eh     change       -0.1139305E-04 Eh
 * total energy  :   -54.2382915 Eh     change       -0.7906588E-05 Eh
 * total energy  :   -54.2382968 Eh     change       -0.5316380E-05 Eh
 * total energy  :   -54.2383020 Eh     change       -0.5187044E-05 Eh
 * total energy  :   -54.2383069 Eh     change       -0.4918287E-05 Eh
   *** GEOMETRY OPTIMIZATION CONVERGED AFTER 20 ITERATIONS ***

 final structure:
================
48
 xtb: 6.7.1 (edcfbbe)
C            0.96663312717725        0.00421955556697       -0.51053591151578
C            0.80778547964598       -1.43315024455921       -0.02950272636480
C            1.24340761774660       -1.63569810113310        1.42259515668281
C            0.45783837443145       -0.82092470541527        2.45236369499922
C           -1.05265100805662       -1.06326681277307        2.45281707877980
C           -1.47403868999762       -2.51302351725497        2.69975317850504
C           -1.01359956977024       -3.10192257397485        4.03489039195948
C           -1.48101983430304       -2.33643921702867        5.27458535689877
C           -2.99630319657140       -2.14949110385559        5.38642130793673
C           -3.80845431309666       -3.44710242522899        5.37083779369804
C           -3.50201386642859       -4.41285814813889        6.51441993479604
C           -3.90847481073456       -3.89084860401350        7.90140999361730
N           -5.35035643849150       -3.75820814964748        7.98975503434649
C           -6.09283836254528       -4.83013001562440        8.29111407248896
C           -7.47005537654140       -4.76655039401564        8.30193136531777
C           -8.09712951458794       -3.56705420979139        7.98576220629754
C           -7.31012327021165       -2.46688356744052        7.67359336092054
C           -5.93548668747787       -2.59528437917958        7.68359584625614
H            0.28095059822491        0.67118454200950        0.00618117071271
H            0.76007094869051        0.06866445461946       -1.57617337948318
H            1.98239009811876        0.35278752338563       -0.33794083967998
H           -0.23026444132942       -1.74677204717549       -0.15544546683344
H            1.42004666540260       -2.08415151351189       -0.65799738558998
H            1.16898302482269       -2.69809349428778        1.66527386791770
H            2.29683694735424       -1.35878790136799        1.51014908895821
H            0.86225419312910       -1.04116336100288        3.44306800840750
H            0.62877983901203        0.24131536257682        2.26936152166423
H           -1.50244167047046       -0.41722170209705        3.21078346454605
H           -1.46292107898540       -0.75343005923175        1.49026205212268
H           -2.56340917363210       -2.57087880275190        2.62974568146307
H           -1.07336047033956       -3.13957460565174        1.90164142599293
H           -1.35660859133026       -4.13811202987916        4.09118031849850
H            0.07654867441296       -3.12997339813796        4.05307672102585
H           -1.10463083483776       -2.85160024095475        6.16215643694042
H           -1.02521949221877       -1.34565830351235        5.27050485218546
H           -3.20026638613822       -1.58054152986657        6.29832676204430
H           -3.33688444225901       -1.53677795635345        4.55132067604216
H           -4.87575059809865       -3.20143057647912        5.36639343261962
H           -3.60549200055645       -3.96904551039523        4.43608326736172
H           -4.01067813903916       -5.36174198577010        6.33007551944551
H           -2.43167448003418       -4.61213378256881        6.54155328306203
H           -3.57027191875154       -4.59032191104529        8.66791855362404
H           -3.44572411979144       -2.92053273249711        8.08303288859823
H           -5.56732532650760       -5.74378793134661        8.52775620769862
H           -8.04310842685511       -5.64424164066166        8.55407692435110
H           -9.17305170340019       -3.49227000824418        7.98535936605591
H           -7.75428442662600       -1.51657754955749        7.42523057070930
H           -5.29053292815439       -1.75957469473799        7.45615787391776

          :  Hamiltonian                  GFN2-xTB          :
         :: total energy             -54.238306948820 Eh    ::
         :: gradient norm              0.000458661972 Eh/a0 ::
         :: HOMO-LUMO gap              0.357877971999 eV    ::
         :: SCC energy               -55.096840393025 Eh    ::
         :: -> dispersion             -0.040191255232 Eh    ::
         :: repulsion energy           0.858533444204 Eh    ::

    * Orbital Energies and Occupations

         #    Occupation            Energy/Eh            Energy/eV
      -------------------------------------------------------------
         1        2.0000           -0.8793738             -23.9290
       ...           ...                  ...                  ...
        39        2.0000           -0.5494466             -14.9512
        40        2.0000           -0.5433050             -14.7841
        41        2.0000           -0.5357379             -14.5782
        42        2.0000           -0.5334984             -14.5172
        43        2.0000           -0.5217356             -14.1971
        44        2.0000           -0.5180313             -14.0963
        45        2.0000           -0.5103184             -13.8865
        46        2.0000           -0.5005690             -13.6212
        47        2.0000           -0.4962728             -13.5043
        48        2.0000           -0.4928334             -13.4107
        49        2.0000           -0.4768984             -12.9771
        50        1.9998           -0.4735471             -12.8859
        51        1.9981           -0.4711603             -12.8209 (HOMO)
        52        0.0021           -0.4580085             -12.4630 (LUMO)
        53                         -0.4279253             -11.6444
        54                         -0.3073424              -8.3632
        55                         -0.1677837              -4.5656
        56                         -0.0830335              -2.2595
        57                         -0.0647486              -1.7619
        58                         -0.0472998              -1.2871
        59                         -0.0374734              -1.0197
        60                         -0.0280042              -0.7620
        61                         -0.0141768              -0.3858
        62                         -0.0113479              -0.3088
       ...                                ...                  ...
       102                          0.4487302              12.2106
      -------------------------------------------------------------
                  HL-Gap            0.0131518 Eh            0.3579 eV

     #   Z          covCN         q      C6AA      α(0)
     1   6 C        3.751    -0.103    22.524     6.768
     2   6 C        3.799    -0.053    21.519     6.605
     3   6 C        3.800    -0.058    21.619     6.620
     4   6 C        3.800    -0.058    21.617     6.620
     5   6 C        3.800    -0.057    21.608     6.618
     6   6 C        3.800    -0.059    21.630     6.622
     7   6 C        3.800    -0.060    21.664     6.627
     8   6 C        3.800    -0.061    21.681     6.630
     9   6 C        3.800    -0.061    21.680     6.630
    10   6 C        3.800    -0.066    21.768     6.643
    11   6 C        3.801    -0.069    21.820     6.651
    12   6 C        3.760    -0.037    21.278     6.576
    13   7 N        2.750     0.115    19.266     6.519
    14   6 C        2.893     0.032    27.278     8.563
    15   6 C        2.915    -0.010    28.270     8.719
    16   6 C        2.925     0.013    27.723     8.635
    17   6 C        2.915    -0.011    28.288     8.722
    18   6 C        2.892     0.034    27.238     8.557
    19   1 H        0.925     0.033     2.540     2.492
    20   1 H        0.925     0.034     2.525     2.485
    21   1 H        0.925     0.036     2.497     2.471
    22   1 H        0.924     0.029     2.601     2.522
    23   1 H        0.924     0.030     2.582     2.513
    24   1 H        0.924     0.027     2.630     2.536
    25   1 H        0.924     0.033     2.548     2.496
    26   1 H        0.924     0.026     2.640     2.541
    27   1 H        0.924     0.036     2.500     2.473
    28   1 H        0.924     0.023     2.684     2.562
    29   1 H        0.924     0.037     2.490     2.468
    30   1 H        0.924     0.022     2.704     2.571
    31   1 H        0.924     0.040     2.444     2.445
    32   1 H        0.924     0.024     2.675     2.557
    33   1 H        0.924     0.044     2.397     2.421
    34   1 H        0.924     0.025     2.666     2.553
    35   1 H        0.924     0.047     2.355     2.400
    36   1 H        0.924     0.016     2.795     2.614
    37   1 H        0.924     0.052     2.300     2.372
    38   1 H        0.924     0.021     2.716     2.577
    39   1 H        0.925     0.068     2.103     2.268
    40   1 H        0.924     0.051     2.312     2.378
    41   1 H        0.925     0.086     1.920     2.167
    42   1 H        0.924     0.089     1.893     2.151
    43   1 H        0.924     0.096     1.817     2.108
    44   1 H        0.926     0.108     1.710     2.045
    45   1 H        0.926     0.108     1.717     2.049
    46   1 H        0.926     0.107     1.726     2.054
    47   1 H        0.926     0.107     1.720     2.051
    48   1 H        0.926     0.112     1.677     2.025

Wiberg/Mayer (AO) data.
largest (>0.10) Wiberg bond orders for each atom

     #   Z sym  total        # sym  WBO       # sym  WBO       # sym  WBO
 ---------------------------------------------------------------------------
     1   6 C    3.996 --     2 C    1.020    21 H    0.987    20 H    0.987
                            19 H    0.986
     2   6 C    3.997 --     1 C    1.020     3 C    1.008    23 H    0.978
                            22 H    0.976
     3   6 C    3.997 --     2 C    1.008     4 C    1.007    25 H    0.977
                            24 H    0.976
     4   6 C    3.997 --     5 C    1.008     3 C    1.007    26 H    0.975
                            27 H    0.975
     5   6 C    3.997 --     4 C    1.008     6 C    1.008    28 H    0.975
                            29 H    0.974
     6   6 C    3.997 --     5 C    1.008     7 C    1.007    30 H    0.975
                            31 H    0.974
     7   6 C    3.996 --     6 C    1.007     8 C    1.007    32 H    0.976
                            33 H    0.973
     8   6 C    3.995 --     7 C    1.007     9 C    1.006    34 H    0.975
                            35 H    0.973
     9   6 C    3.995 --    10 C    1.007     8 C    1.006    37 H    0.972
                            36 H    0.972
    10   6 C    3.992 --    11 C    1.010     9 C    1.007    38 H    0.971
                            39 H    0.965
    11   6 C    3.980 --    10 C    1.010    40 H    0.974    12 C    0.970
                            41 H    0.959
    12   6 C    3.932 --    11 C    0.970    13 N    0.965    42 H    0.962
                            43 H    0.959
    13   7 N    3.768 --    18 C    1.327    14 C    1.324    12 C    0.965
    14   6 C    3.958 --    15 C    1.468    13 N    1.324    44 H    0.954
    15   6 C    3.981 --    14 C    1.468    16 C    1.416    45 H    0.959
    16   6 C    3.968 --    17 C    1.427    15 C    1.416    46 H    0.961
    17   6 C    3.981 --    18 C    1.455    16 C    1.427    47 H    0.959
    18   6 C    3.956 --    17 C    1.455    13 N    1.327    48 H    0.951
    19   1 H    0.999 --     1 C    0.986
    20   1 H    0.999 --     1 C    0.987
    21   1 H    0.998 --     1 C    0.987
    22   1 H    0.999 --     2 C    0.976
    23   1 H    0.999 --     2 C    0.978
    24   1 H    0.999 --     3 C    0.976
    25   1 H    0.999 --     3 C    0.977
    26   1 H    0.999 --     4 C    0.975
    27   1 H    0.999 --     4 C    0.975
    28   1 H    0.999 --     5 C    0.975
    29   1 H    0.999 --     5 C    0.974
    30   1 H    0.999 --     6 C    0.975
    31   1 H    0.998 --     6 C    0.974
    32   1 H    0.999 --     7 C    0.976
    33   1 H    0.998 --     7 C    0.973
    34   1 H    0.999 --     8 C    0.975
    35   1 H    0.998 --     8 C    0.973
    36   1 H    1.000 --     9 C    0.972
    37   1 H    0.997 --     9 C    0.972
    38   1 H    1.000 --    10 C    0.971
    39   1 H    0.994 --    10 C    0.965
    40   1 H    0.997 --    11 C    0.974
    41   1 H    0.991 --    11 C    0.959
    42   1 H    0.992 --    12 C    0.962
    43   1 H    0.990 --    12 C    0.959
    44   1 H    0.988 --    14 C    0.954
    45   1 H    0.988 --    15 C    0.959
    46   1 H    0.989 --    16 C    0.961
    47   1 H    0.988 --    17 C    0.959
    48   1 H    0.987 --    18 C    0.951
 ---------------------------------------------------------------------------

molecular dipole:
                 x           y           z       tot (Debye)
 q only:      -10.563      -6.898      14.273
   full:      -10.626      -6.929      14.387      48.752

           -------------------------------------------------
          | TOTAL ENERGY              -54.238306948820 Eh   |
          | GRADIENT NORM               0.000458661972 Eh/α |
          | HOMO-LUMO GAP               0.357877971999 eV   |
           -------------------------------------------------

 * finished run on 2024/12/20 at 06:46:32.635
