   * xtb version 6.7.1 (edcfbbe) compiled by 'conda@3ef47c1a292c' on 2024-11-25

   ID    Z sym.   atoms
    1    6 C      1-3, 5-9
    2    7 N      4
    3    1 H      10-25

          program call               : xtb C0495.xyz --opt --namespace C0495 --charge +1
          :  Hamiltonian                  GFN2-xTB          :
 * total energy  :   -27.7897624 Eh     change       -0.6671996E-10 Eh
 * total energy  :   -27.7932462 Eh     change       -0.3483809E-02 Eh
 * total energy  :   -27.7941315 Eh     change       -0.8853231E-03 Eh
 * total energy  :   -27.7943281 Eh     change       -0.1965824E-03 Eh
 * total energy  :   -27.7944132 Eh     change       -0.8509779E-04 Eh
 * total energy  :   -27.7944527 Eh     change       -0.3947347E-04 Eh
 * total energy  :   -27.7944963 Eh     change       -0.4361827E-04 Eh
 * total energy  :   -27.7945306 Eh     change       -0.3431696E-04 Eh
 * total energy  :   -27.7945548 Eh     change       -0.2421199E-04 Eh
 * total energy  :   -27.7945729 Eh     change       -0.1810182E-04 Eh
 * total energy  :   -27.7946033 Eh     change       -0.9505451E-05 Eh
 * total energy  :   -27.7946109 Eh     change       -0.7577214E-05 Eh
 * total energy  :   -27.7946193 Eh     change       -0.8434868E-05 Eh
 * total energy  :   -27.7946298 Eh     change       -0.1047991E-04 Eh
 * total energy  :   -27.7946413 Eh     change       -0.1151557E-04 Eh
 * total energy  :   -27.7946512 Eh     change       -0.9839499E-05 Eh
 * total energy  :   -27.7946587 Eh     change       -0.7515708E-05 Eh
 * total energy  :   -27.7946645 Eh     change       -0.5860821E-05 Eh
 * total energy  :   -27.7946695 Eh     change       -0.4941616E-05 Eh
   *** GEOMETRY OPTIMIZATION CONVERGED AFTER 21 ITERATIONS ***

 final structure:
================
25
 xtb: 6.7.1 (edcfbbe)
C            2.03112061959590        0.11597598507091        0.58715868782141
C            0.68138490147453        0.74346044278582        0.92279264231988
C            0.54457645446417        2.17213230720558        0.40349570534105
N            0.71491702020172        2.27278614968581       -1.07844700419497
C            1.18079599294687        3.61536863373510       -1.53665876033474
C           -0.09740571326600        4.36222737715880       -1.93020583087179
C           -1.02105971055058        3.23110534046673       -2.25066104882703
C           -0.56057067530945        2.07079848705429       -1.81147111985412
C           -1.11407239143216        0.70270545157670       -1.93718758879130
H            2.14191851729905       -0.09670146951271       -0.47653627276310
H            2.12875140705882       -0.83218661466453        1.10747709997547
H            2.85095958888727        0.75549617777312        0.90620423769582
H           -0.12277140546645        0.11047951806340        0.55050718217685
H            0.57434259633505        0.79276566883966        2.00705214827947
H           -0.42911296286999        2.59127050087581        0.66213663184132
H            1.32079196621319        2.78245651499260        0.86936801498225
H            1.39759285748211        1.54773763741093       -1.32686344061008
H            1.75678706086810        4.11551638842985       -0.76092711257487
H            1.81412444299176        3.47990678865277       -2.41497689862164
H           -0.49646954185806        4.96987013461630       -1.11512495932615
H            0.05870917526047        5.01832267166175       -2.78425272996356
H           -1.94489642525105        3.37126449683157       -2.77825440818301
H           -1.83603865132434        0.68225426454017       -2.74876075524486
H           -0.33262908028313       -0.02386943083157       -2.15327554144183
H           -1.63261604346760        0.39240657758098       -1.03056887883043

          :  Hamiltonian                  GFN2-xTB          :
         :: total energy             -27.794669487853 Eh    ::
         :: gradient norm              0.000218441513 Eh/a0 ::
         :: HOMO-LUMO gap              4.886005322636 eV    ::
         :: SCC energy               -28.220396552790 Eh    ::
         :: -> dispersion             -0.017138463804 Eh    ::
         :: repulsion energy           0.425727064936 Eh    ::

    * Orbital Energies and Occupations

         #    Occupation            Energy/Eh            Energy/eV
      -------------------------------------------------------------
         1        2.0000           -0.8674779             -23.6053
       ...           ...                  ...                  ...
        14        2.0000           -0.6622583             -18.0210
        15        2.0000           -0.6601170             -17.9627
        16        2.0000           -0.6492735             -17.6676
        17        2.0000           -0.6421457             -17.4737
        18        2.0000           -0.6382536             -17.3678
        19        2.0000           -0.6287846             -17.1101
        20        2.0000           -0.6258767             -17.0310
        21        2.0000           -0.6184628             -16.8292
        22        2.0000           -0.6133090             -16.6890
        23        2.0000           -0.6018448             -16.3770
        24        2.0000           -0.5906880             -16.0734
        25        2.0000           -0.5847542             -15.9120
        26        2.0000           -0.5583195             -15.1926 (HOMO)
        27                         -0.3787621             -10.3066 (LUMO)
        28                         -0.2356251              -6.4117
        29                         -0.1794046              -4.8818
        30                         -0.1403090              -3.8180
        31                         -0.1242174              -3.3801
        32                         -0.0773649              -2.1052
        33                         -0.0672516              -1.8300
        34                         -0.0509933              -1.3876
        35                         -0.0308405              -0.8392
        36                         -0.0163628              -0.4453
        37                         -0.0132126              -0.3595
       ...                                ...                  ...
        52                          0.4797983              13.0560
      -------------------------------------------------------------
                  HL-Gap            0.1795574 Eh            4.8860 eV

     #   Z          covCN         q      C6AA      α(0)
     1   6 C        3.751    -0.120    22.862     6.819
     2   6 C        3.800    -0.075    21.938     6.669
     3   6 C        3.739    -0.031    21.205     6.570
     4   7 N        3.604     0.028    20.759     6.767
     5   6 C        3.798    -0.028    21.072     6.536
     6   6 C        3.842    -0.072    21.845     6.649
     7   6 C        2.942    -0.039    28.979     8.829
     8   6 C        2.937     0.044    27.018     8.525
     9   6 C        3.754    -0.132    23.094     6.852
    10   1 H        0.924     0.034     2.528     2.487
    11   1 H        0.925     0.074     2.038     2.233
    12   1 H        0.925     0.054     2.271     2.357
    13   1 H        0.925     0.064     2.152     2.294
    14   1 H        0.924     0.080     1.978     2.200
    15   1 H        0.924     0.088     1.895     2.153
    16   1 H        0.924     0.088     1.902     2.157
    17   1 H        0.859     0.227     0.977     1.548
    18   1 H        0.925     0.093     1.850     2.127
    19   1 H        0.924     0.090     1.879     2.144
    20   1 H        0.924     0.088     1.895     2.153
    21   1 H        0.925     0.095     1.830     2.115
    22   1 H        0.926     0.097     1.815     2.107
    23   1 H        0.925     0.093     1.853     2.129
    24   1 H        0.925     0.074     2.044     2.236
    25   1 H        0.925     0.086     1.916     2.165

Wiberg/Mayer (AO) data.
largest (>0.10) Wiberg bond orders for each atom

     #   Z sym  total        # sym  WBO       # sym  WBO       # sym  WBO
 ---------------------------------------------------------------------------
     1   6 C    3.991 --     2 C    1.019    12 H    0.985    11 H    0.980
                            10 H    0.976
     2   6 C    3.985 --     1 C    1.019     3 C    1.008    13 H    0.970
                            14 H    0.965
     3   6 C    3.925 --     2 C    1.008    15 H    0.970    16 H    0.964
                             4 N    0.922
     4   7 N    3.763 --     5 C    0.940     3 C    0.922     8 C    0.908
                            17 H    0.899
     5   6 C    3.930 --     6 C    1.004    19 H    0.973    18 H    0.968
                             4 N    0.940
     6   6 C    3.986 --     7 C    1.027     5 C    1.004    21 H    0.958
                            20 H    0.952
     7   6 C    3.985 --     8 C    1.871     6 C    1.027    22 H    0.959
     8   6 C    3.919 --     7 C    1.871     9 C    1.043     4 N    0.908
     9   6 C    3.985 --     8 C    1.043    23 H    0.969    24 H    0.968
                            25 H    0.951
    10   1 H    0.999 --     1 C    0.976
    11   1 H    0.994 --     1 C    0.980
    12   1 H    0.997 --     1 C    0.985
    13   1 H    0.996 --     2 C    0.970
    14   1 H    0.993 --     2 C    0.965
    15   1 H    0.992 --     3 C    0.970
    16   1 H    0.992 --     3 C    0.964
    17   1 H    0.948 --     4 N    0.899
    18   1 H    0.991 --     5 C    0.968
    19   1 H    0.992 --     5 C    0.973
    20   1 H    0.992 --     6 C    0.952
    21   1 H    0.991 --     6 C    0.958
    22   1 H    0.991 --     7 C    0.959
    23   1 H    0.991 --     9 C    0.969
    24   1 H    0.995 --     9 C    0.968
    25   1 H    0.993 --     9 C    0.951
 ---------------------------------------------------------------------------

molecular dipole:
                 x           y           z       tot (Debye)
 q only:        0.810       4.322      -1.917
   full:        0.994       4.252      -1.928      12.134

           -------------------------------------------------
          | TOTAL ENERGY              -27.794669487853 Eh   |
          | GRADIENT NORM               0.000218441513 Eh/α |
          | HOMO-LUMO GAP               4.886005322636 eV   |
           -------------------------------------------------

 * finished run on 2024/12/20 at 06:46:39.691
