   * xtb version 6.7.1 (edcfbbe) compiled by 'conda@3ef47c1a292c' on 2024-11-25

   ID    Z sym.   atoms
    1    7 N      1, 4
    2    6 C      2, 3, 5-11
    3    1 H      12-22

          program call               : xtb C0492.xyz --opt --namespace C0492 --charge +1
          :  Hamiltonian                  GFN2-xTB          :
 * total energy  :   -30.2450889 Eh     change       -0.5098499E-09 Eh
 * total energy  :   -30.2784188 Eh     change       -0.3332987E-01 Eh
 * total energy  :   -30.2806426 Eh     change       -0.2223805E-02 Eh
 * total energy  :   -30.2810177 Eh     change       -0.3750585E-03 Eh
 * total energy  :   -30.2811521 Eh     change       -0.1344141E-03 Eh
 * total energy  :   -30.2812617 Eh     change       -0.1095786E-03 Eh
 * total energy  :   -30.2813717 Eh     change       -0.1100352E-03 Eh
 * total energy  :   -30.2814979 Eh     change       -0.1262386E-03 Eh
 * total energy  :   -30.2816956 Eh     change       -0.1976241E-03 Eh
 * total energy  :   -30.2818180 Eh     change       -0.1224265E-03 Eh
 * total energy  :   -30.2820085 Eh     change       -0.1018160E-03 Eh
 * total energy  :   -30.2820612 Eh     change       -0.5267441E-04 Eh
 * total energy  :   -30.2820950 Eh     change       -0.3385359E-04 Eh
 * total energy  :   -30.2821232 Eh     change       -0.2816254E-04 Eh
 * total energy  :   -30.2821404 Eh     change       -0.1726619E-04 Eh
 * total energy  :   -30.2821555 Eh     change       -0.1501165E-04 Eh
 * total energy  :   -30.2821580 Eh     change       -0.2530035E-05 Eh
 * total energy  :   -30.2821623 Eh     change       -0.4294532E-05 Eh
 * total energy  :   -30.2821652 Eh     change       -0.2884045E-05 Eh
   *** GEOMETRY OPTIMIZATION CONVERGED AFTER 20 ITERATIONS ***

 final structure:
================
22
 xtb: 6.7.1 (edcfbbe)
N            1.24262361624998       -0.09276852119300        0.29680777554978
C            2.36400838565288       -0.04705359579071        0.10150770239759
C            3.80240712567926       -0.02720648611437       -0.12342133300046
N            4.40375731987162       -1.26767032427760        0.34821924896431
C            5.08302013081176       -1.25782503651896        1.51048124438459
C            5.63154308348831       -2.39615260388838        2.03528991955925
C            5.48588409349191       -3.61565609342510        1.35943355811266
C            4.77587605325937       -3.58759588165123        0.16088171368470
C            4.23042806460649       -2.41892132123673       -0.34263554205632
C            3.46485843932385       -2.40811951616673       -1.61424893995098
C            6.06952837420289       -4.86817059671205        1.88471946220459
H            3.99421967564482        0.11512107659891       -1.19230799437623
H            4.22608464833472        0.82246287387419        0.42055793325026
H            5.17585570964645       -0.30907887030293        2.01799288742543
H            6.16835933820291       -2.34589665033092        2.96886315547154
H            4.63564027152567       -4.50175262375387       -0.39487401926817
H            3.37973961113507       -3.41620292875140       -2.00975265323842
H            2.45875143886522       -2.01149983721121       -1.46835168232085
H            3.96092575444360       -1.79458481445267       -2.36875418012610
H            7.04941799213815       -5.02804300745272        1.43021657074715
H            6.20966454880465       -4.81998942872316        2.96113913817609
H            5.45293632462036       -5.72744581251943        1.63157603440993

          :  Hamiltonian                  GFN2-xTB          :
         :: total energy             -30.282165159288 Eh    ::
         :: gradient norm              0.000985124768 Eh/a0 ::
         :: HOMO-LUMO gap              3.325871765598 eV    ::
         :: SCC energy               -30.832336614462 Eh    ::
         :: -> dispersion             -0.017358057087 Eh    ::
         :: repulsion energy           0.550171455174 Eh    ::

    * Orbital Energies and Occupations

         #    Occupation            Energy/Eh            Energy/eV
      -------------------------------------------------------------
         1        2.0000           -0.8824429             -24.0125
       ...           ...                  ...                  ...
        16        2.0000           -0.6747117             -18.3598
        17        2.0000           -0.6676222             -18.1669
        18        2.0000           -0.6580352             -17.9060
        19        2.0000           -0.6518260             -17.7371
        20        2.0000           -0.6390454             -17.3893
        21        2.0000           -0.6367787             -17.3276
        22        2.0000           -0.6296787             -17.1344
        23        2.0000           -0.6239921             -16.9797
        24        2.0000           -0.6162105             -16.7679
        25        2.0000           -0.6054440             -16.4750
        26        2.0000           -0.6007275             -16.3466
        27        2.0000           -0.5957164             -16.2103
        28        2.0000           -0.5765986             -15.6900 (HOMO)
        29                         -0.4543750             -12.3642 (LUMO)
        30                         -0.4223711             -11.4933
        31                         -0.3725751             -10.1383
        32                         -0.3598199              -9.7912
        33                         -0.3062780              -8.3342
        34                         -0.1725531              -4.6954
        35                         -0.0933479              -2.5401
        36                         -0.0601334              -1.6363
        37                         -0.0574428              -1.5631
        38                         -0.0500388              -1.3616
        39                         -0.0271912              -0.7399
       ...                                ...                  ...
        55                          0.9928027              27.0155
      -------------------------------------------------------------
                  HL-Gap            0.1222235 Eh            3.3259 eV

     #   Z          covCN         q      C6AA      α(0)
     1   7 N        0.911    -0.144    24.126     7.104
     2   6 C        1.897     0.110    28.381     8.604
     3   6 C        3.758    -0.018    20.951     6.526
     4   7 N        2.758     0.073    19.980     6.639
     5   6 C        2.880     0.029    27.357     8.575
     6   6 C        2.920    -0.030    28.754     8.793
     7   6 C        2.967     0.072    26.389     8.426
     8   6 C        2.927    -0.041    29.008     8.833
     9   6 C        2.921     0.090    25.991     8.360
    10   6 C        3.758    -0.138    23.207     6.868
    11   6 C        3.759    -0.134    23.124     6.856
    12   1 H        0.924     0.122     1.595     1.975
    13   1 H        0.924     0.119     1.622     1.992
    14   1 H        0.926     0.101     1.780     2.086
    15   1 H        0.926     0.103     1.759     2.074
    16   1 H        0.926     0.100     1.788     2.091
    17   1 H        0.925     0.098     1.805     2.101
    18   1 H        0.924     0.101     1.774     2.083
    19   1 H        0.924     0.096     1.823     2.112
    20   1 H        0.924     0.109     1.707     2.043
    21   1 H        0.925     0.090     1.878     2.143
    22   1 H        0.925     0.093     1.851     2.128

Wiberg/Mayer (AO) data.
largest (>0.10) Wiberg bond orders for each atom

     #   Z sym  total        # sym  WBO       # sym  WBO       # sym  WBO
 ---------------------------------------------------------------------------
     1   7 N    3.042 --     2 C    2.892
     2   6 C    3.954 --     1 N    2.892     3 C    1.016
     3   6 C    3.951 --     2 C    1.016     4 N    0.964    13 H    0.937
                            12 H    0.929
     4   7 N    3.724 --     5 C    1.283     9 C    1.264     3 C    0.964
     5   6 C    3.959 --     6 C    1.520     4 N    1.283    14 H    0.955
     6   6 C    3.984 --     5 C    1.520     7 C    1.334    15 H    0.958
     7   6 C    3.967 --     8 C    1.390     6 C    1.334    11 C    1.066
     8   6 C    3.984 --     9 C    1.433     7 C    1.390    16 H    0.958
     9   6 C    3.957 --     8 C    1.433     4 N    1.264    10 C    1.053
    10   6 C    3.979 --     9 C    1.053    17 H    0.974    18 H    0.945
                            19 H    0.942
    11   6 C    3.982 --     7 C    1.066    21 H    0.970    22 H    0.963
                            20 H    0.926
    12   1 H    0.984 --     3 C    0.929
    13   1 H    0.985 --     3 C    0.937
    14   1 H    0.989 --     5 C    0.955
    15   1 H    0.988 --     6 C    0.958
    16   1 H    0.990 --     8 C    0.958
    17   1 H    0.990 --    10 C    0.974
    18   1 H    0.989 --    10 C    0.945
    19   1 H    0.990 --    10 C    0.942
    20   1 H    0.986 --    11 C    0.926
    21   1 H    0.991 --    11 C    0.970
    22   1 H    0.991 --    11 C    0.963
 ---------------------------------------------------------------------------

molecular dipole:
                 x           y           z       tot (Debye)
 q only:        9.450      -4.211       0.724
   full:        9.935      -4.068       0.661      27.339

           -------------------------------------------------
          | TOTAL ENERGY              -30.282165159288 Eh   |
          | GRADIENT NORM               0.000985124768 Eh/α |
          | HOMO-LUMO GAP               3.325871765598 eV   |
           -------------------------------------------------

 * finished run on 2024/12/20 at 06:46:33.802
