   * xtb version 6.7.1 (edcfbbe) compiled by 'conda@3ef47c1a292c' on 2024-11-25

   ID    Z sym.   atoms
    1    6 C      1, 2, 4, 5, 7, 8
    2    7 N      3, 6
    3    1 H      9-21

          program call               : xtb C0506.xyz --opt --namespace C0506 --charge +1
          :  Hamiltonian                  GFN2-xTB          :
 * total energy  :   -24.8865789 Eh     change       -0.2017551E-09 Eh
 * total energy  :   -24.8905941 Eh     change       -0.4015193E-02 Eh
 * total energy  :   -24.8913585 Eh     change       -0.7644695E-03 Eh
 * total energy  :   -24.8915610 Eh     change       -0.2024199E-03 Eh
 * total energy  :   -24.8916609 Eh     change       -0.9996895E-04 Eh
 * total energy  :   -24.8917242 Eh     change       -0.6328022E-04 Eh
 * total energy  :   -24.8918030 Eh     change       -0.7876037E-04 Eh
 * total energy  :   -24.8918759 Eh     change       -0.7290838E-04 Eh
 * total energy  :   -24.8919408 Eh     change       -0.6489956E-04 Eh
 * total energy  :   -24.8919681 Eh     change       -0.2728358E-04 Eh
 * total energy  :   -24.8919835 Eh     change       -0.1539036E-04 Eh
 * total energy  :   -24.8919932 Eh     change       -0.9747226E-05 Eh
 * total energy  :   -24.8920058 Eh     change       -0.1259757E-04 Eh
 * total energy  :   -24.8920121 Eh     change       -0.6322184E-05 Eh
 * total energy  :   -24.8920155 Eh     change       -0.3330209E-05 Eh
   *** GEOMETRY OPTIMIZATION CONVERGED AFTER 15 ITERATIONS ***

 final structure:
================
21
 xtb: 6.7.1 (edcfbbe)
C            0.98119242781489        0.11854370877232       -0.39228132689533
C            0.95840044076208       -1.10862830420579       -1.28435281287192
N            0.43607656944613       -2.30738818596676       -0.56109467480047
C            0.15658930556325       -3.42670094984156       -1.48074218631006
C            0.99869288889396       -4.43055592320278       -1.21445757106036
N            1.84056378108678       -4.13707101684136       -0.19203656469159
C            1.40560415985329       -2.89382661037301        0.41353326372577
C            2.59066415218262       -5.08662593787073        0.58546571703484
H           -0.01657994534793        0.35683305060732       -0.02930448571824
H            1.33573859116690        0.96947176847196       -0.96704914343684
H            1.64393436544838       -0.00384302539780        0.46037824762770
H            0.30361650687241       -0.93365174026940       -2.14034549869660
H            1.95344702993599       -1.35475415105453       -1.65867165455852
H           -0.42092289213815       -2.00737128998402       -0.08439937896602
H           -0.57102562441390       -3.30660806803482       -2.25266988601836
H            1.06788269027304       -5.36729706370806       -1.73340340650056
H            0.91581809807766       -3.07787807526256        1.38146206840654
H            2.25377092671177       -2.21925296434200        0.56887770698154
H            2.02439723083091       -5.43777157886660        1.45393849259136
H            2.83935814136311       -5.93875062804875       -0.04104981327022
H            3.51594115561706       -4.62594301458110        0.93102290742730

          :  Hamiltonian                  GFN2-xTB          :
         :: total energy             -24.892015455937 Eh    ::
         :: gradient norm              0.000288138279 Eh/a0 ::
         :: HOMO-LUMO gap              4.162340988110 eV    ::
         :: SCC energy               -25.248698615451 Eh    ::
         :: -> dispersion             -0.013151637018 Eh    ::
         :: repulsion energy           0.356683159513 Eh    ::

    * Orbital Energies and Occupations

         #    Occupation            Energy/Eh            Energy/eV
      -------------------------------------------------------------
         1        2.0000           -0.8803679             -23.9560
       ...           ...                  ...                  ...
        11        2.0000           -0.6991486             -19.0248
        12        2.0000           -0.6943560             -18.8944
        13        2.0000           -0.6821525             -18.5623
        14        2.0000           -0.6690256             -18.2051
        15        2.0000           -0.6589367             -17.9306
        16        2.0000           -0.6483097             -17.6414
        17        2.0000           -0.6457142             -17.5708
        18        2.0000           -0.6353923             -17.2899
        19        2.0000           -0.6211553             -16.9025
        20        2.0000           -0.6163664             -16.7722
        21        2.0000           -0.6091637             -16.5762
        22        2.0000           -0.6077584             -16.5379
        23        2.0000           -0.5180274             -14.0962 (HOMO)
        24                         -0.3650641              -9.9339 (LUMO)
        25                         -0.2409536              -6.5567
        26                         -0.1766483              -4.8068
        27                         -0.1636879              -4.4542
        28                         -0.1456506              -3.9634
        29                         -0.1081216              -2.9421
        30                         -0.0653772              -1.7790
        31                         -0.0501710              -1.3652
        32                         -0.0348575              -0.9485
        33                          0.0015949               0.0434
        34                          0.0115825               0.3152
       ...                                ...                  ...
        45                          0.4719230              12.8417
      -------------------------------------------------------------
                  HL-Gap            0.1529632 Eh            4.1623 eV

     #   Z          covCN         q      C6AA      α(0)
     1   6 C        3.752    -0.135    23.149     6.861
     2   6 C        3.739    -0.031    21.199     6.570
     3   7 N        3.609     0.043    20.490     6.723
     4   6 C        2.911    -0.075    29.862     8.961
     5   6 C        2.919     0.027    27.401     8.584
     6   7 N        2.784    -0.057    22.334     7.019
     7   6 C        3.776     0.032    20.065     6.382
     8   6 C        3.690    -0.069    22.022     6.716
     9   1 H        0.925     0.067     2.120     2.277
    10   1 H        0.925     0.095     1.834     2.118
    11   1 H        0.925     0.065     2.137     2.286
    12   1 H        0.924     0.097     1.813     2.106
    13   1 H        0.924     0.095     1.828     2.114
    14   1 H        0.859     0.225     0.989     1.558
    15   1 H        0.927     0.088     1.894     2.152
    16   1 H        0.926     0.104     1.753     2.070
    17   1 H        0.923     0.087     1.912     2.163
    18   1 H        0.924     0.105     1.743     2.064
    19   1 H        0.924     0.066     2.128     2.281
    20   1 H        0.925     0.093     1.854     2.129
    21   1 H        0.925     0.078     1.998     2.211

Wiberg/Mayer (AO) data.
largest (>0.10) Wiberg bond orders for each atom

     #   Z sym  total        # sym  WBO       # sym  WBO       # sym  WBO
 ---------------------------------------------------------------------------
     1   6 C    3.980 --     2 C    1.024     9 H    0.981    11 H    0.981
                            10 H    0.971
     2   6 C    3.923 --     1 C    1.024    13 H    0.968    12 H    0.966
                             3 N    0.920
     3   7 N    3.768 --     7 C    0.950     2 C    0.920     4 C    0.918
                            14 H    0.915
     4   6 C    3.836 --     5 C    1.722    15 H    0.965     3 N    0.918
                             6 N    0.169
     5   6 C    3.970 --     4 C    1.722     6 N    1.215    16 H    0.954
     6   7 N    3.438 --     5 C    1.215     7 C    1.002     8 C    0.995
                             4 C    0.169
     7   6 C    3.938 --     6 N    1.002    17 H    0.960    18 H    0.957
                             3 N    0.950
     8   6 C    3.952 --     6 N    0.995    21 H    0.976    20 H    0.975
                            19 H    0.970
     9   1 H    0.996 --     1 C    0.981
    10   1 H    0.990 --     1 C    0.971
    11   1 H    0.996 --     1 C    0.981
    12   1 H    0.990 --     2 C    0.966
    13   1 H    0.991 --     2 C    0.968
    14   1 H    0.950 --     3 N    0.915
    15   1 H    0.992 --     4 C    0.965
    16   1 H    0.989 --     5 C    0.954
    17   1 H    0.992 --     7 C    0.960
    18   1 H    0.989 --     7 C    0.957
    19   1 H    0.996 --     8 C    0.970
    20   1 H    0.991 --     8 C    0.975
    21   1 H    0.993 --     8 C    0.976
 ---------------------------------------------------------------------------

molecular dipole:
                 x           y           z       tot (Debye)
 q only:        1.956      -4.958      -0.667
   full:        1.723      -4.917      -0.532      13.312

           -------------------------------------------------
          | TOTAL ENERGY              -24.892015455937 Eh   |
          | GRADIENT NORM               0.000288138279 Eh/α |
          | HOMO-LUMO GAP               4.162340988110 eV   |
           -------------------------------------------------

 * finished run on 2024/12/20 at 06:46:51.387
