   * xtb version 6.7.1 (edcfbbe) compiled by 'conda@3ef47c1a292c' on 2024-11-25

   ID    Z sym.   atoms
    1    6 C      1-12, 14, 16-20
    2    7 N      13
    3    8 O      15
    4    1 H      21-60

          program call               : xtb C0508.xyz --opt --namespace C0508 --charge +1
          :  Hamiltonian                  GFN2-xTB          :
 * total energy  :   -65.5442309 Eh     change       -0.5385203E-09 Eh
 * total energy  :   -65.5507384 Eh     change       -0.6507452E-02 Eh
 * total energy  :   -65.5521834 Eh     change       -0.1444988E-02 Eh
 * total energy  :   -65.5523451 Eh     change       -0.1616717E-03 Eh
 * total energy  :   -65.5525330 Eh     change       -0.1879499E-03 Eh
 * total energy  :   -65.5526418 Eh     change       -0.1087893E-03 Eh
 * total energy  :   -65.5527746 Eh     change       -0.1327769E-03 Eh
 * total energy  :   -65.5528796 Eh     change       -0.1050335E-03 Eh
 * total energy  :   -65.5529394 Eh     change       -0.5981350E-04 Eh
 * total energy  :   -65.5530021 Eh     change       -0.6269142E-04 Eh
 * total energy  :   -65.5531741 Eh     change       -0.2353071E-04 Eh
 * total energy  :   -65.5532014 Eh     change       -0.2729338E-04 Eh
 * total energy  :   -65.5532190 Eh     change       -0.1763371E-04 Eh
 * total energy  :   -65.5532481 Eh     change       -0.2911178E-04 Eh
 * total energy  :   -65.5532724 Eh     change       -0.2432187E-04 Eh
 * total energy  :   -65.5532848 Eh     change       -0.1235090E-04 Eh
 * total energy  :   -65.5532933 Eh     change       -0.8550933E-05 Eh
 * total energy  :   -65.5533028 Eh     change       -0.9479214E-05 Eh
 * total energy  :   -65.5533068 Eh     change       -0.3935725E-05 Eh
   *** GEOMETRY OPTIMIZATION CONVERGED AFTER 22 ITERATIONS ***

 final structure:
================
60
 xtb: 6.7.1 (edcfbbe)
C            1.54582002787010        0.53076466858569        0.52950132518372
C            1.35231029833218        1.38298748741470       -0.71893097493112
C            1.69756695031382        0.64544685865074       -2.01372210102776
C            0.84920219821423       -0.59664028039417       -2.29611887858094
C           -0.65978658311233       -0.35061866616853       -2.34872349757703
C           -1.11013209649720        0.67632765300072       -3.38910649633915
C           -0.77296466629193        0.31876324074231       -4.83815978919519
C           -1.36116164159513       -1.00607363166501       -5.32932687667788
C           -2.88124610042958       -1.12234824432807       -5.19951921816772
C           -3.68120639199163       -0.03625737789114       -5.92328462322376
C           -3.42861139905800        0.05819480468470       -7.43354986863159
C           -3.76034950924932       -1.20558894974105       -8.23511637084171
N           -5.11259567722501       -1.26785494960771       -8.86795501126918
C           -5.21003171048326       -0.25192991347129       -9.98429224745326
O           -4.24844839334735       -0.52095588222958      -10.93375970395668
C           -3.41140581084561        0.57125003828427      -11.33296779354394
C           -4.14506227147992        1.59193948808088      -12.18880185597618
C           -5.30351882307699       -2.61098052404084       -9.50832968200482
C           -5.26018389963900       -3.81188068708715       -8.57877211960724
C           -6.18494546770890       -1.00812054797548       -7.89633975226373
H            0.84888777001319       -0.30331229948439        0.54931517796307
H            1.37999902516689        1.12953532039776        1.42202613235607
H            2.55830223076923        0.13508871014724        0.56683320957180
H            0.32247927824399        1.74304199811385       -0.75768489355117
H            1.99882255684610        2.26104707032052       -0.64893974971165
H            1.60819169125509        1.34435475941419       -2.84852397633412
H            2.74368400077358        0.33309014824387       -1.96680329418764
H            1.18106640001081       -1.02922304854315       -3.24296139003472
H            1.04246140464499       -1.34202084011265       -1.52270449175663
H           -1.15642449073166       -1.30526049979764       -2.53812478446166
H           -0.99822875647373       -0.00786630342441       -1.36958304887231
H           -2.18924025971740        0.81655015939692       -3.28874350764585
H           -0.64505381413157        1.63709526974188       -3.16380513591884
H           -1.11490234050279        1.13400694884877       -5.48121499627478
H            0.31100841457799        0.26426397874252       -4.94757816467806
H           -1.06585071402869       -1.15318003648016       -6.37173476164508
H           -0.91608875399988       -1.82241830556718       -4.75929963072036
H           -3.18233934436481       -2.11402921636110       -5.54971375001866
H           -3.14801333355282       -1.07501638166207       -4.14360546211025
H           -4.74045181374039       -0.19511895719317       -5.71555172529179
H           -3.41717492272566        0.92983048171556       -5.49277214625174
H           -3.96117810006532        0.92729927489827       -7.82274041539231
H           -2.36640116694844        0.25914726112235       -7.57669670124151
H           -3.04707666570097       -1.32839170246575       -9.05239355932470
H           -3.66950628720661       -2.06331839132632       -7.57152838537080
H           -6.21954880590713       -0.34619864540235      -10.40797356122072
H           -5.09638705764033        0.74910187006582       -9.55335720246376
H           -2.97477030598506        1.04858120989087      -10.44669614588285
H           -2.61734349686935        0.09532354003952      -11.90998954731669
H           -4.93034899730176        2.09423471846532      -11.62773436449918
H           -3.43975491244889        2.34032794630771      -12.53659073557878
H           -4.58939278986261        1.10521836063404      -13.05252540859037
H           -6.27398482966229       -2.58520589816447      -10.00826474828166
H           -4.53349047090028       -2.70450823979512      -10.27601727367459
H           -6.00355465228014       -3.75422343150488       -7.78897759639478
H           -5.48914823467586       -4.69180702155836       -9.17498499256072
H           -4.27984585651633       -3.97145418355651       -8.13988022129869
H           -6.07260501536787       -1.66594883769539       -7.03828968595033
H           -6.14596230415761        0.02387342601354       -7.55569822088168
H           -7.15613331151805       -1.18644479727407       -8.35549530843483

          :  Hamiltonian                  GFN2-xTB          :
         :: total energy             -65.553306750272 Eh    ::
         :: gradient norm              0.000253491964 Eh/a0 ::
         :: HOMO-LUMO gap              6.421520817008 eV    ::
         :: SCC energy               -66.449157089455 Eh    ::
         :: -> dispersion             -0.049020380473 Eh    ::
         :: repulsion energy           0.895850339183 Eh    ::

    * Orbital Energies and Occupations

         #    Occupation            Energy/Eh            Energy/eV
      -------------------------------------------------------------
         1        2.0000           -0.8696801             -23.6652
       ...           ...                  ...                  ...
        49        2.0000           -0.5456040             -14.8466
        50        2.0000           -0.5406500             -14.7118
        51        2.0000           -0.5329994             -14.5037
        52        2.0000           -0.5304847             -14.4352
        53        2.0000           -0.5196998             -14.1418
        54        2.0000           -0.5160532             -14.0425
        55        2.0000           -0.5084443             -13.8355
        56        2.0000           -0.4986597             -13.5692
        57        2.0000           -0.4945185             -13.4565
        58        2.0000           -0.4909624             -13.3598
        59        2.0000           -0.4755432             -12.9402
        60        2.0000           -0.4719866             -12.8434
        61        2.0000           -0.4697029             -12.7813 (HOMO)
        62                         -0.2337164              -6.3597 (LUMO)
        63                         -0.1810374              -4.9263
        64                         -0.1556837              -4.2364
        65                         -0.1422835              -3.8717
        66                         -0.1140624              -3.1038
        67                         -0.0710633              -1.9337
        68                         -0.0606756              -1.6511
        69                         -0.0448879              -1.2215
        70                         -0.0312911              -0.8515
        71                         -0.0291962              -0.7945
        72                         -0.0212710              -0.5788
       ...                                ...                  ...
       120                          0.2527868               6.8787
      -------------------------------------------------------------
                  HL-Gap            0.2359865 Eh            6.4215 eV

     #   Z          covCN         q      C6AA      α(0)
     1   6 C        3.751    -0.103    22.523     6.768
     2   6 C        3.799    -0.053    21.519     6.605
     3   6 C        3.800    -0.058    21.614     6.619
     4   6 C        3.800    -0.058    21.614     6.619
     5   6 C        3.800    -0.058    21.615     6.620
     6   6 C        3.800    -0.059    21.633     6.622
     7   6 C        3.800    -0.059    21.640     6.623
     8   6 C        3.800    -0.061    21.678     6.629
     9   6 C        3.800    -0.062    21.698     6.632
    10   6 C        3.800    -0.070    21.841     6.654
    11   6 C        3.799    -0.070    21.839     6.654
    12   6 C        3.752    -0.038    21.321     6.585
    13   7 N        3.617     0.099    19.537     6.565
    14   6 C        3.653     0.119    18.923     6.246
    15   8 O        1.700    -0.300    18.992     5.884
    16   6 C        3.689     0.068    19.614     6.339
    17   6 C        3.750    -0.127    23.002     6.840
    18   6 C        3.762    -0.034    21.224     6.567
    19   6 C        3.751    -0.128    23.023     6.843
    20   6 C        3.710    -0.090    22.371     6.760
    21   1 H        0.925     0.034     2.534     2.490
    22   1 H        0.925     0.034     2.529     2.487
    23   1 H        0.925     0.036     2.504     2.475
    24   1 H        0.924     0.029     2.600     2.522
    25   1 H        0.924     0.029     2.594     2.519
    26   1 H        0.924     0.026     2.642     2.542
    27   1 H        0.924     0.032     2.556     2.500
    28   1 H        0.924     0.026     2.650     2.546
    29   1 H        0.924     0.036     2.507     2.476
    30   1 H        0.924     0.024     2.666     2.554
    31   1 H        0.924     0.037     2.487     2.466
    32   1 H        0.924     0.024     2.678     2.559
    33   1 H        0.924     0.040     2.455     2.450
    34   1 H        0.924     0.022     2.708     2.573
    35   1 H        0.924     0.042     2.428     2.437
    36   1 H        0.924     0.021     2.717     2.577
    37   1 H        0.924     0.046     2.375     2.410
    38   1 H        0.924     0.018     2.761     2.599
    39   1 H        0.925     0.053     2.279     2.361
    40   1 H        0.924     0.031     2.568     2.506
    41   1 H        0.925     0.060     2.195     2.317
    42   1 H        0.924     0.039     2.464     2.455
    43   1 H        0.924     0.074     2.040     2.234
    44   1 H        0.924     0.087     1.911     2.162
    45   1 H        0.925     0.096     1.818     2.108
    46   1 H        0.923     0.073     2.052     2.240
    47   1 H        0.924     0.071     2.076     2.253
    48   1 H        0.924     0.038     2.471     2.458
    49   1 H        0.924     0.080     1.974     2.197
    50   1 H        0.925     0.047     2.364     2.404
    51   1 H        0.925     0.070     2.084     2.258
    52   1 H        0.925     0.069     2.102     2.267
    53   1 H        0.924     0.082     1.956     2.187
    54   1 H        0.924     0.103     1.759     2.074
    55   1 H        0.925     0.067     2.124     2.279
    56   1 H        0.925     0.087     1.908     2.160
    57   1 H        0.925     0.066     2.132     2.283
    58   1 H        0.925     0.107     1.722     2.052
    59   1 H        0.925     0.096     1.826     2.113
    60   1 H        0.925     0.091     1.872     2.140

Wiberg/Mayer (AO) data.
largest (>0.10) Wiberg bond orders for each atom

     #   Z sym  total        # sym  WBO       # sym  WBO       # sym  WBO
 ---------------------------------------------------------------------------
     1   6 C    3.997 --     2 C    1.020    23 H    0.988    22 H    0.987
                            21 H    0.986
     2   6 C    3.998 --     1 C    1.020     3 C    1.008    25 H    0.978
                            24 H    0.976
     3   6 C    3.997 --     2 C    1.008     4 C    1.007    27 H    0.977
                            26 H    0.976
     4   6 C    3.997 --     5 C    1.008     3 C    1.007    28 H    0.976
                            29 H    0.975
     5   6 C    3.997 --     4 C    1.008     6 C    1.008    30 H    0.975
                            31 H    0.974
     6   6 C    3.997 --     5 C    1.008     7 C    1.007    32 H    0.975
                            33 H    0.974
     7   6 C    3.997 --     6 C    1.007     8 C    1.007    34 H    0.976
                            35 H    0.974
     8   6 C    3.996 --     9 C    1.007     7 C    1.007    36 H    0.976
                            37 H    0.973
     9   6 C    3.994 --    10 C    1.007     8 C    1.007    38 H    0.971
                            39 H    0.971
    10   6 C    3.992 --     9 C    1.007    11 C    1.004    40 H    0.974
                            41 H    0.970
    11   6 C    3.986 --    10 C    1.004    12 C    1.004    42 H    0.966
                            43 H    0.965
    12   6 C    3.921 --    11 C    1.004    44 H    0.967    45 H    0.953
                            13 N    0.923
    13   7 N    3.795 --    20 C    0.964    12 C    0.923    18 C    0.920
                            14 C    0.907
    14   6 C    3.934 --    15 O    1.047    46 H    0.955    47 H    0.953
                            13 N    0.907
    15   8 O    2.112 --    14 C    1.047    16 C    0.936
    16   6 C    3.920 --    17 C    1.018    48 H    0.970    49 H    0.968
                            15 O    0.936
    17   6 C    3.989 --    16 C    1.018    50 H    0.985    52 H    0.984
                            51 H    0.979
    18   6 C    3.926 --    19 C    1.024    53 H    0.967    54 H    0.963
                            13 N    0.920
    19   6 C    3.982 --    18 C    1.024    55 H    0.980    57 H    0.979
                            56 H    0.971
    20   6 C    3.931 --    60 H    0.975    59 H    0.972    58 H    0.969
                            13 N    0.964
    21   1 H    0.999 --     1 C    0.986
    22   1 H    0.999 --     1 C    0.987
    23   1 H    0.999 --     1 C    0.988
    24   1 H    0.999 --     2 C    0.976
    25   1 H    0.999 --     2 C    0.978
    26   1 H    0.999 --     3 C    0.976
    27   1 H    0.999 --     3 C    0.977
    28   1 H    0.999 --     4 C    0.976
    29   1 H    0.999 --     4 C    0.975
    30   1 H    0.999 --     5 C    0.975
    31   1 H    0.999 --     5 C    0.974
    32   1 H    0.999 --     6 C    0.975
    33   1 H    0.998 --     6 C    0.974
    34   1 H    1.000 --     7 C    0.976
    35   1 H    0.998 --     7 C    0.974
    36   1 H    1.000 --     8 C    0.976
    37   1 H    0.998 --     8 C    0.973
    38   1 H    1.000 --     9 C    0.971
    39   1 H    0.997 --     9 C    0.971
    40   1 H    0.999 --    10 C    0.974
    41   1 H    0.996 --    10 C    0.970
    42   1 H    0.998 --    11 C    0.966
    43   1 H    0.994 --    11 C    0.965
    44   1 H    0.992 --    12 C    0.967
    45   1 H    0.991 --    12 C    0.953
    46   1 H    0.995 --    14 C    0.955
    47   1 H    0.995 --    14 C    0.953
    48   1 H    0.998 --    16 C    0.970
    49   1 H    0.993 --    16 C    0.968
    50   1 H    0.998 --    17 C    0.985
    51   1 H    0.995 --    17 C    0.979
    52   1 H    0.995 --    17 C    0.984
    53   1 H    0.993 --    18 C    0.967
    54   1 H    0.989 --    18 C    0.963
    55   1 H    0.996 --    19 C    0.980
    56   1 H    0.992 --    19 C    0.971
    57   1 H    0.996 --    19 C    0.979
    58   1 H    0.988 --    20 C    0.969
    59   1 H    0.991 --    20 C    0.972
    60   1 H    0.992 --    20 C    0.975
 ---------------------------------------------------------------------------

molecular dipole:
                 x           y           z       tot (Debye)
 q only:       -8.944      -1.832     -16.313
   full:       -9.075      -1.682     -16.334      47.686

           -------------------------------------------------
          | TOTAL ENERGY              -65.553306750272 Eh   |
          | GRADIENT NORM               0.000253491964 Eh/α |
          | HOMO-LUMO GAP               6.421520817008 eV   |
           -------------------------------------------------

 * finished run on 2024/12/20 at 06:46:54.769
