   * xtb version 6.7.1 (edcfbbe) compiled by 'conda@3ef47c1a292c' on 2024-11-25

   ID    Z sym.   atoms
    1    6 C      1-7, 9, 10, 12-19
    2    8 O      8
    3    7 N      11
    4    1 H      20-41

          program call               : xtb C0502.xyz --opt --namespace C0502 --charge +1
          :  Hamiltonian                  GFN2-xTB          :
 * total energy  :   -54.1968649 Eh     change       -0.7740866E-09 Eh
 * total energy  :   -54.2049389 Eh     change       -0.8074007E-02 Eh
 * total energy  :   -54.2072480 Eh     change       -0.2309138E-02 Eh
 * total energy  :   -54.2075994 Eh     change       -0.3514134E-03 Eh
 * total energy  :   -54.2078013 Eh     change       -0.2018740E-03 Eh
 * total energy  :   -54.2078836 Eh     change       -0.8223991E-04 Eh
 * total energy  :   -54.2079698 Eh     change       -0.8628319E-04 Eh
 * total energy  :   -54.2080528 Eh     change       -0.8298875E-04 Eh
 * total energy  :   -54.2080799 Eh     change       -0.2707935E-04 Eh
 * total energy  :   -54.2081194 Eh     change       -0.3947002E-04 Eh
 * total energy  :   -54.2160906 Eh     change       -0.5383667E-05 Eh
 * total energy  :   -54.2160961 Eh     change       -0.5507895E-05 Eh
 * total energy  :   -54.2161018 Eh     change       -0.5672002E-05 Eh
 * total energy  :   -54.2161076 Eh     change       -0.5762542E-05 Eh
 * total energy  :   -54.2161133 Eh     change       -0.5736383E-05 Eh
 * total energy  :   -54.2161189 Eh     change       -0.5607620E-05 Eh
 * total energy  :   -54.2161243 Eh     change       -0.5381492E-05 Eh
 * total energy  :   -54.2161294 Eh     change       -0.5085221E-05 Eh
 * total energy  :   -54.2161342 Eh     change       -0.4785349E-05 Eh
   *** GEOMETRY OPTIMIZATION CONVERGED AFTER 131 ITERATIONS ***

 final structure:
================
41
 xtb: 6.7.1 (edcfbbe)
C           -1.67496989647976        1.11334411611509        0.79732244870938
C           -0.41140631046145        0.51408481324761        0.25118320728684
C           -0.04853397018297       -0.78586007731828        0.56469306721175
C            1.11189659129641       -1.35330550766896        0.05388022706423
C            1.93155718401756       -0.58573376984234       -0.76943324991322
C            1.61140221303519        0.71985938705070       -1.08887373350132
C            0.42461378674124        1.26808836144373       -0.57999952029953
O            0.14207368151133        2.54090669947629       -0.92487786769429
C            2.48913025170946        1.56605918354124       -1.95048747990487
C            1.49078067058387       -2.76938211874974        0.38221034061827
N            0.75449284289515       -3.78182982730584       -0.46522321732528
C           -0.68961268123008       -3.72357310694810       -0.13352051349603
C           -1.63234156290814       -3.25319500534911       -1.03428658290025
C           -2.96985077482271       -3.19806442066900       -0.67015848520642
C           -3.37776209301098       -3.60652020634824        0.58570776079790
C           -2.43528730858227       -4.07077148112226        1.48746454510245
C           -1.09911060174702       -4.12691742071637        1.13352714658194
C            1.27074020479533       -5.13737871777971       -0.18056661984757
C            1.02639403590272       -3.49651383785051       -1.88568534723022
H           -1.45748106364446        1.97517562962422        1.42964866498917
H           -2.33682622646639        1.43322324291505       -0.00898488656425
H           -2.20908872567785        0.38394718194040        1.39962766456768
H           -0.68327102773348       -1.35462228645089        1.22789050195036
H            2.85113317086589       -1.00252827497309       -1.15451574575642
H           -0.66976422234785        2.84135317374138       -0.49810122250426
H            1.93471450299833        1.91817393355153       -2.81849176281740
H            2.80690510672933        2.44824907563708       -1.39775893244384
H            3.36583089296714        1.01676023137836       -2.28018053690234
H            2.55848716408798       -2.91922068907229        0.21079529747550
H            1.26767812302789       -2.98742118747990        1.42720787632380
H           -1.36494500174015       -2.91762501454961       -2.02073531749242
H           -3.69100228771056       -2.82992669137894       -1.38225569207549
H           -4.41864234119948       -3.56196760339831        0.86269934389619
H           -2.73408145533503       -4.38930696496728        2.47349599376415
H           -0.39423257358433       -4.48143854617433        1.86881355849317
H            0.67533476187596       -5.87419692540080       -0.71801852876590
H            2.30735582879881       -5.21441415710921       -0.50416544278499
H            1.22816779107923       -5.36153044742100        0.88160561747400
H            0.48809181874317       -4.19859264910109       -2.51936177869187
H            0.74068591364814       -2.47471089285383       -2.12691713979439
H            2.09371358753986       -3.60293720165284       -2.07229365839226

          :  Hamiltonian                  GFN2-xTB          :
         :: total energy             -54.216134170981 Eh    ::
         :: gradient norm              0.000169956614 Eh/a0 ::
         :: HOMO-LUMO gap              3.011052374722 eV    ::
         :: SCC energy               -55.102439781528 Eh    ::
         :: -> dispersion             -0.042672281028 Eh    ::
         :: repulsion energy           0.886305610547 Eh    ::

    * Orbital Energies and Occupations

         #    Occupation            Energy/Eh            Energy/eV
      -------------------------------------------------------------
         1        2.0000           -0.8476040             -23.0645
       ...           ...                  ...                  ...
        38        2.0000           -0.5789213             -15.7533
        39        2.0000           -0.5746164             -15.6361
        40        2.0000           -0.5743049             -15.6276
        41        2.0000           -0.5683418             -15.4654
        42        2.0000           -0.5601260             -15.2418
        43        2.0000           -0.5556731             -15.1206
        44        2.0000           -0.5539886             -15.0748
        45        2.0000           -0.5484351             -14.9237
        46        2.0000           -0.5467946             -14.8790
        47        2.0000           -0.5394461             -14.6791
        48        2.0000           -0.5293527             -14.4044
        49        2.0000           -0.5010347             -13.6338
        50        2.0000           -0.4823819             -13.1263 (HOMO)
        51                         -0.3717278             -10.1152 (LUMO)
        52                         -0.3649415              -9.9306
        53                         -0.3335207              -9.0756
        54                         -0.3275533              -8.9132
        55                         -0.2382323              -6.4826
        56                         -0.2225214              -6.0551
        57                         -0.1947549              -5.2996
        58                         -0.1425230              -3.8782
        59                         -0.1243181              -3.3829
        60                         -0.1153860              -3.1398
        61                         -0.0544893              -1.4827
       ...                                ...                  ...
        98                          0.5389661              14.6660
      -------------------------------------------------------------
                  HL-Gap            0.1106541 Eh            3.0111 eV

     #   Z          covCN         q      C6AA      α(0)
     1   6 C        3.757    -0.113    22.722     6.796
     2   6 C        2.961    -0.020    28.507     8.758
     3   6 C        2.927    -0.056    29.396     8.891
     4   6 C        2.964    -0.026    28.652     8.780
     5   6 C        2.928    -0.059    29.473     8.903
     6   6 C        2.962     0.004    27.927     8.668
     7   6 C        2.856     0.136    25.027     8.200
     8   8 O        1.660    -0.368    20.240     6.073
     9   6 C        3.759    -0.115    22.747     6.799
    10   6 C        3.765    -0.032    21.193     6.561
    11   7 N        3.623     0.119    19.194     6.507
    12   6 C        2.928     0.038    27.146     8.544
    13   6 C        2.920    -0.037    28.928     8.820
    14   6 C        2.922    -0.018    28.453     8.747
    15   6 C        2.918    -0.017    28.435     8.744
    16   6 C        2.921    -0.019    28.471     8.750
    17   6 C        2.922    -0.037    28.925     8.820
    18   6 C        3.724    -0.085    22.244     6.735
    19   6 C        3.720    -0.087    22.276     6.741
    20   1 H        0.924     0.056     2.242     2.342
    21   1 H        0.924     0.051     2.307     2.375
    22   1 H        0.925     0.052     2.294     2.369
    23   1 H        0.926     0.032     2.554     2.499
    24   1 H        0.926     0.041     2.431     2.438
    25   1 H        0.805     0.316     0.676     1.291
    26   1 H        0.925     0.070     2.089     2.260
    27   1 H        0.925     0.073     2.052     2.240
    28   1 H        0.925     0.050     2.321     2.383
    29   1 H        0.924     0.079     1.993     2.208
    30   1 H        0.924     0.080     1.979     2.200
    31   1 H        0.926     0.061     2.183     2.311
    32   1 H        0.926     0.069     2.091     2.261
    33   1 H        0.926     0.072     2.065     2.247
    34   1 H        0.926     0.069     2.092     2.262
    35   1 H        0.926     0.052     2.289     2.366
    36   1 H        0.925     0.094     1.845     2.124
    37   1 H        0.925     0.093     1.855     2.130
    38   1 H        0.925     0.095     1.832     2.117
    39   1 H        0.925     0.093     1.852     2.128
    40   1 H        0.925     0.102     1.764     2.077
    41   1 H        0.925     0.092     1.858     2.132

Wiberg/Mayer (AO) data.
largest (>0.10) Wiberg bond orders for each atom

     #   Z sym  total        # sym  WBO       # sym  WBO       # sym  WBO
 ---------------------------------------------------------------------------
     1   6 C    3.994 --     2 C    1.025    22 H    0.983    21 H    0.969
                            20 H    0.968
     2   6 C    3.988 --     3 C    1.424     7 C    1.340     1 C    1.025
     3   6 C    3.990 --     2 C    1.424     4 C    1.402    23 H    0.966
     4   6 C    3.972 --     3 C    1.402     5 C    1.385    10 C    1.009
     5   6 C    3.988 --     6 C    1.438     4 C    1.385    24 H    0.965
     6   6 C    3.988 --     5 C    1.438     7 C    1.316     9 C    1.035
     7   6 C    3.943 --     2 C    1.340     6 C    1.316     8 O    1.108
     8   8 O    2.163 --     7 C    1.108    25 H    0.872
     9   6 C    3.992 --     6 C    1.035    28 H    0.985    26 H    0.965
                            27 H    0.963
    10   6 C    3.926 --     4 C    1.009    29 H    0.966    30 H    0.964
                            11 N    0.895
    11   7 N    3.801 --    19 C    0.962    18 C    0.957    12 C    0.914
                            10 C    0.895
    12   6 C    3.928 --    13 C    1.426    17 C    1.405    11 N    0.914
                            15 C    0.108
    13   6 C    3.989 --    14 C    1.427    12 C    1.426    31 H    0.962
                            16 C    0.109
    14   6 C    3.988 --    15 C    1.448    13 C    1.427    32 H    0.967
                            17 C    0.112
    15   6 C    3.987 --    14 C    1.448    16 C    1.431    33 H    0.967
                            12 C    0.108
    16   6 C    3.988 --    17 C    1.447    15 C    1.431    34 H    0.967
                            13 C    0.109
    17   6 C    3.990 --    16 C    1.447    12 C    1.405    35 H    0.960
                            14 C    0.112
    18   6 C    3.933 --    36 H    0.976    37 H    0.974    38 H    0.972
                            11 N    0.957
    19   6 C    3.931 --    39 H    0.976    41 H    0.974    40 H    0.967
                            11 N    0.962
    20   1 H    0.997 --     1 C    0.968
    21   1 H    0.997 --     1 C    0.969
    22   1 H    0.997 --     1 C    0.983
    23   1 H    0.999 --     3 C    0.966
    24   1 H    0.998 --     5 C    0.965
    25   1 H    0.900 --     8 O    0.872
    26   1 H    0.995 --     9 C    0.965
    27   1 H    0.994 --     9 C    0.963
    28   1 H    0.997 --     9 C    0.985
    29   1 H    0.993 --    10 C    0.966
    30   1 H    0.993 --    10 C    0.964
    31   1 H    0.996 --    13 C    0.962
    32   1 H    0.995 --    14 C    0.967
    33   1 H    0.994 --    15 C    0.967
    34   1 H    0.995 --    16 C    0.967
    35   1 H    0.997 --    17 C    0.960
    36   1 H    0.990 --    18 C    0.976
    37   1 H    0.991 --    18 C    0.974
    38   1 H    0.991 --    18 C    0.972
    39   1 H    0.991 --    19 C    0.976
    40   1 H    0.990 --    19 C    0.967
    41   1 H    0.991 --    19 C    0.974
 ---------------------------------------------------------------------------

molecular dipole:
                 x           y           z       tot (Debye)
 q only:        0.144      -5.727      -0.718
   full:        0.036      -5.821      -0.542      14.860

           -------------------------------------------------
          | TOTAL ENERGY              -54.216134170981 Eh   |
          | GRADIENT NORM               0.000169956614 Eh/α |
          | HOMO-LUMO GAP               3.011052374722 eV   |
           -------------------------------------------------

 * finished run on 2024/12/20 at 06:46:49.348
