   * xtb version 6.7.1 (edcfbbe) compiled by 'conda@3ef47c1a292c' on 2024-11-25

   ID    Z sym.   atoms
    1    6 C      1, 3-5, 7-12
    2    7 N      2, 6
    3    1 H      13-25

          program call               : xtb C0509.xyz --opt --namespace C0509 --charge +1
          :  Hamiltonian                  GFN2-xTB          :
 * total energy  :   -33.4115733 Eh     change       -0.1088203E-08 Eh
 * total energy  :   -33.4439730 Eh     change       -0.3239973E-01 Eh
 * total energy  :   -33.4459940 Eh     change       -0.2020969E-02 Eh
 * total energy  :   -33.4464859 Eh     change       -0.4919325E-03 Eh
 * total energy  :   -33.4467197 Eh     change       -0.2338348E-03 Eh
 * total energy  :   -33.4468750 Eh     change       -0.1552741E-03 Eh
 * total energy  :   -33.4469752 Eh     change       -0.1002489E-03 Eh
 * total energy  :   -33.4470511 Eh     change       -0.7584300E-04 Eh
 * total energy  :   -33.4470963 Eh     change       -0.4520610E-04 Eh
 * total energy  :   -33.4471185 Eh     change       -0.2217983E-04 Eh
 * total energy  :   -33.4471287 Eh     change       -0.1026433E-04 Eh
 * total energy  :   -33.4471339 Eh     change       -0.5208308E-05 Eh
 * total energy  :   -33.4471352 Eh     change       -0.1276776E-05 Eh
   *** GEOMETRY OPTIMIZATION CONVERGED AFTER 13 ITERATIONS ***

 final structure:
================
25
 xtb: 6.7.1 (edcfbbe)
C            1.06774692361690       -0.09103164747554        0.30469994895382
N           -0.05577793448826       -0.13674850653324        0.50479438545290
C            2.50246149182402       -0.03761898547954        0.15606690170688
C            3.11878441668722        1.03213243671099        1.06969844864041
C            2.64002315737541        0.94920831403465        2.52773087300111
N            3.02098857840152       -0.29949446158105        3.17594365030878
C            4.21433595499825       -0.43564822328381        3.79136519447432
C            4.53835699290096       -1.66225619776916        4.36367190329756
C            3.65961936703405       -2.72825562871422        4.30846247552349
C            2.43478949114377       -2.54908832700218        3.67397181844773
C            2.14970589089212       -1.32247153645645        3.12362222343160
C            5.15417415427666        0.71124081037035        3.88745827578176
H            2.90746432206850       -1.03109650878866        0.37457106940869
H            2.73633574395580        0.19543515560565       -0.88541723944650
H            4.20491839749250        0.95100070577031        1.01020458107464
H            2.83633105205741        2.02016492997724        0.70297258454133
H            3.04760178005814        1.78888347254699        3.09091977991652
H            1.55026613834268        1.02495024108143        2.54535349766165
H            5.49087876172937       -1.76861784558751        4.85804992212121
H            3.91742491146830       -3.67587461051831        4.75428298543141
H            1.71052949795254       -3.34457586172620        3.61204461734178
H            1.20582285930707       -1.13715495620677        2.63076610769316
H            5.37404355363944        1.14999858548803        2.91682751626905
H            4.73664885421924        1.49562028090446        4.52092287859524
H            6.09012564304628        0.38960836463221        4.33504560037131

          :  Hamiltonian                  GFN2-xTB          :
         :: total energy             -33.447135224558 Eh    ::
         :: gradient norm              0.000354756605 Eh/a0 ::
         :: HOMO-LUMO gap              2.404139308574 eV    ::
         :: SCC energy               -34.040687975970 Eh    ::
         :: -> dispersion             -0.020951365779 Eh    ::
         :: repulsion energy           0.593552751411 Eh    ::

    * Orbital Energies and Occupations

         #    Occupation            Energy/Eh            Energy/eV
      -------------------------------------------------------------
         1        2.0000           -0.8797584             -23.9394
       ...           ...                  ...                  ...
        19        2.0000           -0.6658158             -18.1178
        20        2.0000           -0.6572331             -17.8842
        21        2.0000           -0.6422064             -17.4753
        22        2.0000           -0.6384923             -17.3743
        23        2.0000           -0.6311069             -17.1733
        24        2.0000           -0.6250867             -17.0095
        25        2.0000           -0.6168920             -16.7865
        26        2.0000           -0.6159572             -16.7610
        27        2.0000           -0.6101876             -16.6040
        28        2.0000           -0.5994815             -16.3127
        29        2.0000           -0.5923997             -16.1200
        30        2.0000           -0.5849266             -15.9167
        31        2.0000           -0.5456478             -14.8478 (HOMO)
        32                         -0.4572973             -12.4437 (LUMO)
        33                         -0.4246208             -11.5545
        34                         -0.3327713              -9.0552
        35                         -0.3270541              -8.8996
        36                         -0.3068579              -8.3500
        37                         -0.1839547              -5.0057
        38                         -0.0939099              -2.5554
        39                         -0.0872538              -2.3743
        40                         -0.0559671              -1.5229
        41                         -0.0477617              -1.2997
        42                         -0.0360952              -0.9822
       ...                                ...                  ...
        61                          1.0213574              27.7925
      -------------------------------------------------------------
                  HL-Gap            0.0883505 Eh            2.4041 eV

     #   Z          covCN         q      C6AA      α(0)
     1   6 C        1.897     0.109    28.407     8.608
     2   7 N        0.911    -0.212    25.616     7.320
     3   6 C        3.803    -0.062    21.689     6.630
     4   6 C        3.805    -0.061    21.673     6.627
     5   6 C        3.756    -0.036    21.279     6.577
     6   7 N        2.750     0.085    19.771     6.604
     7   6 C        2.924     0.092    25.959     8.355
     8   6 C        2.922    -0.026    28.643     8.777
     9   6 C        2.922     0.011    27.771     8.642
    10   6 C        2.915    -0.016    28.414     8.741
    11   6 C        2.888     0.029    27.356     8.575
    12   6 C        3.758    -0.139    23.235     6.872
    13   1 H        0.924     0.068     2.106     2.269
    14   1 H        0.924     0.099     1.792     2.094
    15   1 H        0.924     0.061     2.183     2.311
    16   1 H        0.924     0.084     1.935     2.175
    17   1 H        0.925     0.096     1.820     2.110
    18   1 H        0.924     0.097     1.809     2.103
    19   1 H        0.926     0.102     1.769     2.080
    20   1 H        0.926     0.105     1.743     2.064
    21   1 H        0.926     0.107     1.722     2.052
    22   1 H        0.926     0.113     1.672     2.022
    23   1 H        0.925     0.096     1.825     2.112
    24   1 H        0.924     0.101     1.776     2.084
    25   1 H        0.925     0.097     1.813     2.106

Wiberg/Mayer (AO) data.
largest (>0.10) Wiberg bond orders for each atom

     #   Z sym  total        # sym  WBO       # sym  WBO       # sym  WBO
 ---------------------------------------------------------------------------
     1   6 C    3.948 --     2 N    2.858     3 C    1.049
     2   7 N    3.017 --     1 C    2.858
     3   6 C    3.994 --     1 C    1.049     4 C    0.984    13 H    0.946
                            14 H    0.939
     4   6 C    3.987 --     5 C    0.985     3 C    0.984    15 H    0.971
                            16 H    0.967
     5   6 C    3.939 --     4 C    0.985     6 N    0.965    18 H    0.960
                            17 H    0.957
     6   7 N    3.745 --    11 C    1.306     7 C    1.293     5 C    0.965
     7   6 C    3.958 --     8 C    1.400     6 N    1.293    12 C    1.051
     8   6 C    3.983 --     9 C    1.455     7 C    1.400    19 H    0.959
                            11 C    0.100
     9   6 C    3.971 --     8 C    1.455    10 C    1.395    20 H    0.961
    10   6 C    3.982 --    11 C    1.485     9 C    1.395    21 H    0.959
    11   6 C    3.956 --    10 C    1.485     6 N    1.306    22 H    0.949
                             8 C    0.100
    12   6 C    3.979 --     7 C    1.051    25 H    0.974    23 H    0.952
                            24 H    0.939
    13   1 H    0.995 --     3 C    0.946
    14   1 H    0.990 --     3 C    0.939
    15   1 H    0.996 --     4 C    0.971
    16   1 H    0.992 --     4 C    0.967
    17   1 H    0.990 --     5 C    0.957
    18   1 H    0.990 --     5 C    0.960
    19   1 H    0.989 --     8 C    0.959
    20   1 H    0.989 --     9 C    0.961
    21   1 H    0.988 --    10 C    0.959
    22   1 H    0.987 --    11 C    0.949
    23   1 H    0.991 --    12 C    0.952
    24   1 H    0.990 --    12 C    0.939
    25   1 H    0.990 --    12 C    0.974
 ---------------------------------------------------------------------------

molecular dipole:
                 x           y           z       tot (Debye)
 q only:        7.258      -0.998       6.118
   full:        7.663      -1.013       6.038      24.930

           -------------------------------------------------
          | TOTAL ENERGY              -33.447135224558 Eh   |
          | GRADIENT NORM               0.000354756605 Eh/α |
          | HOMO-LUMO GAP               2.404139308574 eV   |
           -------------------------------------------------

 * finished run on 2024/12/20 at 06:46:55.296
