   * xtb version 6.7.1 (edcfbbe) compiled by 'conda@3ef47c1a292c' on 2024-11-25

   ID    Z sym.   atoms
    1    6 C      1, 4, 6-9
    2    7 N      2, 3, 5
    3    9 F      10-12
    4    1 H      13-21

          program call               : xtb C0505.xyz --opt --namespace C0505 --charge +1
          :  Hamiltonian                  GFN2-xTB          :
 * total energy  :   -40.0037039 Eh     change       -0.2924594E-10 Eh
 * total energy  :   -40.0098724 Eh     change       -0.6168445E-02 Eh
 * total energy  :   -40.0110457 Eh     change       -0.1173274E-02 Eh
 * total energy  :   -40.0111109 Eh     change       -0.6523822E-04 Eh
 * total energy  :   -40.0111578 Eh     change       -0.4690791E-04 Eh
 * total energy  :   -40.0111806 Eh     change       -0.2279173E-04 Eh
 * total energy  :   -40.0112340 Eh     change       -0.5336897E-04 Eh
 * total energy  :   -40.0112968 Eh     change       -0.6280270E-04 Eh
 * total energy  :   -40.0113624 Eh     change       -0.6562819E-04 Eh
 * total energy  :   -40.0114528 Eh     change       -0.9036424E-04 Eh
 * total energy  :   -40.0116195 Eh     change       -0.4265813E-04 Eh
 * total energy  :   -40.0116498 Eh     change       -0.3027729E-04 Eh
 * total energy  :   -40.0116748 Eh     change       -0.2498825E-04 Eh
 * total energy  :   -40.0116996 Eh     change       -0.2482248E-04 Eh
 * total energy  :   -40.0117132 Eh     change       -0.1364724E-04 Eh
 * total energy  :   -40.0117222 Eh     change       -0.8963895E-05 Eh
 * total energy  :   -40.0116734 Eh     change        0.4882477E-04 Eh
 * total energy  :   -40.0117294 Eh     change       -0.5600803E-04 Eh
 * total energy  :   -40.0117336 Eh     change       -0.4272712E-05 Eh
   *** GEOMETRY OPTIMIZATION CONVERGED AFTER 21 ITERATIONS ***

 final structure:
================
21
 xtb: 6.7.1 (edcfbbe)
C            1.05900197939532       -0.05917290187480       -0.09684976672828
N            0.60799246093382       -1.41374493329037        0.03857945711624
N           -0.63106167038725       -1.67731847810743        0.43051978918833
C           -0.73474531607869       -2.97027395993621        0.46237544019091
N            0.44268543728872       -3.55943026192729        0.09044535649160
C            1.28528092463303       -2.54181846529998       -0.17858013616003
C            2.68258229798776       -2.63685895953337       -0.61731530135829
C            0.74210836728989       -4.96687782585362       -0.00073480094579
C           -1.98380691830825       -3.71971783936914        0.85480183617056
F           -2.37541066964034       -4.51824266044200       -0.14435223391176
F           -1.73878670807372       -4.50599828807324        1.90930674795677
F           -2.96781527508084       -2.89994633545497        1.15557348030768
H            0.23734770918784        0.59104031090905        0.19938384175627
H            1.33156316507694        0.15289270038806       -1.13087512093612
H            1.91948924193367        0.12398480025624        0.54653883680714
H            2.88302606966063       -1.91334448093923       -1.40687290956114
H            3.35653728070725       -2.40823544149521        0.21098046585733
H            2.91532623201058       -3.63397373881062       -0.98099516195186
H            0.94382829449703       -5.23922411281102       -1.03794602336378
H            1.61387186449068       -5.20092973644442        0.61086304238333
H           -0.10100476752400       -5.55447939189045        0.35400316069093

          :  Hamiltonian                  GFN2-xTB          :
         :: total energy             -40.011733641231 Eh    ::
         :: gradient norm              0.000622553580 Eh/a0 ::
         :: HOMO-LUMO gap              4.823710688691 eV    ::
         :: SCC energy               -40.380300552962 Eh    ::
         :: -> dispersion             -0.015696176149 Eh    ::
         :: repulsion energy           0.368566911731 Eh    ::

    * Orbital Energies and Occupations

         #    Occupation            Energy/Eh            Energy/eV
      -------------------------------------------------------------
         1        2.0000           -1.0298383             -28.0233
       ...           ...                  ...                  ...
        22        2.0000           -0.6929482             -18.8561
        23        2.0000           -0.6906979             -18.7948
        24        2.0000           -0.6817477             -18.5513
        25        2.0000           -0.6801699             -18.5084
        26        2.0000           -0.6770772             -18.4242
        27        2.0000           -0.6764945             -18.4084
        28        2.0000           -0.6732833             -18.3210
        29        2.0000           -0.6662533             -18.1297
        30        2.0000           -0.6621388             -18.0177
        31        2.0000           -0.6524690             -17.7546
        32        2.0000           -0.6395195             -17.4022
        33        2.0000           -0.6279757             -17.0881
        34        2.0000           -0.6234760             -16.9656 (HOMO)
        35                         -0.4462078             -12.1419 (LUMO)
        36                         -0.4407783             -11.9942
        37                         -0.2321452              -6.3170
        38                         -0.1977948              -5.3823
        39                         -0.1341110              -3.6493
        40                         -0.1088256              -2.9613
        41                         -0.0873437              -2.3767
        42                         -0.0609141              -1.6576
        43                         -0.0545270              -1.4838
        44                         -0.0483711              -1.3162
        45                         -0.0361839              -0.9846
       ...                                ...                  ...
        57                          0.3122996               8.4981
      -------------------------------------------------------------
                  HL-Gap            0.1772681 Eh            4.8237 eV

     #   Z          covCN         q      C6AA      α(0)
     1   6 C        3.692    -0.099    22.579     6.799
     2   7 N        3.057     0.144    18.800     6.440
     3   7 N        2.029    -0.144    24.835     7.392
     4   6 C        3.182     0.108    25.208     8.195
     5   7 N        2.846     0.030    20.726     6.762
     6   6 C        3.084     0.115    25.383     8.259
     7   6 C        3.754    -0.146    23.376     6.894
     8   6 C        3.689    -0.083    22.278     6.756
     9   6 C        3.331     0.498    17.201     6.580
    10   9 F        0.792    -0.177    11.005     3.919
    11   9 F        0.791    -0.178    11.011     3.920
    12   9 F        0.791    -0.147    10.700     3.864
    13   1 H        0.925     0.139     1.466     1.894
    14   1 H        0.925     0.117     1.640     2.003
    15   1 H        0.925     0.117     1.637     2.001
    16   1 H        0.925     0.119     1.621     1.991
    17   1 H        0.924     0.126     1.567     1.958
    18   1 H        0.925     0.114     1.662     2.016
    19   1 H        0.924     0.114     1.659     2.014
    20   1 H        0.924     0.114     1.661     2.016
    21   1 H        0.925     0.119     1.622     1.992

Wiberg/Mayer (AO) data.
largest (>0.10) Wiberg bond orders for each atom

     #   Z sym  total        # sym  WBO       # sym  WBO       # sym  WBO
 ---------------------------------------------------------------------------
     1   6 C    3.912 --     2 N    0.983    13 H    0.965    15 H    0.956
                            14 H    0.954
     2   7 N    3.733 --     6 C    1.354     3 N    1.207     1 C    0.983
     3   7 N    3.032 --     4 C    1.569     2 N    1.207
     4   6 C    3.966 --     3 N    1.569     5 N    1.215     9 C    0.939
     5   7 N    3.693 --     6 C    1.292     4 C    1.215     8 C    0.979
     6   6 C    3.947 --     2 N    1.354     5 N    1.292     7 C    1.059
     7   6 C    3.966 --     6 C    1.059    18 H    0.965    16 H    0.948
                            17 H    0.929
     8   6 C    3.916 --     5 N    0.979    21 H    0.970    20 H    0.960
                            19 H    0.956
     9   6 C    3.875 --    12 F    0.996    10 F    0.955    11 F    0.954
                             4 C    0.939
    10   9 F    1.096 --     9 C    0.955
    11   9 F    1.096 --     9 C    0.954
    12   9 F    1.132 --     9 C    0.996
    13   1 H    0.980 --     1 C    0.965
    14   1 H    0.986 --     1 C    0.954
    15   1 H    0.986 --     1 C    0.956
    16   1 H    0.985 --     7 C    0.948
    17   1 H    0.984 --     7 C    0.929
    18   1 H    0.987 --     7 C    0.965
    19   1 H    0.987 --     8 C    0.956
    20   1 H    0.987 --     8 C    0.960
    21   1 H    0.985 --     8 C    0.970
 ---------------------------------------------------------------------------

molecular dipole:
                 x           y           z       tot (Debye)
 q only:        3.162      -4.509      -0.535
   full:        3.354      -4.758      -0.594      14.872

           -------------------------------------------------
          | TOTAL ENERGY              -40.011733641231 Eh   |
          | GRADIENT NORM               0.000622553580 Eh/α |
          | HOMO-LUMO GAP               4.823710688691 eV   |
           -------------------------------------------------

 * finished run on 2024/12/20 at 06:46:51.081
