   * xtb version 6.7.1 (edcfbbe) compiled by 'conda@3ef47c1a292c' on 2024-11-25

   ID    Z sym.   atoms
    1    7 N      1, 5
    2    6 C      2-4, 6-10
    3    1 H      11-19

          program call               : xtb C0500.xyz --opt --namespace C0500 --charge +1
          :  Hamiltonian                  GFN2-xTB          :
 * total energy  :   -27.0646104 Eh     change       -0.2179341E-09 Eh
 * total energy  :   -27.0963616 Eh     change       -0.3175118E-01 Eh
 * total energy  :   -27.0979136 Eh     change       -0.1552016E-02 Eh
 * total energy  :   -27.0983203 Eh     change       -0.4067307E-03 Eh
 * total energy  :   -27.0985689 Eh     change       -0.2485683E-03 Eh
 * total energy  :   -27.0987893 Eh     change       -0.2204607E-03 Eh
 * total energy  :   -27.0990181 Eh     change       -0.2287515E-03 Eh
 * total energy  :   -27.0992791 Eh     change       -0.2609852E-03 Eh
 * total energy  :   -27.0995422 Eh     change       -0.2631321E-03 Eh
 * total energy  :   -27.0998611 Eh     change       -0.3188755E-03 Eh
 * total energy  :   -27.1007767 Eh     change       -0.1328073E-04 Eh
 * total energy  :   -27.1007807 Eh     change       -0.4065035E-05 Eh
 * total energy  :   -27.1007905 Eh     change       -0.9781001E-05 Eh
 * total energy  :   -27.1007966 Eh     change       -0.6100985E-05 Eh
 * total energy  :   -27.1008035 Eh     change       -0.6855867E-05 Eh
 * total energy  :   -27.1008080 Eh     change       -0.4542616E-05 Eh
 * total energy  :   -27.1008148 Eh     change       -0.6813241E-05 Eh
 * total energy  :   -27.1008221 Eh     change       -0.7290032E-05 Eh
 * total energy  :   -27.1008264 Eh     change       -0.4277997E-05 Eh
   *** GEOMETRY OPTIMIZATION CONVERGED AFTER 29 ITERATIONS ***

 final structure:
================
19
 xtb: 6.7.1 (edcfbbe)
N            1.07907992753255       -0.81304757458523       -0.05440222940687
C            2.15378120738876       -0.43020277618561       -0.03005515477100
C            3.54696919868632       -0.04698696147629       -0.07104030115464
C            4.42343922299908       -1.29352102267630       -0.30138467896639
N            3.94350642319227       -2.03562666569735       -1.45809731831398
C            3.03608005320203       -3.00576446121483       -1.29192597392585
C            2.49264642144218       -3.66450503388198       -2.37603427656956
C            2.89417389396337       -3.31146240496951       -3.65754267369214
C            3.84083967424127       -2.30441511332813       -3.80767137899604
C            4.34480348181474       -1.68168770041113       -2.68601911625993
H            3.68297440195393        0.68574714005389       -0.87143207683466
H            3.82216075902633        0.42303812040544        0.87564641457367
H            5.45939294424797       -0.98968264478522       -0.46522327937519
H            4.38049427304831       -1.94160885183773        0.57680312375802
H            2.74347678497250       -3.25165168644561       -0.28182428518844
H            1.76198154406013       -4.44047987048755       -2.21328112981246
H            2.48088385366447       -3.80954699788482       -4.52069733818970
H            4.18305775052484       -2.00230379753265       -4.78471394883148
H            5.07987818403888       -0.89318169705957       -2.76049437804351

          :  Hamiltonian                  GFN2-xTB          :
         :: total energy             -27.100826401515 Eh    ::
         :: gradient norm              0.000371440059 Eh/a0 ::
         :: HOMO-LUMO gap              2.518019015539 eV    ::
         :: SCC energy               -27.600101389273 Eh    ::
         :: -> dispersion             -0.014885936228 Eh    ::
         :: repulsion energy           0.499274987759 Eh    ::

    * Orbital Energies and Occupations

         #    Occupation            Energy/Eh            Energy/eV
      -------------------------------------------------------------
         1        2.0000           -0.8951204             -24.3575
       ...           ...                  ...                  ...
        13        2.0000           -0.7066353             -19.2285
        14        2.0000           -0.6928481             -18.8534
        15        2.0000           -0.6874623             -18.7068
        16        2.0000           -0.6797736             -18.4976
        17        2.0000           -0.6709862             -18.2585
        18        2.0000           -0.6512716             -17.7220
        19        2.0000           -0.6398523             -17.4113
        20        2.0000           -0.6340685             -17.2539
        21        2.0000           -0.6331696             -17.2294
        22        2.0000           -0.6278846             -17.0856
        23        2.0000           -0.6148440             -16.7308
        24        2.0000           -0.6076874             -16.5360
        25        2.0000           -0.5654603             -15.3870 (HOMO)
        26                         -0.4729248             -12.8689 (LUMO)
        27                         -0.4399876             -11.9727
        28                         -0.3544353              -9.6447
        29                         -0.3459714              -9.4144
        30                         -0.3190793              -8.6826
        31                         -0.1947688              -5.2999
        32                         -0.0911491              -2.4803
        33                         -0.0740427              -2.0148
        34                         -0.0650494              -1.7701
        35                         -0.0414731              -1.1285
        36                         -0.0240727              -0.6551
       ...                                ...                  ...
        49                          1.0032111              27.2988
      -------------------------------------------------------------
                  HL-Gap            0.0925355 Eh            2.5180 eV

     #   Z          covCN         q      C6AA      α(0)
     1   7 N        0.911    -0.192    25.171     7.256
     2   6 C        1.899     0.109    28.420     8.610
     3   6 C        3.804    -0.064    21.733     6.637
     4   6 C        3.765    -0.027    21.098     6.547
     5   7 N        2.750     0.107    19.399     6.541
     6   6 C        2.890     0.038    27.146     8.542
     7   6 C        2.915    -0.005    28.140     8.699
     8   6 C        2.925     0.019    27.593     8.614
     9   6 C        2.915    -0.008    28.213     8.710
    10   6 C        2.890     0.034    27.244     8.558
    11   1 H        0.924     0.095     1.827     2.114
    12   1 H        0.924     0.117     1.640     2.003
    13   1 H        0.924     0.101     1.774     2.083
    14   1 H        0.924     0.101     1.774     2.083
    15   1 H        0.926     0.117     1.639     2.002
    16   1 H        0.926     0.119     1.625     1.993
    17   1 H        0.926     0.115     1.652     2.010
    18   1 H        0.926     0.114     1.661     2.016
    19   1 H        0.926     0.110     1.695     2.036

Wiberg/Mayer (AO) data.
largest (>0.10) Wiberg bond orders for each atom

     #   Z sym  total        # sym  WBO       # sym  WBO       # sym  WBO
 ---------------------------------------------------------------------------
     1   7 N    3.024 --     2 C    2.869
     2   6 C    3.952 --     1 N    2.869     3 C    1.047
     3   6 C    3.986 --     2 C    1.047     4 C    0.963    11 H    0.944
                            12 H    0.935
     4   6 C    3.941 --     5 N    0.967    14 H    0.964     3 C    0.963
                            13 H    0.961
     5   7 N    3.762 --     6 C    1.325    10 C    1.319     4 C    0.967
     6   6 C    3.954 --     7 C    1.457     5 N    1.325    15 H    0.952
     7   6 C    3.978 --     6 C    1.457     8 C    1.425    16 H    0.956
     8   6 C    3.966 --     7 C    1.425     9 C    1.415    17 H    0.959
     9   6 C    3.979 --    10 C    1.470     8 C    1.415    18 H    0.958
    10   6 C    3.957 --     9 C    1.470     5 N    1.319    19 H    0.954
    11   1 H    0.991 --     3 C    0.944
    12   1 H    0.985 --     3 C    0.935
    13   1 H    0.989 --     4 C    0.961
    14   1 H    0.989 --     4 C    0.964
    15   1 H    0.986 --     6 C    0.952
    16   1 H    0.986 --     7 C    0.956
    17   1 H    0.987 --     8 C    0.959
    18   1 H    0.987 --     9 C    0.958
    19   1 H    0.988 --    10 C    0.954
 ---------------------------------------------------------------------------

molecular dipole:
                 x           y           z       tot (Debye)
 q only:        7.601      -4.012      -3.666
   full:        8.071      -3.827      -3.624      24.503

           -------------------------------------------------
          | TOTAL ENERGY              -27.100826401515 Eh   |
          | GRADIENT NORM               0.000371440059 Eh/α |
          | HOMO-LUMO GAP               2.518019015539 eV   |
           -------------------------------------------------

 * finished run on 2024/12/20 at 06:46:45.132
