   * xtb version 6.7.1 (edcfbbe) compiled by 'conda@3ef47c1a292c' on 2024-11-25

   ID    Z sym.   atoms
    1    8 O      1, 9
    2    6 C      2-8, 10, 11, 13-15
    3    7 N      12
    4    1 H      16-33

          program call               : xtb C0501.xyz --opt --namespace C0501 --charge +1
          :  Hamiltonian                  GFN2-xTB          :
 * total energy  :   -45.5035379 Eh     change       -0.5837748E-09 Eh
 * total energy  :   -45.5120994 Eh     change       -0.8561580E-02 Eh
 * total energy  :   -45.5143337 Eh     change       -0.2234244E-02 Eh
 * total energy  :   -45.5145870 Eh     change       -0.2533221E-03 Eh
 * total energy  :   -45.5148439 Eh     change       -0.2568713E-03 Eh
 * total energy  :   -45.5150321 Eh     change       -0.1882529E-03 Eh
 * total energy  :   -45.5153867 Eh     change       -0.3546053E-03 Eh
 * total energy  :   -45.5158463 Eh     change       -0.4596051E-03 Eh
 * total energy  :   -45.5162633 Eh     change       -0.4169732E-03 Eh
 * total energy  :   -45.5165996 Eh     change       -0.3362958E-03 Eh
 * total energy  :   -45.5207931 Eh     change       -0.1440197E-04 Eh
 * total energy  :   -45.5208083 Eh     change       -0.1519623E-04 Eh
 * total energy  :   -45.5208215 Eh     change       -0.1318190E-04 Eh
 * total energy  :   -45.5208310 Eh     change       -0.9528407E-05 Eh
 * total energy  :   -45.5208377 Eh     change       -0.6616562E-05 Eh
 * total energy  :   -45.5208431 Eh     change       -0.5415823E-05 Eh
 * total energy  :   -45.5208484 Eh     change       -0.5279030E-05 Eh
 * total energy  :   -45.5208536 Eh     change       -0.5250508E-05 Eh
 * total energy  :   -45.5208586 Eh     change       -0.4962247E-05 Eh
   *** GEOMETRY OPTIMIZATION CONVERGED AFTER 37 ITERATIONS ***

 final structure:
================
33
 xtb: 6.7.1 (edcfbbe)
O            1.91820966932337       -2.23333627380099        0.13154662835463
C            2.60640180295151       -1.23162872514086        0.20748150987193
C            3.19658165532425       -0.75723054502561        1.45000311538617
C            3.01613835575771       -1.54516049606712        2.59610749153165
C            3.56418080894654       -1.18279567536892        3.80280079156229
C            4.31180990697100       -0.00726558911723        3.90467262699238
C            4.48816803441623        0.79303309584145        2.76898980148145
C            3.94353304598662        0.42414478301655        1.56380068805361
O            4.87503469758291        0.39769742791355        5.04792616307301
C            2.90167681119748       -0.42901892362453       -1.07338765747804
C            2.36656820416968       -1.15136818572389       -2.30897188265818
N            0.98982566185814       -0.77905335149039       -2.75503861676836
C            0.99499577257243        0.55355487075318       -3.38295338048304
C            0.55532628339138       -1.77544308096813       -3.75309405344964
C            0.03485408978540       -0.79535724360047       -1.63150398359177
H            2.44036339449090       -2.45369627662620        2.50645298858183
H            3.42188031320682       -1.80591235652985        4.67448742833258
H            5.06463546462443        1.69837204840559        2.86880082412374
H            4.10301116537334        1.06534660137386        0.71130218387081
H            4.70363168243092       -0.22151952912123        5.77036334749285
H            2.51165671207982        0.58229935603725       -0.96662847341616
H            3.98556375557352       -0.34980261771977       -1.16678247995779
H            3.03464922223550       -0.99459847451622       -3.15693810896865
H            2.34908237697752       -2.21860048155797       -2.06400995312684
H            1.63489614234695        0.55296986964032       -4.26391628402198
H           -0.01430871017149        0.82785891135406       -3.68509805751687
H            1.36193027595446        1.30489547161998       -2.68720809233409
H            0.46413691194168       -2.75485800513073       -3.28669278390905
H           -0.41172993033585       -1.49524859814894       -4.16718526406250
H            1.27721204900555       -1.83941390838360       -4.56561041927739
H            0.13473311572538       -1.72666539045741       -1.07470388480640
H            0.22823564589648        0.02966977481483       -0.95003849437942
H           -0.98207438760621       -0.70366848263269       -2.00744371849555

          :  Hamiltonian                  GFN2-xTB          :
         :: total energy             -45.520858566943 Eh    ::
         :: gradient norm              0.000206177052 Eh/a0 ::
         :: HOMO-LUMO gap              2.865823923169 eV    ::
         :: SCC energy               -46.162564438401 Eh    ::
         :: -> dispersion             -0.027705827975 Eh    ::
         :: repulsion energy           0.641705871458 Eh    ::

    * Orbital Energies and Occupations

         #    Occupation            Energy/Eh            Energy/eV
      -------------------------------------------------------------
         1        2.0000           -0.8610168             -23.4295
       ...           ...                  ...                  ...
        29        2.0000           -0.6299627             -17.1422
        30        2.0000           -0.6222635             -16.9327
        31        2.0000           -0.6072035             -16.5228
        32        2.0000           -0.6028159             -16.4035
        33        2.0000           -0.5926698             -16.1274
        34        2.0000           -0.5850378             -15.9197
        35        2.0000           -0.5800648             -15.7844
        36        2.0000           -0.5686019             -15.4724
        37        2.0000           -0.5646307             -15.3644
        38        2.0000           -0.5270673             -14.3422
        39        2.0000           -0.5164323             -14.0528
        40        2.0000           -0.5128146             -13.9544
        41        2.0000           -0.4940918             -13.4449 (HOMO)
        42                         -0.3887747             -10.5791 (LUMO)
        43                         -0.3311428              -9.0109
        44                         -0.2934496              -7.9852
        45                         -0.2194003              -5.9702
        46                         -0.1900132              -5.1705
        47                         -0.1517861              -4.1303
        48                         -0.1420114              -3.8643
        49                         -0.1353236              -3.6823
        50                         -0.0779194              -2.1203
        51                         -0.0544499              -1.4817
        52                         -0.0419227              -1.1408
       ...                                ...                  ...
        78                          0.5621988              15.2982
      -------------------------------------------------------------
                  HL-Gap            0.1053171 Eh            2.8658 eV

     #   Z          covCN         q      C6AA      α(0)
     1   8 O        0.858    -0.397    21.620     6.234
     2   6 C        2.822     0.221    23.350     7.918
     3   6 C        2.969    -0.033    28.818     8.806
     4   6 C        2.927    -0.012    28.322     8.728
     5   6 C        2.913    -0.064    29.593     8.920
     6   6 C        2.846     0.170    24.340     8.086
     7   6 C        2.916    -0.048    29.180     8.858
     8   6 C        2.919    -0.030    28.738     8.791
     9   8 O        1.661    -0.348    19.871     6.018
    10   6 C        3.800    -0.099    22.394     6.738
    11   6 C        3.765    -0.039    21.318     6.581
    12   7 N        3.622     0.148    18.735     6.429
    13   6 C        3.722    -0.095    22.437     6.765
    14   6 C        3.731    -0.100    22.498     6.770
    15   6 C        3.720    -0.100    22.524     6.778
    16   1 H        0.926     0.075     2.031     2.229
    17   1 H        0.926     0.054     2.268     2.355
    18   1 H        0.926     0.074     2.047     2.237
    19   1 H        0.926     0.045     2.388     2.416
    20   1 H        0.805     0.321     0.661     1.277
    21   1 H        0.925     0.068     2.112     2.273
    22   1 H        0.924     0.087     1.906     2.159
    23   1 H        0.924     0.080     1.979     2.200
    24   1 H        0.924     0.114     1.662     2.016
    25   1 H        0.925     0.096     1.817     2.108
    26   1 H        0.925     0.099     1.798     2.097
    27   1 H        0.925     0.097     1.816     2.107
    28   1 H        0.925     0.106     1.727     2.055
    29   1 H        0.925     0.100     1.787     2.091
    30   1 H        0.925     0.097     1.815     2.107
    31   1 H        0.925     0.127     1.560     1.953
    32   1 H        0.925     0.094     1.838     2.120
    33   1 H        0.925     0.093     1.852     2.128

Wiberg/Mayer (AO) data.
largest (>0.10) Wiberg bond orders for each atom

     #   Z sym  total        # sym  WBO       # sym  WBO       # sym  WBO
 ---------------------------------------------------------------------------
     1   8 O    2.038 --     2 C    1.758
     2   6 C    3.927 --     1 O    1.758     3 C    1.101    10 C    0.961
     3   6 C    3.985 --     4 C    1.336     8 C    1.331     2 C    1.101
     4   6 C    3.985 --     5 C    1.497     3 C    1.336    16 H    0.964
     5   6 C    3.988 --     4 C    1.497     6 C    1.336    17 H    0.964
     6   6 C    3.940 --     5 C    1.336     7 C    1.315     9 O    1.138
     7   6 C    3.987 --     8 C    1.515     6 C    1.315    18 H    0.965
     8   6 C    3.991 --     7 C    1.515     3 C    1.331    19 H    0.966
     9   8 O    2.182 --     6 C    1.138    20 H    0.874
    10   6 C    3.987 --    11 C    1.012     2 C    0.961    22 H    0.953
                            21 H    0.952
    11   6 C    3.927 --    10 C    1.012    23 H    0.970    24 H    0.955
                            12 N    0.926
    12   7 N    3.817 --    13 C    0.961    14 C    0.958    15 C    0.953
                            11 C    0.926
    13   6 C    3.932 --    25 H    0.975    26 H    0.975    27 H    0.972
                            12 N    0.961
    14   6 C    3.926 --    30 H    0.976    29 H    0.974    28 H    0.974
                            12 N    0.958
    15   6 C    3.918 --    33 H    0.976    32 H    0.975    31 H    0.962
                            12 N    0.953
    16   1 H    0.994 --     4 C    0.964
    17   1 H    0.996 --     5 C    0.964
    18   1 H    0.994 --     7 C    0.965
    19   1 H    0.998 --     8 C    0.966
    20   1 H    0.897 --     9 O    0.874
    21   1 H    0.995 --    10 C    0.952
    22   1 H    0.992 --    10 C    0.953
    23   1 H    0.993 --    11 C    0.970
    24   1 H    0.987 --    11 C    0.955
    25   1 H    0.991 --    13 C    0.975
    26   1 H    0.990 --    13 C    0.975
    27   1 H    0.991 --    13 C    0.972
    28   1 H    0.989 --    14 C    0.974
    29   1 H    0.990 --    14 C    0.974
    30   1 H    0.991 --    14 C    0.976
    31   1 H    0.984 --    15 C    0.962
    32   1 H    0.991 --    15 C    0.975
    33   1 H    0.991 --    15 C    0.976
 ---------------------------------------------------------------------------

molecular dipole:
                 x           y           z       tot (Debye)
 q only:        3.006      -0.804      -3.261
   full:        3.063      -0.779      -3.217      11.462

           -------------------------------------------------
          | TOTAL ENERGY              -45.520858566943 Eh   |
          | GRADIENT NORM               0.000206177052 Eh/α |
          | HOMO-LUMO GAP               2.865823923169 eV   |
           -------------------------------------------------

 * finished run on 2024/12/20 at 06:46:46.213
