   * xtb version 6.7.1 (edcfbbe) compiled by 'conda@3ef47c1a292c' on 2024-11-25

   ID    Z sym.   atoms
    1    6 C      1, 3, 4, 6-8
    2    8 O      2
    3    7 N      5
    4    1 H      9-24

          program call               : xtb C0503.xyz --opt --namespace C0503 --charge +1
          :  Hamiltonian                  GFN2-xTB          :
 * total energy  :   -27.5739719 Eh     change       -0.2335554E-10 Eh
 * total energy  :   -27.5801528 Eh     change       -0.6180893E-02 Eh
 * total energy  :   -27.5817146 Eh     change       -0.1561843E-02 Eh
 * total energy  :   -27.5818232 Eh     change       -0.1086435E-03 Eh
 * total energy  :   -27.5819957 Eh     change       -0.1725054E-03 Eh
 * total energy  :   -27.5820715 Eh     change       -0.7578427E-04 Eh
 * total energy  :   -27.5822236 Eh     change       -0.1520537E-03 Eh
 * total energy  :   -27.5823123 Eh     change       -0.8866843E-04 Eh
 * total energy  :   -27.5823916 Eh     change       -0.7933870E-04 Eh
 * total energy  :   -27.5824207 Eh     change       -0.2907129E-04 Eh
 * total energy  :   -27.5832065 Eh     change       -0.2936172E-04 Eh
 * total energy  :   -27.5832354 Eh     change       -0.2886203E-04 Eh
 * total energy  :   -27.5832590 Eh     change       -0.2363593E-04 Eh
 * total energy  :   -27.5832778 Eh     change       -0.1884162E-04 Eh
 * total energy  :   -27.5832938 Eh     change       -0.1597721E-04 Eh
 * total energy  :   -27.5833072 Eh     change       -0.1338129E-04 Eh
 * total energy  :   -27.5833174 Eh     change       -0.1018440E-04 Eh
 * total energy  :   -27.5833243 Eh     change       -0.6878069E-05 Eh
 * total energy  :   -27.5833288 Eh     change       -0.4589524E-05 Eh
   *** GEOMETRY OPTIMIZATION CONVERGED AFTER 37 ITERATIONS ***

 final structure:
================
24
 xtb: 6.7.1 (edcfbbe)
C            1.13507851355321       -1.17569656041835        1.15519309495629
O            0.87447769383469       -0.53889444318244       -0.08171542558553
C            0.95370709131578       -1.40650998950039       -1.18662426047402
C            0.35644058323208       -0.74927745754192       -2.43493597813123
N            0.90396935537125        0.59303026624346       -2.79489623657840
C            2.37126518966314        0.62533393024339       -2.66378045525989
C            0.53667813857032        0.88581335110261       -4.19375846376897
C            0.31819119332900        1.63057419575868       -1.92231895636971
H            0.40516724009062       -1.96629973644500        1.34848898708534
H            1.04971425691916       -0.40544031701120        1.91705002614531
H            2.14220009889467       -1.60213055637411        1.17299917910008
H            1.99586124178533       -1.71636718202307       -1.35592596834188
H            0.36908779490954       -2.31922450471371       -0.99864702946143
H            0.52487137231458       -1.42917804156817       -3.27242052207399
H           -0.71888389539255       -0.63211887766927       -2.28868714930961
H            2.81951372288160       -0.19175059364560       -3.22642157774333
H            2.75532475598273        1.56720017679605       -3.05154631531251
H            2.65051989180213        0.54291028363983       -1.61578309555277
H           -0.54002461818489        0.79707415986517       -4.32835838750161
H            0.83580006388056        1.90009766143826       -4.45265512573313
H            1.03280457320201        0.19363714222436       -4.87213136080176
H           -0.75440582462905        1.70099312631900       -2.09189740253622
H            0.49305650126939        1.36894647240859       -0.88060457331229
H            0.77133506540739        2.59616749405417       -2.13743300343942

          :  Hamiltonian                  GFN2-xTB          :
         :: total energy             -27.583328845462 Eh    ::
         :: gradient norm              0.000237279593 Eh/a0 ::
         :: HOMO-LUMO gap              8.410339670540 eV    ::
         :: SCC energy               -27.916004820679 Eh    ::
         :: -> dispersion             -0.014664123136 Eh    ::
         :: repulsion energy           0.332675975217 Eh    ::

    * Orbital Energies and Occupations

         #    Occupation            Energy/Eh            Energy/eV
      -------------------------------------------------------------
         1        2.0000           -0.8702913             -23.6818
       ...           ...                  ...                  ...
        13        2.0000           -0.6792792             -18.4841
        14        2.0000           -0.6773360             -18.4313
        15        2.0000           -0.6637998             -18.0629
        16        2.0000           -0.6634994             -18.0547
        17        2.0000           -0.6512278             -17.7208
        18        2.0000           -0.6467904             -17.6001
        19        2.0000           -0.6436582             -17.5148
        20        2.0000           -0.6400925             -17.4178
        21        2.0000           -0.6387604             -17.3816
        22        2.0000           -0.6143705             -16.7179
        23        2.0000           -0.6094126             -16.5830
        24        2.0000           -0.5839961             -15.8913
        25        2.0000           -0.5406649             -14.7122 (HOMO)
        26                         -0.2315906              -6.3019 (LUMO)
        27                         -0.1637233              -4.4551
        28                         -0.1538012              -4.1851
        29                         -0.1459176              -3.9706
        30                         -0.1200223              -3.2660
        31                         -0.0580314              -1.5791
        32                         -0.0510510              -1.3892
        33                         -0.0227143              -0.6181
        34                         -0.0072406              -0.1970
        35                          0.0044168               0.1202
        36                          0.0174852               0.4758
       ...                                ...                  ...
        48                          0.1246768               3.3926
      -------------------------------------------------------------
                  HL-Gap            0.3090743 Eh            8.4103 eV

     #   Z          covCN         q      C6AA      α(0)
     1   6 C        3.650     0.025    20.473     6.499
     2   8 O        1.700    -0.319    19.327     5.935
     3   6 C        3.699     0.071    19.555     6.324
     4   6 C        3.761    -0.046    21.448     6.602
     5   7 N        3.622     0.151    18.683     6.420
     6   6 C        3.720    -0.100    22.537     6.780
     7   6 C        3.727    -0.101    22.536     6.778
     8   6 C        3.723    -0.108    22.687     6.802
     9   1 H        0.924     0.051     2.313     2.378
    10   1 H        0.925     0.079     1.987     2.204
    11   1 H        0.924     0.046     2.369     2.407
    12   1 H        0.923     0.049     2.336     2.390
    13   1 H        0.923     0.066     2.131     2.283
    14   1 H        0.924     0.092     1.858     2.132
    15   1 H        0.924     0.102     1.768     2.079
    16   1 H        0.925     0.097     1.816     2.108
    17   1 H        0.925     0.101     1.778     2.085
    18   1 H        0.925     0.115     1.655     2.012
    19   1 H        0.925     0.100     1.782     2.088
    20   1 H        0.925     0.105     1.744     2.065
    21   1 H        0.925     0.099     1.794     2.095
    22   1 H        0.925     0.097     1.808     2.103
    23   1 H        0.925     0.132     1.521     1.929
    24   1 H        0.925     0.098     1.800     2.098

Wiberg/Mayer (AO) data.
largest (>0.10) Wiberg bond orders for each atom

     #   Z sym  total        # sym  WBO       # sym  WBO       # sym  WBO
 ---------------------------------------------------------------------------
     1   6 C    3.932 --    11 H    0.979     9 H    0.978    10 H    0.977
                             2 O    0.973
     2   8 O    2.070 --     3 C    0.995     1 C    0.973
     3   6 C    3.958 --     4 C    1.002     2 O    0.995    12 H    0.962
                            13 H    0.957
     4   6 C    3.939 --     3 C    1.002    14 H    0.967    15 H    0.965
                             5 N    0.935
     5   7 N    3.820 --     7 C    0.958     6 C    0.956     8 C    0.951
                             4 C    0.935
     6   6 C    3.923 --    16 H    0.976    17 H    0.974    18 H    0.971
                             5 N    0.956
     7   6 C    3.927 --    19 H    0.975    21 H    0.975    20 H    0.973
                             5 N    0.958
     8   6 C    3.913 --    22 H    0.975    24 H    0.975    23 H    0.959
                             5 N    0.951
     9   1 H    0.997 --     1 C    0.978
    10   1 H    0.993 --     1 C    0.977
    11   1 H    0.998 --     1 C    0.979
    12   1 H    0.998 --     3 C    0.962
    13   1 H    0.995 --     3 C    0.957
    14   1 H    0.991 --     4 C    0.967
    15   1 H    0.990 --     4 C    0.965
    16   1 H    0.991 --     6 C    0.976
    17   1 H    0.990 --     6 C    0.974
    18   1 H    0.987 --     6 C    0.971
    19   1 H    0.990 --     7 C    0.975
    20   1 H    0.989 --     7 C    0.973
    21   1 H    0.990 --     7 C    0.975
    22   1 H    0.991 --     8 C    0.975
    23   1 H    0.983 --     8 C    0.959
    24   1 H    0.990 --     8 C    0.975
 ---------------------------------------------------------------------------

molecular dipole:
                 x           y           z       tot (Debye)
 q only:        1.827       0.571      -4.818
   full:        1.846       0.378      -4.876      13.287

           -------------------------------------------------
          | TOTAL ENERGY              -27.583328845462 Eh   |
          | GRADIENT NORM               0.000237279593 Eh/α |
          | HOMO-LUMO GAP               8.410339670540 eV   |
           -------------------------------------------------

 * finished run on 2024/12/20 at 06:46:49.922
