   * xtb version 6.7.1 (edcfbbe) compiled by 'conda@3ef47c1a292c' on 2024-11-25

   ID    Z sym.   atoms
    1    6 C      1-4, 6-13
    2    7 N      5
    3    1 H      14-39

          program call               : xtb C0507.xyz --opt --namespace C0507 --charge +1
          :  Hamiltonian                  GFN2-xTB          :
 * total energy  :   -41.4944898 Eh     change       -0.2473399E-10 Eh
 * total energy  :   -41.5015224 Eh     change       -0.7032602E-02 Eh
 * total energy  :   -41.5036146 Eh     change       -0.2092212E-02 Eh
 * total energy  :   -41.5039792 Eh     change       -0.3645797E-03 Eh
 * total energy  :   -41.5045078 Eh     change       -0.5286493E-03 Eh
 * total energy  :   -41.5047373 Eh     change       -0.2295099E-03 Eh
 * total energy  :   -41.5050166 Eh     change       -0.2792616E-03 Eh
 * total energy  :   -41.5053806 Eh     change       -0.3639683E-03 Eh
 * total energy  :   -41.5057387 Eh     change       -0.3581731E-03 Eh
 * total energy  :   -41.5060334 Eh     change       -0.2947138E-03 Eh
 * total energy  :   -41.5073842 Eh     change       -0.4837304E-04 Eh
 * total energy  :   -41.5074008 Eh     change       -0.1660911E-04 Eh
 * total energy  :   -41.5074389 Eh     change       -0.3807031E-04 Eh
 * total energy  :   -41.5074489 Eh     change       -0.1005323E-04 Eh
 * total energy  :   -41.5074770 Eh     change       -0.2802735E-04 Eh
 * total energy  :   -41.5074891 Eh     change       -0.1213052E-04 Eh
 * total energy  :   -41.5075027 Eh     change       -0.1361269E-04 Eh
 * total energy  :   -41.5075083 Eh     change       -0.5546909E-05 Eh
 * total energy  :   -41.5075110 Eh     change       -0.2692638E-05 Eh
   *** GEOMETRY OPTIMIZATION CONVERGED AFTER 31 ITERATIONS ***

 final structure:
================
39
 xtb: 6.7.1 (edcfbbe)
C            1.17819577762783        0.36481658794043        0.61225332047555
C            0.30662748615710       -0.68207732951969        1.30914950256624
C            1.19258847131410       -1.73594085069702        1.98873964972538
C            1.88212727008455       -1.23253507962934        3.25145468319226
N            0.50186287271310        1.59083023148106        0.05861426343292
C            1.30483898002043        2.01584268085482       -1.10954512041838
C           -0.85616463830831        1.26814261525614       -0.41383309115799
C            0.49524817178499        2.73544298257909        1.06916745440389
C           -0.33793063228823        3.93543131251113        0.60985347698341
C           -0.08896071684984        5.11743892121978        1.55117569852425
C           -0.50174833114770        4.75674962195633        2.97204247142394
C            0.25270427618153        3.51635155386125        3.43102841896178
C            0.03058972499964        2.34155577502844        2.47159142349619
H            1.66625390935138       -0.14084002894700       -0.22348274953329
H            1.96131767693134        0.70632638561537        1.28965065175836
H           -0.34476150458602       -0.24485684963078        2.06293499165988
H           -0.32038348297230       -1.19011458832398        0.57597960927381
H            0.55844128088426       -2.58129014370431        2.25616089628918
H            1.93949225216880       -2.09879403744075        1.28058763104239
H            1.15209601532490       -0.85893835855774        3.96619881829109
H            2.42140880746624       -2.04904902618660        3.72218163071982
H            2.60251546137601       -0.44519413806559        3.04115586290996
H            1.25836325629266        1.25665415122637       -1.88834546864248
H            0.92720698982188        2.94711805161823       -1.52294688740710
H            2.34407289927554        2.15928670402831       -0.81914250224019
H           -1.51309245272629        1.05838104228417        0.42563810795358
H           -1.26154450930682        2.09989879589908       -0.98457135688588
H           -0.82001835620781        0.39452369397760       -1.06171623946296
H            1.54244405207265        3.04982952886571        1.14107856773799
H           -0.08688366613855        4.24829645692345       -0.40340352132966
H           -1.40099981855318        3.69417190328424        0.64562834587700
H           -0.66048750930402        5.97678054177862        1.20118483768802
H            0.96795266215963        5.39005990159504        1.53044356704934
H           -1.57652801682097        4.56859369559338        3.00532841864387
H           -0.28877809342096        5.58770722664532        3.64318805718526
H           -0.07891918175825        3.22402501402659        4.42709312232400
H            1.31991920793709        3.73901983750722        3.48949725651001
H           -1.03155361971424        2.09052673156010        2.46567155367638
H            0.59342702814851        1.49481848558023        2.85760464729826

          :  Hamiltonian                  GFN2-xTB          :
         :: total energy             -41.507510955970 Eh    ::
         :: gradient norm              0.000363207813 Eh/a0 ::
         :: HOMO-LUMO gap              8.128533151969 eV    ::
         :: SCC energy               -42.101907615367 Eh    ::
         :: -> dispersion             -0.031458090296 Eh    ::
         :: repulsion energy           0.594396659397 Eh    ::

    * Orbital Energies and Occupations

         #    Occupation            Energy/Eh            Energy/eV
      -------------------------------------------------------------
         1        2.0000           -0.8534386             -23.2232
       ...           ...                  ...                  ...
        27        2.0000           -0.6117529             -16.6466
        28        2.0000           -0.6061696             -16.4947
        29        2.0000           -0.6039354             -16.4339
        30        2.0000           -0.5978636             -16.2687
        31        2.0000           -0.5913151             -16.0905
        32        2.0000           -0.5869067             -15.9705
        33        2.0000           -0.5697283             -15.5031
        34        2.0000           -0.5631060             -15.3229
        35        2.0000           -0.5567761             -15.1506
        36        2.0000           -0.5492947             -14.9471
        37        2.0000           -0.5479582             -14.9107
        38        2.0000           -0.5448302             -14.8256
        39        2.0000           -0.5426324             -14.7658 (HOMO)
        40                         -0.2439143              -6.6372 (LUMO)
        41                         -0.1759539              -4.7879
        42                         -0.1549777              -4.2172
        43                         -0.1427055              -3.8832
        44                         -0.0677691              -1.8441
        45                         -0.0592886              -1.6133
        46                         -0.0443089              -1.2057
        47                         -0.0423607              -1.1527
        48                         -0.0339653              -0.9242
        49                         -0.0289520              -0.7878
        50                         -0.0175113              -0.4765
       ...                                ...                  ...
        78                          0.1923104               5.2330
      -------------------------------------------------------------
                  HL-Gap            0.2987181 Eh            8.1285 eV

     #   Z          covCN         q      C6AA      α(0)
     1   6 C        3.761    -0.039    21.318     6.582
     2   6 C        3.800    -0.074    21.912     6.665
     3   6 C        3.801    -0.063    21.703     6.633
     4   6 C        3.751    -0.113    22.715     6.797
     5   7 N        3.616     0.111    19.334     6.531
     6   6 C        3.729    -0.090    22.317     6.744
     7   6 C        3.713    -0.088    22.325     6.751
     8   6 C        3.800     0.010    20.406     6.432
     9   6 C        3.808    -0.071    21.849     6.654
    10   6 C        3.807    -0.062    21.686     6.629
    11   6 C        3.806    -0.067    21.786     6.645
    12   6 C        3.807    -0.063    21.697     6.631
    13   6 C        3.807    -0.072    21.863     6.656
    14   1 H        0.924     0.081     1.964     2.192
    15   1 H        0.924     0.085     1.923     2.169
    16   1 H        0.925     0.060     2.202     2.320
    17   1 H        0.924     0.053     2.279     2.361
    18   1 H        0.925     0.060     2.195     2.317
    19   1 H        0.924     0.045     2.381     2.413
    20   1 H        0.925     0.044     2.394     2.420
    21   1 H        0.925     0.059     2.211     2.325
    22   1 H        0.925     0.032     2.554     2.499
    23   1 H        0.925     0.093     1.846     2.125
    24   1 H        0.925     0.096     1.822     2.111
    25   1 H        0.925     0.092     1.858     2.132
    26   1 H        0.925     0.098     1.802     2.099
    27   1 H        0.925     0.096     1.817     2.108
    28   1 H        0.925     0.093     1.853     2.129
    29   1 H        0.924     0.071     2.070     2.250
    30   1 H        0.925     0.043     2.414     2.430
    31   1 H        0.924     0.058     2.224     2.332
    32   1 H        0.925     0.057     2.232     2.336
    33   1 H        0.924     0.046     2.373     2.409
    34   1 H        0.924     0.047     2.354     2.400
    35   1 H        0.925     0.057     2.237     2.339
    36   1 H        0.925     0.057     2.234     2.338
    37   1 H        0.924     0.045     2.385     2.415
    38   1 H        0.924     0.050     2.315     2.379
    39   1 H        0.925     0.058     2.220     2.330

Wiberg/Mayer (AO) data.
largest (>0.10) Wiberg bond orders for each atom

     #   Z sym  total        # sym  WBO       # sym  WBO       # sym  WBO
 ---------------------------------------------------------------------------
     1   6 C    3.928 --     2 C    1.006    14 H    0.968    15 H    0.962
                             5 N    0.922
     2   6 C    3.986 --     1 C    1.006     3 C    0.996    17 H    0.975
                            16 H    0.968
     3   6 C    3.991 --     4 C    1.022     2 C    0.996    19 H    0.977
                            18 H    0.974
     4   6 C    3.994 --     3 C    1.022    20 H    0.986    22 H    0.984
                            21 H    0.983
     5   7 N    3.797 --     7 C    0.964     6 C    0.964     1 C    0.922
                             8 C    0.889
     6   6 C    3.933 --    25 H    0.976    23 H    0.974    24 H    0.967
                             5 N    0.964
     7   6 C    3.933 --    28 H    0.974    27 H    0.973    26 H    0.972
                             5 N    0.964
     8   6 C    3.926 --    13 C    1.000     9 C    0.999    29 H    0.958
                             5 N    0.889
     9   6 C    3.990 --     8 C    0.999    10 C    0.997    31 H    0.972
                            30 H    0.967
    10   6 C    3.992 --    11 C    1.011     9 C    0.997    33 H    0.976
                            32 H    0.974
    11   6 C    3.995 --    12 C    1.011    10 C    1.011    34 H    0.976
                            35 H    0.973
    12   6 C    3.992 --    11 C    1.011    13 C    0.996    37 H    0.976
                            36 H    0.974
    13   6 C    3.989 --     8 C    1.000    12 C    0.996    38 H    0.972
                            39 H    0.967
    14   1 H    0.993 --     1 C    0.968
    15   1 H    0.993 --     1 C    0.962
    16   1 H    0.996 --     2 C    0.968
    17   1 H    0.997 --     2 C    0.975
    18   1 H    0.996 --     3 C    0.974
    19   1 H    0.998 --     3 C    0.977
    20   1 H    0.998 --     4 C    0.986
    21   1 H    0.996 --     4 C    0.983
    22   1 H    0.999 --     4 C    0.984
    23   1 H    0.991 --     6 C    0.974
    24   1 H    0.990 --     6 C    0.967
    25   1 H    0.991 --     6 C    0.976
    26   1 H    0.990 --     7 C    0.972
    27   1 H    0.991 --     7 C    0.973
    28   1 H    0.991 --     7 C    0.974
    29   1 H    0.995 --     8 C    0.958
    30   1 H    0.998 --     9 C    0.967
    31   1 H    0.997 --     9 C    0.972
    32   1 H    0.996 --    10 C    0.974
    33   1 H    0.998 --    10 C    0.976
    34   1 H    0.998 --    11 C    0.976
    35   1 H    0.996 --    11 C    0.973
    36   1 H    0.996 --    12 C    0.974
    37   1 H    0.998 --    12 C    0.976
    38   1 H    0.997 --    13 C    0.972
    39   1 H    0.997 --    13 C    0.967
 ---------------------------------------------------------------------------

molecular dipole:
                 x           y           z       tot (Debye)
 q only:        0.810       3.135       0.914
   full:        0.872       3.116       0.750       8.443

           -------------------------------------------------
          | TOTAL ENERGY              -41.507510955970 Eh   |
          | GRADIENT NORM               0.000363207813 Eh/α |
          | HOMO-LUMO GAP               8.128533151969 eV   |
           -------------------------------------------------

 * finished run on 2024/12/20 at 06:46:52.620
