   * xtb version 6.7.1 (edcfbbe) compiled by 'conda@3ef47c1a292c' on 2024-11-25

   ID    Z sym.   atoms
    1    8 O      1
    2    6 C      2, 3, 5, 6, 8-11
    3    7 N      4, 7
    4    1 H      12-26

          program call               : xtb C0504.xyz --opt --namespace C0504 --charge +1
          :  Hamiltonian                  GFN2-xTB          :
 * total energy  :   -34.3221141 Eh     change       -0.6491376E-09 Eh
 * total energy  :   -34.3267368 Eh     change       -0.4622708E-02 Eh
 * total energy  :   -34.3279365 Eh     change       -0.1199729E-02 Eh
 * total energy  :   -34.3281834 Eh     change       -0.2469025E-03 Eh
 * total energy  :   -34.3283028 Eh     change       -0.1193445E-03 Eh
 * total energy  :   -34.3283316 Eh     change       -0.2881193E-04 Eh
 * total energy  :   -34.3283549 Eh     change       -0.2334714E-04 Eh
 * total energy  :   -34.3283726 Eh     change       -0.1770902E-04 Eh
 * total energy  :   -34.3283817 Eh     change       -0.9103806E-05 Eh
 * total energy  :   -34.3283910 Eh     change       -0.9247178E-05 Eh
 * total energy  :   -34.3284205 Eh     change       -0.8911747E-05 Eh
 * total energy  :   -34.3284314 Eh     change       -0.1084838E-04 Eh
 * total energy  :   -34.3284444 Eh     change       -0.1299478E-04 Eh
 * total energy  :   -34.3284595 Eh     change       -0.1513666E-04 Eh
 * total energy  :   -34.3284703 Eh     change       -0.1076428E-04 Eh
 * total energy  :   -34.3284786 Eh     change       -0.8289989E-05 Eh
 * total energy  :   -34.3284793 Eh     change       -0.7281963E-06 Eh
 * total energy  :   -34.3284811 Eh     change       -0.1844052E-05 Eh
 * total energy  :   -34.3284853 Eh     change       -0.4120280E-05 Eh
   *** GEOMETRY OPTIMIZATION CONVERGED AFTER 22 ITERATIONS ***

 final structure:
================
26
 xtb: 6.7.1 (edcfbbe)
O            1.30623133794924       -0.08604334370418        0.09099186411193
C            0.66097806005141        0.94647403058599        0.80000824805219
C            0.97657677436305        0.74384126300297        2.29263470029444
N            2.42361594994248        0.68005928872753        2.43051839886571
C            3.28141234528497        1.70459430011168        2.69294787137544
C            4.54514653729966        1.20560022279221        2.60225498318635
N            4.43942367285631       -0.11091950782844        2.27166311050128
C            3.14785379291815       -0.40571727437610        2.17657790321837
C            5.54091693323634       -1.03862067645277        2.13409249641279
C            5.93051824523180       -1.61966135122612        3.48966149638208
C            0.36653919858552        1.82920359477232        3.16439927071708
H            1.00793983993211       -0.08398818559861       -0.82463659663489
H            1.02627385985332        1.93048862245078        0.47362534810308
H           -0.42526891612954        0.91068743222439        0.66624583132697
H            0.59307465297667       -0.23875110443626        2.58619592458244
H            2.95511891790738        2.69591582452607        2.92763458748759
H            5.48939069300564        1.69105935007619        2.74206581463780
H            2.74327918314511       -1.36146775151352        1.90739158445839
H            5.23773807188536       -1.83535686650719        1.45277137783122
H            6.38635016800701       -0.50359998063977        1.69753163499449
H            5.09909107934626       -2.16363470961653        3.93007110104041
H            6.76111264135855       -2.30689971232601        3.36291168925072
H            6.23722534413759       -0.83377758958588        4.17482426553703
H           -0.71471866955152        1.72856765206526        3.15847722010364
H            0.70867864353210        1.73330197742527        4.19164048070625
H            0.61098164287551        2.82168449505122        2.79560939345695

          :  Hamiltonian                  GFN2-xTB          :
         :: total energy             -34.328485264906 Eh    ::
         :: gradient norm              0.000426818404 Eh/a0 ::
         :: HOMO-LUMO gap              4.215753421654 eV    ::
         :: SCC energy               -34.798542688112 Eh    ::
         :: -> dispersion             -0.018937411216 Eh    ::
         :: repulsion energy           0.470057423206 Eh    ::

    * Orbital Energies and Occupations

         #    Occupation            Energy/Eh            Energy/eV
      -------------------------------------------------------------
         1        2.0000           -0.8850916             -24.0846
       ...           ...                  ...                  ...
        19        2.0000           -0.6555548             -17.8386
        20        2.0000           -0.6529932             -17.7688
        21        2.0000           -0.6471076             -17.6087
        22        2.0000           -0.6388905             -17.3851
        23        2.0000           -0.6200557             -16.8726
        24        2.0000           -0.6167288             -16.7820
        25        2.0000           -0.6040311             -16.4365
        26        2.0000           -0.6004746             -16.3397
        27        2.0000           -0.5979130             -16.2700
        28        2.0000           -0.5875283             -15.9875
        29        2.0000           -0.5825718             -15.8526
        30        2.0000           -0.5770563             -15.7025
        31        2.0000           -0.5516407             -15.0109 (HOMO)
        32                         -0.3967146             -10.7952 (LUMO)
        33                         -0.3625428              -9.8653
        34                         -0.1831794              -4.9846
        35                         -0.1332642              -3.6263
        36                         -0.1003289              -2.7301
        37                         -0.0599108              -1.6303
        38                         -0.0493869              -1.3439
        39                         -0.0351715              -0.9571
        40                         -0.0266088              -0.7241
        41                         -0.0228999              -0.6231
        42                         -0.0161603              -0.4397
       ...                                ...                  ...
        59                          0.4725027              12.8575
      -------------------------------------------------------------
                  HL-Gap            0.1549261 Eh            4.2158 eV

     #   Z          covCN         q      C6AA      α(0)
     1   8 O        1.656    -0.447    21.788     6.301
     2   6 C        3.678     0.072    19.587     6.340
     3   6 C        3.791     0.023    20.200     6.401
     4   7 N        2.875     0.067    20.070     6.654
     5   6 C        3.071    -0.007    28.111     8.693
     6   6 C        3.077    -0.008    28.134     8.696
     7   7 N        2.870     0.068    20.053     6.651
     8   6 C        3.104     0.055    26.638     8.457
     9   6 C        3.741    -0.023    21.063     6.548
    10   6 C        3.753    -0.124    22.947     6.831
    11   6 C        3.754    -0.134    23.126     6.857
    12   1 H        0.805     0.315     0.678     1.293
    13   1 H        0.923     0.045     2.386     2.416
    14   1 H        0.924     0.060     2.196     2.318
    15   1 H        0.924     0.088     1.899     2.155
    16   1 H        0.927     0.108     1.717     2.049
    17   1 H        0.926     0.106     1.735     2.060
    18   1 H        0.926     0.122     1.596     1.976
    19   1 H        0.924     0.087     1.913     2.163
    20   1 H        0.924     0.091     1.865     2.136
    21   1 H        0.925     0.063     2.167     2.302
    22   1 H        0.925     0.084     1.935     2.175
    23   1 H        0.925     0.066     2.126     2.280
    24   1 H        0.925     0.083     1.947     2.182
    25   1 H        0.925     0.073     2.054     2.241
    26   1 H        0.925     0.068     2.110     2.272

Wiberg/Mayer (AO) data.
largest (>0.10) Wiberg bond orders for each atom

     #   Z sym  total        # sym  WBO       # sym  WBO       # sym  WBO
 ---------------------------------------------------------------------------
     1   8 O    1.950 --     2 C    1.005    12 H    0.886
     2   6 C    3.957 --     1 O    1.005     3 C    0.970    13 H    0.967
                            14 H    0.965
     3   6 C    3.946 --    11 C    1.008     2 C    0.970    15 H    0.955
                             4 N    0.952
     4   7 N    3.714 --     8 C    1.364     5 C    1.227     3 C    0.952
     5   6 C    3.949 --     6 C    1.592     4 N    1.227    16 H    0.960
     6   6 C    3.949 --     5 C    1.592     7 N    1.226    17 H    0.962
     7   7 N    3.717 --     8 C    1.368     6 C    1.226     9 C    0.966
     8   6 C    3.947 --     7 N    1.368     4 N    1.364    18 H    0.951
     9   6 C    3.939 --    10 C    1.001    19 H    0.966     7 N    0.966
                            20 H    0.964
    10   6 C    3.981 --     9 C    1.001    21 H    0.985    23 H    0.984
                            22 H    0.976
    11   6 C    3.981 --     3 C    1.008    26 H    0.981    25 H    0.981
                            24 H    0.977
    12   1 H    0.901 --     1 O    0.886
    13   1 H    0.998 --     2 C    0.967
    14   1 H    0.996 --     2 C    0.965
    15   1 H    0.992 --     3 C    0.955
    16   1 H    0.988 --     5 C    0.960
    17   1 H    0.989 --     6 C    0.962
    18   1 H    0.985 --     8 C    0.951
    19   1 H    0.992 --     9 C    0.966
    20   1 H    0.991 --     9 C    0.964
    21   1 H    0.996 --    10 C    0.985
    22   1 H    0.992 --    10 C    0.976
    23   1 H    0.996 --    10 C    0.984
    24   1 H    0.993 --    11 C    0.977
    25   1 H    0.994 --    11 C    0.981
    26   1 H    0.995 --    11 C    0.981
 ---------------------------------------------------------------------------

molecular dipole:
                 x           y           z       tot (Debye)
 q only:        5.946       0.693       4.296
   full:        5.780       0.743       4.057      18.049

           -------------------------------------------------
          | TOTAL ENERGY              -34.328485264906 Eh   |
          | GRADIENT NORM               0.000426818404 Eh/α |
          | HOMO-LUMO GAP               4.215753421654 eV   |
           -------------------------------------------------

 * finished run on 2024/12/20 at 06:46:50.621
