   * xtb version 6.7.1 (edcfbbe) compiled by 'conda@3ef47c1a292c' on 2024-11-25

   ID    Z sym.   atoms
    1    6 C      1-13, 15-21
    2    7 N      14
    3    1 H      22-57

          program call               : xtb C0511.xyz --opt --namespace C0511 --charge +1
          :  Hamiltonian                  GFN2-xTB          :
 * total energy  :   -63.7335797 Eh     change       -0.7960210E-09 Eh
 * total energy  :   -63.7387153 Eh     change       -0.5135646E-02 Eh
 * total energy  :   -63.7401028 Eh     change       -0.1387494E-02 Eh
 * total energy  :   -63.7404731 Eh     change       -0.3702777E-03 Eh
 * total energy  :   -63.7408491 Eh     change       -0.3760412E-03 Eh
 * total energy  :   -63.7410761 Eh     change       -0.2269258E-03 Eh
 * total energy  :   -63.7413036 Eh     change       -0.2274906E-03 Eh
 * total energy  :   -63.7415640 Eh     change       -0.2604123E-03 Eh
 * total energy  :   -63.7418297 Eh     change       -0.2657775E-03 Eh
 * total energy  :   -63.7420702 Eh     change       -0.2404945E-03 Eh
 * total energy  :   -63.7443313 Eh     change       -0.9017835E-05 Eh
 * total energy  :   -63.7443396 Eh     change       -0.8320243E-05 Eh
 * total energy  :   -63.7443488 Eh     change       -0.9243384E-05 Eh
 * total energy  :   -63.7443603 Eh     change       -0.1147329E-04 Eh
 * total energy  :   -63.7443738 Eh     change       -0.1354127E-04 Eh
 * total energy  :   -63.7443870 Eh     change       -0.1317524E-04 Eh
 * total energy  :   -63.7443967 Eh     change       -0.9682250E-05 Eh
 * total energy  :   -63.7444025 Eh     change       -0.5767985E-05 Eh
 * total energy  :   -63.7444061 Eh     change       -0.3657610E-05 Eh
   *** GEOMETRY OPTIMIZATION CONVERGED AFTER 59 ITERATIONS ***

 final structure:
================
57
 xtb: 6.7.1 (edcfbbe)
C           -5.86488325917623        5.44202605791043        1.44394807421290
C           -5.71155749282662        5.04280330517499        2.90693226900738
C           -5.34084199082448        3.57185049407385        3.10309519680385
C           -4.02072486375581        3.14151023708802        2.45811893081629
C           -2.78480855227587        3.85507670181627        3.01415373842426
C           -2.43422144039283        3.47143152295563        4.46126331479387
C           -1.14645240462642        2.64563614884451        4.59484324724019
C           -1.35351385458172        1.27152906561797        3.93899716025730
C           -0.15391092955306        0.39365727894869        3.81021079488951
C            1.14113623687321        0.88827469935268        3.95128043113153
C            2.24337199455560        0.06277916545770        3.84561097826797
C            2.04224029528862       -1.29203787211499        3.60845615914759
C            0.75436916245065       -1.74155582830322        3.45293149388549
N           -0.30898012978877       -0.92329153103090        3.53720479375160
C           -1.60794558647210       -1.50075878744552        3.22606753406156
C           -1.95371133687852       -1.31820503556824        1.74053763285228
C           -1.08134499453724       -2.14151280759279        0.79251075304710
C           -1.26220536546882       -3.65871766444086        0.89592499291835
C           -2.68341198358071       -4.15889097577945        0.62648461078292
C           -3.19484111774534       -3.80515499613409       -0.76459120904471
C           -0.78563687930249        2.48538058769924        6.07086222284355
H           -4.91180720417909        5.41014510858883        0.92148155685116
H           -6.25091373054141        6.45585769300832        1.37315736195523
H           -6.56060652774736        4.77646733305450        0.93742465961374
H           -4.96851468820288        5.68361885413717        3.38498221066572
H           -6.66034128836775        5.21544491349694        3.41938931932604
H           -5.30784664300248        3.36633945326720        4.17562094893361
H           -6.13690131855933        2.95533774520062        2.67848181154764
H           -3.91850200561353        2.05989713875786        2.59155530433919
H           -4.07629021795521        3.32934547373753        1.38502478565494
H           -1.93189073446516        3.64618555858745        2.36217826311679
H           -2.95757697477536        4.92831907701505        2.95510611964386
H           -2.30475740914730        4.37592377511832        5.05514811335594
H           -3.25964307652304        2.91492713537787        4.90736372315715
H           -0.35325525146314        3.19253418183753        4.07719513414974
H           -2.12156944677774        0.75777114210648        4.52371833276187
H           -1.76963068246653        1.43085229904631        2.94001645673692
H            1.28165202737395        1.93845296851109        4.14143132226007
H            3.23892011614981        0.46309362653532        3.95257352488023
H            2.86686981744890       -1.98144720397275        3.53710433297736
H            0.55131142208222       -2.78352092819858        3.25856039072721
H           -1.58138158011581       -2.56481442230397        3.46276029416369
H           -2.37833321432208       -1.03997596032439        3.84309150839986
H           -2.99703584734587       -1.60206977573567        1.60958934035207
H           -1.86558940526000       -0.26422615436234        1.47135866633974
H           -1.32020675418682       -1.83543232720953       -0.22588638953801
H           -0.02659694070764       -1.89720227521638        0.95390271968877
H           -0.59169734142721       -4.11883562659675        0.16777260499458
H           -0.95266491951251       -4.01580730938694        1.88205804515441
H           -2.67612729255594       -5.24542242931171        0.73063859101196
H           -3.37190251319556       -3.77107802271404        1.38041834547226
H           -2.49641062705604       -4.14644105121896       -1.52463935907654
H           -4.15173587557441       -4.28842216748073       -0.94196991145976
H           -3.33550635788804       -2.73316950330725       -0.87928685817048
H            0.08714847484353        1.85108889946956        6.21019787661176
H           -0.57340982867427        3.45461671583914        6.51283610820187
H           -1.61701166766346        2.04434629812206        6.61662162507581

          :  Hamiltonian                  GFN2-xTB          :
         :: total energy             -63.744406117035 Eh    ::
         :: gradient norm              0.000353928026 Eh/a0 ::
         :: HOMO-LUMO gap              1.413137572512 eV    ::
         :: SCC energy               -64.744489899026 Eh    ::
         :: -> dispersion             -0.049334050808 Eh    ::
         :: repulsion energy           1.000083781991 Eh    ::

    * Orbital Energies and Occupations

         #    Occupation            Energy/Eh            Energy/eV
      -------------------------------------------------------------
         1        2.0000           -0.8600264             -23.4025
       ...           ...                  ...                  ...
        48        2.0000           -0.5541065             -15.0780
        49        2.0000           -0.5520359             -15.0217
        50        2.0000           -0.5450429             -14.8314
        51        2.0000           -0.5388582             -14.6631
        52        2.0000           -0.5310638             -14.4510
        53        2.0000           -0.5279844             -14.3672
        54        2.0000           -0.5237207             -14.2512
        55        2.0000           -0.5212561             -14.1841
        56        2.0000           -0.5186790             -14.1140
        57        2.0000           -0.5183337             -14.1046
        58        2.0000           -0.4999625             -13.6047
        59        2.0000           -0.4953675             -13.4796
        60        2.0000           -0.4911867             -13.3659 (HOMO)
        61                         -0.4392549             -11.9527 (LUMO)
        62                         -0.4072860             -11.0828
        63                         -0.2900644              -7.8931
        64                         -0.1637735              -4.4565
        65                         -0.1006551              -2.7390
        66                         -0.0670128              -1.8235
        67                         -0.0504373              -1.3725
        68                         -0.0480588              -1.3077
        69                         -0.0447924              -1.2189
        70                         -0.0369336              -1.0050
        71                         -0.0313071              -0.8519
       ...                                ...                  ...
       120                          0.4633935              12.6096
      -------------------------------------------------------------
                  HL-Gap            0.0519319 Eh            1.4131 eV

     #   Z          covCN         q      C6AA      α(0)
     1   6 C        3.751    -0.105    22.560     6.774
     2   6 C        3.799    -0.055    21.563     6.612
     3   6 C        3.800    -0.060    21.654     6.625
     4   6 C        3.799    -0.059    21.630     6.622
     5   6 C        3.799    -0.065    21.755     6.641
     6   6 C        3.805    -0.073    21.885     6.660
     7   6 C        3.849    -0.017    20.838     6.493
     8   6 C        3.811    -0.084    22.085     6.689
     9   6 C        2.921     0.087    26.065     8.372
    10   6 C        2.921    -0.027    28.685     8.783
    11   6 C        2.923     0.006    27.888     8.660
    12   6 C        2.915    -0.021    28.519     8.757
    13   6 C        2.892     0.031    27.310     8.568
    14   7 N        2.751     0.081    19.844     6.616
    15   6 C        3.759    -0.033    21.208     6.565
    16   6 C        3.801    -0.067    21.793     6.646
    17   6 C        3.800    -0.066    21.769     6.643
    18   6 C        3.800    -0.062    21.696     6.632
    19   6 C        3.799    -0.057    21.604     6.618
    20   6 C        3.751    -0.109    22.648     6.787
    21   6 C        3.756    -0.118    22.822     6.811
    22   1 H        0.925     0.033     2.548     2.496
    23   1 H        0.925     0.040     2.455     2.450
    24   1 H        0.925     0.037     2.493     2.469
    25   1 H        0.924     0.032     2.558     2.501
    26   1 H        0.924     0.036     2.503     2.474
    27   1 H        0.924     0.028     2.614     2.528
    28   1 H        0.924     0.035     2.520     2.483
    29   1 H        0.924     0.013     2.839     2.635
    30   1 H        0.924     0.040     2.445     2.445
    31   1 H        0.924     0.023     2.683     2.561
    32   1 H        0.925     0.053     2.285     2.364
    33   1 H        0.925     0.052     2.298     2.371
    34   1 H        0.924     0.046     2.366     2.406
    35   1 H        0.924     0.042     2.426     2.436
    36   1 H        0.924     0.081     1.966     2.193
    37   1 H        0.924     0.097     1.811     2.105
    38   1 H        0.926     0.102     1.766     2.078
    39   1 H        0.926     0.096     1.824     2.112
    40   1 H        0.926     0.097     1.811     2.104
    41   1 H        0.926     0.102     1.770     2.081
    42   1 H        0.924     0.089     1.888     2.149
    43   1 H        0.925     0.084     1.940     2.178
    44   1 H        0.925     0.079     1.985     2.203
    45   1 H        0.924     0.046     2.366     2.406
    46   1 H        0.925     0.064     2.151     2.294
    47   1 H        0.924     0.025     2.659     2.550
    48   1 H        0.924     0.048     2.342     2.393
    49   1 H        0.924     0.019     2.748     2.593
    50   1 H        0.924     0.043     2.405     2.425
    51   1 H        0.924     0.029     2.604     2.524
    52   1 H        0.925     0.043     2.404     2.425
    53   1 H        0.925     0.046     2.368     2.406
    54   1 H        0.925     0.034     2.524     2.484
    55   1 H        0.925     0.033     2.548     2.496
    56   1 H        0.925     0.058     2.228     2.334
    57   1 H        0.925     0.047     2.355     2.400

Wiberg/Mayer (AO) data.
largest (>0.10) Wiberg bond orders for each atom

     #   Z sym  total        # sym  WBO       # sym  WBO       # sym  WBO
 ---------------------------------------------------------------------------
     1   6 C    3.996 --     2 C    1.020    24 H    0.987    23 H    0.987
                            22 H    0.986
     2   6 C    3.997 --     1 C    1.020     3 C    1.008    26 H    0.977
                            25 H    0.975
     3   6 C    3.997 --     2 C    1.008     4 C    1.007    28 H    0.977
                            27 H    0.975
     4   6 C    3.996 --     5 C    1.008     3 C    1.007    29 H    0.974
                            30 H    0.974
     5   6 C    3.995 --     4 C    1.008     6 C    1.003    31 H    0.974
                            32 H    0.973
     6   6 C    3.992 --     5 C    1.003     7 C    0.994    33 H    0.976
                            34 H    0.972
     7   6 C    3.989 --    21 C    1.009     6 C    0.994     8 C    0.986
                            35 H    0.962
     8   6 C    3.982 --     9 C    1.039     7 C    0.986    36 H    0.936
                            37 H    0.918
     9   6 C    3.952 --    10 C    1.392    14 N    1.285     8 C    1.039
    10   6 C    3.983 --    11 C    1.460     9 C    1.392    38 H    0.953
                            13 C    0.101
    11   6 C    3.974 --    10 C    1.460    12 C    1.392    39 H    0.963
    12   6 C    3.984 --    13 C    1.486    11 C    1.392    40 H    0.961
    13   6 C    3.960 --    12 C    1.486    14 N    1.304    41 H    0.952
                            10 C    0.101
    14   7 N    3.741 --    13 C    1.304     9 C    1.285    15 C    0.967
    15   6 C    3.938 --    16 C    0.977    14 N    0.967    42 H    0.961
                            43 H    0.954
    16   6 C    3.984 --    17 C    1.009    15 C    0.977    45 H    0.972
                            44 H    0.961
    17   6 C    3.993 --    16 C    1.009    18 C    1.007    47 H    0.972
                            46 H    0.968
    18   6 C    3.995 --    17 C    1.007    19 C    1.007    48 H    0.975
                            49 H    0.972
    19   6 C    3.996 --    20 C    1.021    18 C    1.007    50 H    0.977
                            51 H    0.975
    20   6 C    3.995 --    19 C    1.021    52 H    0.987    54 H    0.986
                            53 H    0.986
    21   6 C    3.992 --     7 C    1.009    57 H    0.985    56 H    0.984
                            55 H    0.982
    22   1 H    0.999 --     1 C    0.986
    23   1 H    0.998 --     1 C    0.987
    24   1 H    0.999 --     1 C    0.987
    25   1 H    0.999 --     2 C    0.975
    26   1 H    0.999 --     2 C    0.977
    27   1 H    0.999 --     3 C    0.975
    28   1 H    0.999 --     3 C    0.977
    29   1 H    1.000 --     4 C    0.974
    30   1 H    0.998 --     4 C    0.974
    31   1 H    0.999 --     5 C    0.974
    32   1 H    0.997 --     5 C    0.973
    33   1 H    0.997 --     6 C    0.976
    34   1 H    0.998 --     6 C    0.972
    35   1 H    0.998 --     7 C    0.962
    36   1 H    0.993 --     8 C    0.936
    37   1 H    0.990 --     8 C    0.918
    38   1 H    0.989 --    10 C    0.953
    39   1 H    0.991 --    11 C    0.963
    40   1 H    0.990 --    12 C    0.961
    41   1 H    0.989 --    13 C    0.952
    42   1 H    0.992 --    15 C    0.961
    43   1 H    0.993 --    15 C    0.954
    44   1 H    0.992 --    16 C    0.961
    45   1 H    0.998 --    16 C    0.972
    46   1 H    0.995 --    17 C    0.968
    47   1 H    0.999 --    17 C    0.972
    48   1 H    0.998 --    18 C    0.975
    49   1 H    1.000 --    18 C    0.972
    50   1 H    0.998 --    19 C    0.977
    51   1 H    0.999 --    19 C    0.975
    52   1 H    0.998 --    20 C    0.987
    53   1 H    0.998 --    20 C    0.986
    54   1 H    0.999 --    20 C    0.986
    55   1 H    0.999 --    21 C    0.982
    56   1 H    0.996 --    21 C    0.984
    57   1 H    0.998 --    21 C    0.985
 ---------------------------------------------------------------------------

molecular dipole:
                 x           y           z       tot (Debye)
 q only:       -0.725      -0.618       6.324
   full:       -0.610      -0.720       6.383      16.399

           -------------------------------------------------
          | TOTAL ENERGY              -63.744406117035 Eh   |
          | GRADIENT NORM               0.000353928026 Eh/α |
          | HOMO-LUMO GAP               1.413137572512 eV   |
           -------------------------------------------------

 * finished run on 2024/12/20 at 06:46:59.898
