   * xtb version 6.7.1 (edcfbbe) compiled by 'conda@3ef47c1a292c' on 2024-11-25

   ID    Z sym.   atoms
    1    6 C      1-9, 11-25
    2    7 N      10
    3    1 H      26-61

          program call               : xtb C0516.xyz --opt --namespace C0516 --charge +1
          :  Hamiltonian                  GFN2-xTB          :
 * total energy  :   -72.2783641 Eh     change       -0.7032241E-09 Eh
 * total energy  :   -72.2887079 Eh     change       -0.1034384E-01 Eh
 * total energy  :   -72.2915662 Eh     change       -0.2858251E-02 Eh
 * total energy  :   -72.2923272 Eh     change       -0.7609753E-03 Eh
 * total energy  :   -72.2931979 Eh     change       -0.8707113E-03 Eh
 * total energy  :   -72.2939277 Eh     change       -0.7298021E-03 Eh
 * total energy  :   -72.2947060 Eh     change       -0.7783283E-03 Eh
 * total energy  :   -72.2955274 Eh     change       -0.8213464E-03 Eh
 * total energy  :   -72.2962909 Eh     change       -0.7635566E-03 Eh
 * total energy  :   -72.2969713 Eh     change       -0.6803906E-03 Eh
 * total energy  :   -72.3101794 Eh     change       -0.1840395E-04 Eh
 * total energy  :   -72.3102123 Eh     change       -0.3284831E-04 Eh
 * total energy  :   -72.3102341 Eh     change       -0.2180909E-04 Eh
 * total energy  :   -72.3102428 Eh     change       -0.8763310E-05 Eh
 * total energy  :   -72.3102581 Eh     change       -0.1528070E-04 Eh
 * total energy  :   -72.3102765 Eh     change       -0.1838445E-04 Eh
 * total energy  :   -72.3102940 Eh     change       -0.1743951E-04 Eh
 * total energy  :   -72.3102999 Eh     change       -0.5965589E-05 Eh
 * total energy  :   -72.3103036 Eh     change       -0.3691060E-05 Eh
   *** GEOMETRY OPTIMIZATION CONVERGED AFTER 95 ITERATIONS ***

 final structure:
================
61
 xtb: 6.7.1 (edcfbbe)
C            1.53124046282212       -0.19351298809495       -0.81228851726611
C            0.10606798619404       -0.72316872666373       -0.63409417139434
C           -0.68539193882212       -0.59383772738815       -1.90968089620264
C           -1.23950683312751       -1.71031304852340       -2.52530166697076
C           -1.99385804011765       -1.57880325710375       -3.67255339485036
C           -2.20581163944184       -0.34308291881464       -4.27875981044800
C           -1.61925487244886        0.78151652036528       -3.68961691654904
C           -0.89686338128218        0.63917716277184       -2.50563043851041
C           -1.76924952151870        2.16873097732125       -4.25783477820217
N           -0.65020541718318        2.59379338016747       -5.16615936780712
C           -0.99670190981397        3.91499653862412       -5.80093135057699
C           -2.28987876667668        3.91826050059482       -6.57744331153251
C           -2.28009810521212        3.42497893235008       -7.88004545044843
C           -3.43072646108831        3.34696367318547       -8.65014053017850
C           -4.61518358449501        3.80742928313947       -8.08929795672375
C           -4.62695628046744        4.35896362137760       -6.82338931165215
C           -3.47767421770544        4.43416033090699       -6.04367896217284
C           -3.56388811935718        5.09581980790120       -4.69898176899863
C           -3.40049433201465        2.77410769782056      -10.04339892698124
C           -2.45876991752525        3.56973888398060      -10.94884210656436
C           -3.00331800353648        1.29549793844525      -10.00713460036675
C            0.59302727781617        2.76345429771962       -4.39551606158602
C           -0.41927280853598        1.56863548286706       -6.19542618012552
C           -3.05821990304461       -0.32027290529694       -5.51480486439337
C           -0.60260329037892       -0.00382891094710        0.51571502887627
H            1.53359506602069        0.87999686716813       -0.98874140217250
H            2.02138398859332       -0.68708337456831       -1.64907014535431
H            2.11153645898233       -0.38736836598865        0.08551988068532
H            0.16868639259673       -1.78639988874527       -0.38337849835174
H           -1.09580431587561       -2.68760092080349       -2.09050963033431
H           -2.43930176031134       -2.45574184966807       -4.11743387392732
H           -0.50613792345672        1.52318393665870       -2.02269791999936
H           -2.69092103150289        2.24989290718841       -4.83407929096170
H           -1.80345163515834        2.89083096518864       -3.43981062036539
H           -0.17095159363500        4.17231813343884       -6.46857476135288
H           -1.03653811572870        4.65449081816317       -5.00067030362289
H           -1.34274188100506        3.11472001400746       -8.31726973878893
H           -5.53134309634878        3.75982082776571       -8.65774773541493
H           -5.55239059652428        4.74816478301751       -6.42700977156075
H           -2.76172683074067        5.81805404742163       -4.55660710252202
H           -4.50497263404780        5.63261851554463       -4.61983236737737
H           -3.53251565046092        4.37498611887719       -3.88309899921233
H           -4.41046049606527        2.84352681483895      -10.45799547824230
H           -1.42577183243284        3.47748878288738      -10.62324350071697
H           -2.52642422667761        3.20016817559681      -11.96838134927806
H           -2.72876793813634        4.62267269874362      -10.94582039559555
H           -3.66847594700654        0.73649738442760       -9.35172560740508
H           -3.07009784364742        0.87024067491191      -11.00468431761649
H           -1.98077280569527        1.17273819629264       -9.65548876658323
H            0.87105694883538        1.81742441338203       -3.93399284691440
H            1.39935742832860        3.08590340608044       -5.05205533764712
H            0.45817911329389        3.51237924625587       -3.61703528108410
H           -0.15570575108878        0.62645848584787       -5.71861489449322
H           -1.32118540073357        1.42830334455578       -6.78532939592856
H            0.39610628071454        1.87535165551381       -6.84804517676617
H           -2.50314405456892       -0.71245481072591       -6.36738102784911
H           -3.91592977299476       -0.97300914226457       -5.36640534429848
H           -3.43564148575417        0.66592111043483       -5.77101159130408
H           -1.61488320144062       -0.38265941643795        0.63451985698668
H           -0.06267956788284       -0.16702519233405        1.44446301327700
H           -0.65458267140728        1.06732609065585        0.33554603366059

          :  Hamiltonian                  GFN2-xTB          :
         :: total energy             -72.310303611181 Eh    ::
         :: gradient norm              0.000566078326 Eh/a0 ::
         :: HOMO-LUMO gap              4.073548594318 eV    ::
         :: SCC energy               -73.518171922866 Eh    ::
         :: -> dispersion             -0.063379758864 Eh    ::
         :: repulsion energy           1.207868311685 Eh    ::

    * Orbital Energies and Occupations

         #    Occupation            Energy/Eh            Energy/eV
      -------------------------------------------------------------
         1        2.0000           -0.8445164             -22.9805
       ...           ...                  ...                  ...
        56        2.0000           -0.5477133             -14.9040
        57        2.0000           -0.5352248             -14.5642
        58        2.0000           -0.5336263             -14.5207
        59        2.0000           -0.5311577             -14.4535
        60        2.0000           -0.5293029             -14.4031
        61        2.0000           -0.5167414             -14.0613
        62        2.0000           -0.5165864             -14.0570
        63        2.0000           -0.5154623             -14.0264
        64        2.0000           -0.5149032             -14.0112
        65        2.0000           -0.5142186             -13.9926
        66        2.0000           -0.5127578             -13.9529
        67        2.0000           -0.4980435             -13.5525
        68        2.0000           -0.4957995             -13.4914 (HOMO)
        69                         -0.3460994              -9.4178 (LUMO)
        70                         -0.3385905              -9.2135
        71                         -0.3308747              -9.0036
        72                         -0.3297959              -8.9742
        73                         -0.2269440              -6.1755
        74                         -0.2129593              -5.7949
        75                         -0.1815655              -4.9406
        76                         -0.1296886              -3.5290
        77                         -0.1263894              -3.4392
        78                         -0.1226387              -3.3372
        79                         -0.0493126              -1.3419
       ...                                ...                  ...
       136                          0.5396713              14.6852
      -------------------------------------------------------------
                  HL-Gap            0.1497002 Eh            4.0735 eV

     #   Z          covCN         q      C6AA      α(0)
     1   6 C        3.755    -0.106    22.581     6.776
     2   6 C        3.855    -0.017    20.836     6.492
     3   6 C        2.970     0.015    27.666     8.628
     4   6 C        2.924    -0.033    28.827     8.805
     5   6 C        2.927    -0.038    28.938     8.822
     6   6 C        2.965     0.007    27.864     8.658
     7   6 C        2.968    -0.022    28.555     8.765
     8   6 C        2.931    -0.051    29.256     8.870
     9   6 C        3.763    -0.037    21.270     6.574
    10   7 N        3.620     0.125    19.097     6.490
    11   6 C        3.764    -0.039    21.312     6.580
    12   6 C        2.968    -0.021    28.532     8.762
    13   6 C        2.930    -0.051    29.256     8.870
    14   6 C        2.971     0.015    27.668     8.628
    15   6 C        2.924    -0.033    28.828     8.805
    16   6 C        2.925    -0.037    28.911     8.818
    17   6 C        2.965     0.007    27.869     8.659
    18   6 C        3.757    -0.119    22.824     6.811
    19   6 C        3.855    -0.017    20.839     6.492
    20   6 C        3.756    -0.107    22.601     6.778
    21   6 C        3.756    -0.106    22.573     6.774
    22   6 C        3.723    -0.089    22.304     6.744
    23   6 C        3.719    -0.089    22.327     6.749
    24   6 C        3.758    -0.118    22.820     6.811
    25   6 C        3.756    -0.107    22.590     6.777
    26   1 H        0.925     0.032     2.553     2.499
    27   1 H        0.925     0.034     2.536     2.490
    28   1 H        0.925     0.052     2.297     2.370
    29   1 H        0.924     0.045     2.386     2.416
    30   1 H        0.926     0.053     2.286     2.365
    31   1 H        0.926     0.052     2.291     2.367
    32   1 H        0.926     0.037     2.490     2.468
    33   1 H        0.925     0.087     1.911     2.162
    34   1 H        0.924     0.076     2.024     2.225
    35   1 H        0.924     0.077     2.008     2.216
    36   1 H        0.924     0.081     1.970     2.195
    37   1 H        0.926     0.039     2.462     2.454
    38   1 H        0.926     0.053     2.283     2.363
    39   1 H        0.926     0.053     2.287     2.365
    40   1 H        0.925     0.047     2.358     2.402
    41   1 H        0.925     0.064     2.158     2.297
    42   1 H        0.925     0.046     2.369     2.407
    43   1 H        0.924     0.045     2.379     2.412
    44   1 H        0.925     0.036     2.496     2.471
    45   1 H        0.925     0.051     2.311     2.377
    46   1 H        0.925     0.041     2.430     2.438
    47   1 H        0.925     0.034     2.532     2.489
    48   1 H        0.925     0.052     2.292     2.367
    49   1 H        0.925     0.031     2.575     2.509
    50   1 H        0.925     0.101     1.773     2.082
    51   1 H        0.925     0.089     1.892     2.151
    52   1 H        0.925     0.088     1.896     2.153
    53   1 H        0.925     0.095     1.835     2.118
    54   1 H        0.925     0.106     1.735     2.060
    55   1 H        0.925     0.085     1.926     2.170
    56   1 H        0.924     0.054     2.273     2.358
    57   1 H        0.925     0.066     2.133     2.284
    58   1 H        0.925     0.037     2.494     2.469
    59   1 H        0.925     0.041     2.439     2.442
    60   1 H        0.925     0.051     2.309     2.376
    61   1 H        0.925     0.037     2.495     2.470

Wiberg/Mayer (AO) data.
largest (>0.10) Wiberg bond orders for each atom

     #   Z sym  total        # sym  WBO       # sym  WBO       # sym  WBO
 ---------------------------------------------------------------------------
     1   6 C    3.995 --     2 C    0.996    27 H    0.987    26 H    0.985
                            28 H    0.984
     2   6 C    3.994 --     3 C    1.001     1 C    0.996    25 C    0.994
                            29 H    0.967
     3   6 C    3.986 --     8 C    1.422     4 C    1.393     2 C    1.001
                             6 C    0.102
     4   6 C    3.990 --     5 C    1.462     3 C    1.393    30 H    0.966
                             7 C    0.101
     5   6 C    3.990 --     4 C    1.462     6 C    1.400    31 H    0.967
                             8 C    0.107
     6   6 C    3.987 --     5 C    1.400     7 C    1.384    24 C    1.027
                             3 C    0.102
     7   6 C    3.974 --     8 C    1.402     6 C    1.384     9 C    1.006
                             4 C    0.101
     8   6 C    3.990 --     3 C    1.422     7 C    1.402    32 H    0.962
                             5 C    0.107
     9   6 C    3.927 --     7 C    1.006    34 H    0.964    33 H    0.952
                            10 N    0.909
    10   7 N    3.806 --    22 C    0.965    23 C    0.962    11 C    0.910
                             9 C    0.909
    11   6 C    3.929 --    12 C    1.006    35 H    0.965    36 H    0.962
                            10 N    0.910
    12   6 C    3.974 --    13 C    1.408    17 C    1.377    11 C    1.006
                            15 C    0.103
    13   6 C    3.990 --    14 C    1.416    12 C    1.408    37 H    0.962
                            16 C    0.105
    14   6 C    3.987 --    13 C    1.416    15 C    1.400    19 C    1.001
                            17 C    0.101
    15   6 C    3.990 --    16 C    1.453    14 C    1.400    38 H    0.966
                            12 C    0.103
    16   6 C    3.990 --    15 C    1.453    17 C    1.408    39 H    0.966
                            13 C    0.105
    17   6 C    3.987 --    16 C    1.408    12 C    1.377    18 C    1.027
                            14 C    0.101
    18   6 C    3.993 --    17 C    1.027    41 H    0.980    40 H    0.970
                            42 H    0.966
    19   6 C    3.994 --    14 C    1.001    20 C    0.996    21 C    0.994
                            43 H    0.967
    20   6 C    3.994 --    19 C    0.996    46 H    0.987    44 H    0.985
                            45 H    0.984
    21   6 C    3.995 --    19 C    0.994    47 H    0.987    49 H    0.986
                            48 H    0.984
    22   6 C    3.935 --    52 H    0.976    51 H    0.976    50 H    0.969
                            10 N    0.965
    23   6 C    3.930 --    55 H    0.976    53 H    0.971    54 H    0.965
                            10 N    0.962
    24   6 C    3.994 --     6 C    1.027    58 H    0.975    57 H    0.973
                            56 H    0.966
    25   6 C    3.994 --     2 C    0.994    59 H    0.987    61 H    0.985
                            60 H    0.984
    26   1 H    0.999 --     1 C    0.985
    27   1 H    0.999 --     1 C    0.987
    28   1 H    0.996 --     1 C    0.984
    29   1 H    0.998 --     2 C    0.967
    30   1 H    0.996 --     4 C    0.966
    31   1 H    0.997 --     5 C    0.967
    32   1 H    0.998 --     8 C    0.962
    33   1 H    0.992 --     9 C    0.952
    34   1 H    0.994 --     9 C    0.964
    35   1 H    0.993 --    11 C    0.965
    36   1 H    0.993 --    11 C    0.962
    37   1 H    0.998 --    13 C    0.962
    38   1 H    0.997 --    15 C    0.966
    39   1 H    0.997 --    16 C    0.966
    40   1 H    0.997 --    18 C    0.970
    41   1 H    0.996 --    18 C    0.980
    42   1 H    0.997 --    18 C    0.966
    43   1 H    0.998 --    19 C    0.967
    44   1 H    0.999 --    20 C    0.985
    45   1 H    0.997 --    20 C    0.984
    46   1 H    0.998 --    20 C    0.987
    47   1 H    0.999 --    21 C    0.987
    48   1 H    0.996 --    21 C    0.984
    49   1 H    0.999 --    21 C    0.986
    50   1 H    0.989 --    22 C    0.969
    51   1 H    0.992 --    22 C    0.976
    52   1 H    0.992 --    22 C    0.976
    53   1 H    0.991 --    23 C    0.971
    54   1 H    0.989 --    23 C    0.965
    55   1 H    0.993 --    23 C    0.976
    56   1 H    0.997 --    24 C    0.966
    57   1 H    0.995 --    24 C    0.973
    58   1 H    0.998 --    24 C    0.975
    59   1 H    0.998 --    25 C    0.987
    60   1 H    0.996 --    25 C    0.984
    61   1 H    0.999 --    25 C    0.985
 ---------------------------------------------------------------------------

molecular dipole:
                 x           y           z       tot (Debye)
 q only:       -1.999       4.159      -9.863
   full:       -1.963       4.283      -9.847      27.747

           -------------------------------------------------
          | TOTAL ENERGY              -72.310303611181 Eh   |
          | GRADIENT NORM               0.000566078326 Eh/α |
          | HOMO-LUMO GAP               4.073548594318 eV   |
           -------------------------------------------------

 * finished run on 2024/12/20 at 06:47:15.807
