   * xtb version 6.7.1 (edcfbbe) compiled by 'conda@3ef47c1a292c' on 2024-11-25

   ID    Z sym.   atoms
    1    6 C      1-4
    2    7 N      5
    3    1 H      6-17

          program call               : xtb C0518.xyz --opt --namespace C0518 --charge +1
          :  Hamiltonian                  GFN2-xTB          :
 * total energy  :   -17.1683917 Eh     change       -0.7940670E-10 Eh
 * total energy  :   -17.1694335 Eh     change       -0.1041820E-02 Eh
 * total energy  :   -17.1696691 Eh     change       -0.2355193E-03 Eh
 * total energy  :   -17.1697299 Eh     change       -0.6086266E-04 Eh
 * total energy  :   -17.1697611 Eh     change       -0.3120767E-04 Eh
 * total energy  :   -17.1697918 Eh     change       -0.3065744E-04 Eh
 * total energy  :   -17.1698208 Eh     change       -0.2903564E-04 Eh
 * total energy  :   -17.1698451 Eh     change       -0.2431029E-04 Eh
 * total energy  :   -17.1698482 Eh     change       -0.3032328E-05 Eh
   *** GEOMETRY OPTIMIZATION CONVERGED AFTER 9 ITERATIONS ***

 final structure:
================
17
 xtb: 6.7.1 (edcfbbe)
C            0.92736424412823        0.07180745978158       -0.05620170010319
C            0.45468067222992       -1.17010209572865        0.69219938307179
C            0.90839569403761       -1.21137788851181        2.15528149600242
C            0.44746156154831       -0.01671067159103        2.97889715987812
N           -1.04645315107393        0.05415684253805        2.97937628107558
H            0.44366772871325        0.98285015716967        0.29096766272573
H            0.70616010346475       -0.03173296061512       -1.11425481556772
H            2.00221266486489        0.19052787146217        0.04801530966948
H           -0.63323048408413       -1.26523480378963        0.61235953469939
H            0.87218230475405       -2.04832399680369        0.19992767086810
H            0.55970702048902       -2.13597176494373        2.61932638038963
H            1.99775800400592       -1.22759190307510        2.18366775387612
H            0.79509418008386       -0.10443709734694        4.00853267627313
H            0.83533714870663        0.91026332414822        2.55634985814485
H           -1.43874954078206       -0.78962440580223        3.41640549891348
H           -1.39265211251717        0.88062991468139        3.47918052876643
H           -1.36367603856911        0.08550201842681        1.99984932131660

          :  Hamiltonian                  GFN2-xTB          :
         :: total energy             -17.169848158287 Eh    ::
         :: gradient norm              0.000862897367 Eh/a0 ::
         :: HOMO-LUMO gap              8.483784482579 eV    ::
         :: SCC energy               -17.420491229544 Eh    ::
         :: -> dispersion             -0.007753446141 Eh    ::
         :: repulsion energy           0.250643071257 Eh    ::

    * Orbital Energies and Occupations

         #    Occupation            Energy/Eh            Energy/eV
      -------------------------------------------------------------
         1        2.0000           -0.8956133             -24.3709
       ...           ...                  ...                  ...
         4        2.0000           -0.8014026             -21.8073
         5        2.0000           -0.7778522             -21.1664
         6        2.0000           -0.7522728             -20.4704
         7        2.0000           -0.7312083             -19.8972
         8        2.0000           -0.6994136             -19.0320
         9        2.0000           -0.6861952             -18.6723
        10        2.0000           -0.6678082             -18.1720
        11        2.0000           -0.6450871             -17.5537
        12        2.0000           -0.6296526             -17.1337
        13        2.0000           -0.6173071             -16.7978
        14        2.0000           -0.5905123             -16.0687
        15        2.0000           -0.5784856             -15.7414
        16        2.0000           -0.5737308             -15.6120 (HOMO)
        17                         -0.2619575              -7.1282 (LUMO)
        18                         -0.1589356              -4.3249
        19                         -0.1038440              -2.8257
        20                         -0.1005079              -2.7350
        21                         -0.0734277              -1.9981
        22                         -0.0532824              -1.4499
        23                         -0.0277345              -0.7547
        24                         -0.0052139              -0.1419
        25                         -0.0019309              -0.0525
        26                          0.0241936               0.6583
        27                          0.0655583               1.7839
       ...                                ...                  ...
        32                          0.1516716               4.1272
      -------------------------------------------------------------
                  HL-Gap            0.3117733 Eh            8.4838 eV

     #   Z          covCN         q      C6AA      α(0)
     1   6 C        3.751    -0.121    22.889     6.823
     2   6 C        3.799    -0.070    21.839     6.654
     3   6 C        3.802    -0.087    22.159     6.702
     4   6 C        3.730    -0.034    21.270     6.584
     5   7 N        3.483    -0.128    23.764     7.240
     6   1 H        0.925     0.030     2.590     2.517
     7   1 H        0.925     0.064     2.155     2.295
     8   1 H        0.925     0.058     2.217     2.328
     9   1 H        0.924     0.029     2.604     2.524
    10   1 H        0.925     0.073     2.051     2.240
    11   1 H        0.924     0.063     2.159     2.298
    12   1 H        0.925     0.094     1.845     2.124
    13   1 H        0.924     0.103     1.759     2.074
    14   1 H        0.925     0.112     1.681     2.028
    15   1 H        0.859     0.269     0.812     1.412
    16   1 H        0.859     0.266     0.823     1.421
    17   1 H        0.859     0.278     0.781     1.385

Wiberg/Mayer (AO) data.
largest (>0.10) Wiberg bond orders for each atom

     #   Z sym  total        # sym  WBO       # sym  WBO       # sym  WBO
 ---------------------------------------------------------------------------
     1   6 C    3.991 --     2 C    1.020     6 H    0.985     8 H    0.985
                             7 H    0.983
     2   6 C    3.992 --     1 C    1.020     3 C    1.004    10 H    0.971
                             9 H    0.969
     3   6 C    3.979 --     4 C    1.009     2 C    1.004    11 H    0.972
                            12 H    0.961
     4   6 C    3.889 --     3 C    1.009    13 H    0.968    14 H    0.963
                             5 N    0.924
     5   7 N    3.675 --     4 C    0.924    16 H    0.915    15 H    0.911
                            17 H    0.896
     6   1 H    0.999 --     1 C    0.985
     7   1 H    0.996 --     1 C    0.983
     8   1 H    0.997 --     1 C    0.985
     9   1 H    0.999 --     2 C    0.969
    10   1 H    0.995 --     2 C    0.971
    11   1 H    0.996 --     3 C    0.972
    12   1 H    0.991 --     3 C    0.961
    13   1 H    0.989 --     4 C    0.968
    14   1 H    0.987 --     4 C    0.963
    15   1 H    0.927 --     5 N    0.911
    16   1 H    0.929 --     5 N    0.915
    17   1 H    0.922 --     5 N    0.896
 ---------------------------------------------------------------------------

molecular dipole:
                 x           y           z       tot (Debye)
 q only:       -1.180      -0.169       5.168
   full:       -1.430      -0.118       5.250      13.834

           -------------------------------------------------
          | TOTAL ENERGY              -17.169848158287 Eh   |
          | GRADIENT NORM               0.000862897367 Eh/α |
          | HOMO-LUMO GAP               8.483784482579 eV   |
           -------------------------------------------------

 * finished run on 2024/12/20 at 06:47:16.589
