   * xtb version 6.7.1 (edcfbbe) compiled by 'conda@3ef47c1a292c' on 2024-11-25

   ID    Z sym.   atoms
    1    6 C      1, 3, 5-10
    2    7 N      2, 4, 11
    3    1 H      12-23

          program call               : xtb C0519.xyz --opt --namespace C0519 --charge +1
          :  Hamiltonian                  GFN2-xTB          :
 * total energy  :   -31.4334586 Eh     change       -0.9372059E-11 Eh
 * total energy  :   -31.4983930 Eh     change       -0.6493436E-01 Eh
 * total energy  :   -31.5037547 Eh     change       -0.5361677E-02 Eh
 * total energy  :   -31.5045954 Eh     change       -0.8407513E-03 Eh
 * total energy  :   -31.5047871 Eh     change       -0.1916702E-03 Eh
 * total energy  :   -31.5054109 Eh     change       -0.6238413E-03 Eh
 * total energy  :   -31.5055956 Eh     change       -0.1846915E-03 Eh
 * total energy  :   -31.5058277 Eh     change       -0.2320194E-03 Eh
 * total energy  :   -31.5061034 Eh     change       -0.2757723E-03 Eh
 * total energy  :   -31.5063925 Eh     change       -0.2890404E-03 Eh
 * total energy  :   -31.5081831 Eh     change       -0.3256191E-04 Eh
 * total energy  :   -31.5081942 Eh     change       -0.1114110E-04 Eh
 * total energy  :   -31.5082033 Eh     change       -0.9119137E-05 Eh
 * total energy  :   -31.5082140 Eh     change       -0.1068289E-04 Eh
 * total energy  :   -31.5082167 Eh     change       -0.2659786E-05 Eh
 * total energy  :   -31.5082252 Eh     change       -0.8544206E-05 Eh
 * total energy  :   -31.5082309 Eh     change       -0.5725475E-05 Eh
 * total energy  :   -31.5082364 Eh     change       -0.5426116E-05 Eh
 * total energy  :   -31.5082411 Eh     change       -0.4765436E-05 Eh
   *** GEOMETRY OPTIMIZATION CONVERGED AFTER 29 ITERATIONS ***

 final structure:
================
23
 xtb: 6.7.1 (edcfbbe)
C            1.06223727619460        0.57546169560810        0.14661007798759
N            0.02122259333609        0.96741053680686        0.39343024559699
C            2.36266136595555        0.00784782841607       -0.15855795343523
N            3.01614666490826        0.59113316567560       -1.36406168304217
C            3.49888261471365        1.98221907087816       -1.11145544606214
C            2.27229540578219        2.86674819592562       -1.27772965835880
C            1.45165090872374        2.16437411112979       -2.37074981324390
C            2.03618358159135        0.74767082863481       -2.48379366691119
C            4.14403879456284       -0.29420254764720       -1.74869246651599
C            5.11027880131976       -0.40696892521682       -0.66827094009597
N            5.85102405608222       -0.47476442073719        0.19429322845188
H            3.01555343550749        0.13296108525002        0.71289684084704
H            2.20786803576465       -1.06673517785533       -0.31601531057165
H            4.24141759276158        2.22410082836665       -1.87521870624375
H            3.97020996386443        2.06011165888706       -0.13167571416020
H            1.70875886985572        2.94220213504055       -0.34918934912155
H            2.55869139523489        3.87454248640095       -1.56944217747868
H            0.39601897184949        2.14262931327996       -2.10874208165734
H            1.54585487624018        2.68209514942692       -3.32340953528155
H            1.27194389157279       -0.02755554621699       -2.42359678020093
H            2.56971922381288        0.62935939998745       -3.42815264875576
H            3.77178436337429       -1.29376739078352       -2.00052999999404
H            4.65546731699107        0.11438651874352       -2.62735646175271

          :  Hamiltonian                  GFN2-xTB          :
         :: total energy             -31.508241120953 Eh    ::
         :: gradient norm              0.000850031817 Eh/a0 ::
         :: HOMO-LUMO gap              5.133575720671 eV    ::
         :: SCC energy               -32.037581911768 Eh    ::
         :: -> dispersion             -0.019203199133 Eh    ::
         :: repulsion energy           0.529340790815 Eh    ::

    * Orbital Energies and Occupations

         #    Occupation            Energy/Eh            Energy/eV
      -------------------------------------------------------------
         1        2.0000           -0.9052963             -24.6344
       ...           ...                  ...                  ...
        17        2.0000           -0.6959946             -18.9390
        18        2.0000           -0.6823372             -18.5673
        19        2.0000           -0.6782186             -18.4553
        20        2.0000           -0.6634418             -18.0532
        21        2.0000           -0.6612146             -17.9926
        22        2.0000           -0.6501001             -17.6901
        23        2.0000           -0.6440308             -17.5250
        24        2.0000           -0.6411453             -17.4465
        25        2.0000           -0.6401965             -17.4206
        26        2.0000           -0.6318588             -17.1938
        27        2.0000           -0.6001251             -16.3302
        28        2.0000           -0.5986431             -16.2899
        29        2.0000           -0.5946690             -16.1818 (HOMO)
        30                         -0.4060136             -11.0482 (LUMO)
        31                         -0.3903104             -10.6209
        32                         -0.3831836             -10.4270
        33                         -0.3757030             -10.2234
        34                         -0.2468841              -6.7181
        35                         -0.2195952              -5.9755
        36                         -0.1874160              -5.0999
        37                         -0.1831970              -4.9850
        38                         -0.1131261              -3.0783
        39                         -0.0782005              -2.1279
        40                         -0.0754060              -2.0519
       ...                                ...                  ...
        56                          0.9781989              26.6181
      -------------------------------------------------------------
                  HL-Gap            0.1886554 Eh            5.1336 eV

     #   Z          covCN         q      C6AA      α(0)
     1   6 C        1.892     0.113    28.317     8.594
     2   7 N        0.911    -0.137    23.964     7.080
     3   6 C        3.760    -0.021    20.990     6.531
     4   7 N        3.635     0.123    19.139     6.498
     5   6 C        3.787    -0.026    21.059     6.536
     6   6 C        3.814    -0.076    21.945     6.668
     7   6 C        3.815    -0.078    21.978     6.672
     8   6 C        3.778    -0.031    21.154     6.552
     9   6 C        3.762    -0.025    21.064     6.542
    10   6 C        1.894     0.104    28.530     8.627
    11   7 N        0.911    -0.132    23.861     7.065
    12   1 H        0.924     0.121     1.609     1.984
    13   1 H        0.924     0.115     1.654     2.011
    14   1 H        0.924     0.091     1.868     2.138
    15   1 H        0.925     0.091     1.868     2.137
    16   1 H        0.925     0.079     1.985     2.203
    17   1 H        0.925     0.095     1.831     2.116
    18   1 H        0.925     0.089     1.887     2.148
    19   1 H        0.925     0.087     1.905     2.158
    20   1 H        0.924     0.091     1.871     2.139
    21   1 H        0.924     0.089     1.888     2.149
    22   1 H        0.924     0.117     1.641     2.004
    23   1 H        0.924     0.120     1.611     1.985

Wiberg/Mayer (AO) data.
largest (>0.10) Wiberg bond orders for each atom

     #   Z sym  total        # sym  WBO       # sym  WBO       # sym  WBO
 ---------------------------------------------------------------------------
     1   6 C    3.957 --     2 N    2.889     3 C    1.032
     2   7 N    3.039 --     1 C    2.889
     3   6 C    3.944 --     1 C    1.032    13 H    0.937    12 H    0.936
                             4 N    0.935
     4   7 N    3.804 --     9 C    0.940     3 C    0.935     8 C    0.921
                             5 C    0.920
     5   6 C    3.922 --     6 C    1.009    15 H    0.967    14 H    0.967
                             4 N    0.920
     6   6 C    3.981 --     5 C    1.009     7 C    0.998    16 H    0.971
                            17 H    0.967
     7   6 C    3.978 --     8 C    1.001     6 C    0.998    19 H    0.974
                            18 H    0.974
     8   6 C    3.922 --     7 C    1.001    21 H    0.970    20 H    0.970
                             4 N    0.921
     9   6 C    3.946 --    10 C    1.029     4 N    0.940    22 H    0.940
                            23 H    0.937
    10   6 C    3.958 --    11 N    2.898     9 C    1.029
    11   7 N    3.040 --    10 C    2.898
    12   1 H    0.985 --     3 C    0.936
    13   1 H    0.987 --     3 C    0.937
    14   1 H    0.992 --     5 C    0.967
    15   1 H    0.992 --     5 C    0.967
    16   1 H    0.994 --     6 C    0.971
    17   1 H    0.991 --     6 C    0.967
    18   1 H    0.992 --     7 C    0.974
    19   1 H    0.992 --     7 C    0.974
    20   1 H    0.992 --     8 C    0.970
    21   1 H    0.992 --     8 C    0.970
    22   1 H    0.986 --     9 C    0.940
    23   1 H    0.985 --     9 C    0.937
 ---------------------------------------------------------------------------

molecular dipole:
                 x           y           z       tot (Debye)
 q only:        5.507       1.506      -3.263
   full:        5.772       1.150      -3.722      17.700

           -------------------------------------------------
          | TOTAL ENERGY              -31.508241120953 Eh   |
          | GRADIENT NORM               0.000850031817 Eh/α |
          | HOMO-LUMO GAP               5.133575720671 eV   |
           -------------------------------------------------

 * finished run on 2024/12/20 at 06:47:17.136
