   * xtb version 6.7.1 (edcfbbe) compiled by 'conda@3ef47c1a292c' on 2024-11-25

   ID    Z sym.   atoms
    1    6 C      1, 3, 5, 7, 8, 10-17, 19-24
    2    8 O      2, 4, 18
    3    7 N      6, 9
    4    1 H      25-43

          program call               : xtb C0513.xyz --opt --namespace C0513 --charge +1
          :  Hamiltonian                  GFN2-xTB          :
 * total energy  :   -68.0403331 Eh     change       -0.5317133E-09 Eh
 * total energy  :   -68.0522882 Eh     change       -0.1195508E-01 Eh
 * total energy  :   -68.0550828 Eh     change       -0.2794627E-02 Eh
 * total energy  :   -68.0557333 Eh     change       -0.6504203E-03 Eh
 * total energy  :   -68.0563904 Eh     change       -0.6570952E-03 Eh
 * total energy  :   -68.0569359 Eh     change       -0.5455127E-03 Eh
 * total energy  :   -68.0576074 Eh     change       -0.6715542E-03 Eh
 * total energy  :   -68.0582995 Eh     change       -0.6920404E-03 Eh
 * total energy  :   -68.0588407 Eh     change       -0.5412890E-03 Eh
 * total energy  :   -68.0592274 Eh     change       -0.3866432E-03 Eh
 * total energy  :   -68.0649158 Eh     change       -0.8698085E-05 Eh
 * total energy  :   -68.0649253 Eh     change       -0.9591560E-05 Eh
 * total energy  :   -68.0649446 Eh     change       -0.1925573E-04 Eh
 * total energy  :   -68.0649392 Eh     change        0.5421411E-05 Eh
 * total energy  :   -68.0649523 Eh     change       -0.1309084E-04 Eh
 * total energy  :   -68.0649621 Eh     change       -0.9866282E-05 Eh
 * total energy  :   -68.0649688 Eh     change       -0.6648205E-05 Eh
 * total energy  :   -68.0649778 Eh     change       -0.9014109E-05 Eh
 * total energy  :   -68.0649805 Eh     change       -0.2729679E-05 Eh
   *** GEOMETRY OPTIMIZATION CONVERGED AFTER 53 ITERATIONS ***

 final structure:
================
43
 xtb: 6.7.1 (edcfbbe)
C            2.43081972373411       -1.81366100762237       -0.40304644651054
O            1.29253840651343       -1.77229129482148        0.46417251810132
C            1.48393593406782       -1.54314950550790        1.74143463946630
O            2.52557181195284       -1.33688224007670        2.30224323916402
C            0.14123817208534       -1.57617540501782        2.50366265660259
N            0.30278889442662       -0.93497102046170        3.77793357021067
C            0.91548655668308       -1.46528649700044        4.84742307329073
C            1.40235349388263       -2.85430817111263        4.90752218461009
N            1.03020932680148       -0.53932450722187        5.80746346658100
C            0.51787969850746        0.65560519073777        5.32913459442951
C            0.05256822865345        0.40109623514240        4.02850017477140
C           -0.51837784452946        1.40106507266168        3.25353810202142
C           -0.60247345197488        2.65898743150258        3.81542332669448
C           -0.12533171689028        2.91885482461481        5.10112008850954
C            0.44391141811110        1.93005786091895        5.87829655653919
C            1.61209351994592       -0.73187709896466        7.11540272629927
C            0.83717494491460       -1.77487690660433        7.96979812373073
O            1.23614850561945       -2.91639843081840        7.97494516330489
C           -0.32142400212732       -1.32720048717891        8.74402241845501
C           -0.99269869440066       -0.12248645581716        8.51733454052569
C           -2.08296335998718        0.21768078054257        9.29395555309518
C           -2.51260467586486       -0.62517609617051       10.30900564661299
C           -1.85861360620366       -1.82666163259091       10.53799374776836
C           -0.77666823122433       -2.17980333957244        9.75807611102488
H            2.22560878607901       -1.15084288488322       -1.24169540312549
H            2.55175529734824       -2.83588589181806       -0.76035098562885
H            3.32494488360406       -1.49154217356026        0.13117787787167
H           -0.62498592202565       -1.06424060907274        1.92139736754849
H           -0.15746958968385       -2.62014104138997        2.63121033751034
H            0.61409464374041       -3.55175687724030        4.62448499431727
H            2.22729949608152       -2.97501723009400        4.20317036811197
H            1.74721999394615       -3.12040873079743        5.90283264693725
H           -0.87297549562018        1.21587744449367        2.25301484979101
H           -1.03621568806182        3.46424123885250        3.24474168863121
H           -0.19685920212361        3.92032817813042        5.49400536148563
H            0.82568849561543        2.15827354530597        6.86065535640414
H            2.63367743532488       -1.11000190272299        7.00522436121507
H            1.64407477591222        0.22757788385172        7.62957329156553
H           -0.69193685094361        0.54135728365282        7.72261893684387
H           -2.60082714743758        1.14659023915453        9.10968899329470
H           -3.35854235240304       -0.34548278019786       10.91761672808241
H           -2.19449862182150       -2.48549660291260       11.32333729677792
H           -0.25323599022225       -3.10961638832134        9.92095015709518

          :  Hamiltonian                  GFN2-xTB          :
         :: total energy             -68.064980528748 Eh    ::
         :: gradient norm              0.000575823802 Eh/a0 ::
         :: HOMO-LUMO gap              3.039839952371 eV    ::
         :: SCC energy               -69.078012215024 Eh    ::
         :: -> dispersion             -0.046228581572 Eh    ::
         :: repulsion energy           1.013031686276 Eh    ::

    * Orbital Energies and Occupations

         #    Occupation            Energy/Eh            Energy/eV
      -------------------------------------------------------------
         1        2.0000           -0.8772637             -23.8716
       ...           ...                  ...                  ...
        49        2.0000           -0.5874733             -15.9860
        50        2.0000           -0.5852809             -15.9263
        51        2.0000           -0.5765580             -15.6889
        52        2.0000           -0.5695781             -15.4990
        53        2.0000           -0.5642707             -15.3546
        54        2.0000           -0.5574240             -15.1683
        55        2.0000           -0.5486231             -14.9288
        56        2.0000           -0.5422793             -14.7562
        57        2.0000           -0.5385987             -14.6560
        58        2.0000           -0.5318481             -14.4723
        59        2.0000           -0.5227554             -14.2249
        60        2.0000           -0.5192777             -14.1303
        61        2.0000           -0.5161782             -14.0459 (HOMO)
        62                         -0.4044661             -11.0061 (LUMO)
        63                         -0.4019009             -10.9363
        64                         -0.3602333              -9.8024
        65                         -0.3580847              -9.7440
        66                         -0.3498730              -9.5205
        67                         -0.3361616              -9.1474
        68                         -0.3117926              -8.4843
        69                         -0.2333656              -6.3502
        70                         -0.2015676              -5.4849
        71                         -0.1719256              -4.6783
        72                         -0.1331678              -3.6237
       ...                                ...                  ...
       115                          0.5538718              15.0716
      -------------------------------------------------------------
                  HL-Gap            0.1117121 Eh            3.0398 eV

     #   Z          covCN         q      C6AA      α(0)
     1   6 C        3.649     0.013    20.681     6.533
     2   8 O        1.704    -0.229    17.798     5.696
     3   6 C        2.715     0.360    20.894     7.482
     4   8 O        0.856    -0.399    21.662     6.240
     5   6 C        3.742    -0.047    21.495     6.615
     6   7 N        2.834     0.014    21.009     6.808
     7   6 C        3.065     0.134    25.021     8.202
     8   6 C        3.755    -0.145    23.356     6.891
     9   7 N        2.828     0.016    20.969     6.801
    10   6 C        3.093     0.040    26.996     8.516
    11   6 C        3.090     0.040    26.998     8.517
    12   6 C        2.909    -0.034    28.840     8.806
    13   6 C        2.926    -0.019    28.485     8.753
    14   6 C        2.925    -0.020    28.517     8.757
    15   6 C        2.910    -0.034    28.847     8.807
    16   6 C        3.738    -0.044    21.441     6.607
    17   6 C        2.819     0.224    23.297     7.909
    18   8 O        0.858    -0.341    20.538     6.076
    19   6 C        2.970    -0.017    28.440     8.748
    20   6 C        2.919    -0.030    28.760     8.794
    21   6 C        2.917    -0.022    28.563     8.764
    22   6 C        2.920    -0.009    28.244     8.715
    23   6 C        2.916    -0.018    28.457     8.748
    24   6 C        2.927    -0.010    28.275     8.720
    25   1 H        0.925     0.091     1.873     2.140
    26   1 H        0.925     0.088     1.899     2.155
    27   1 H        0.924     0.089     1.892     2.151
    28   1 H        0.925     0.108     1.713     2.046
    29   1 H        0.924     0.105     1.743     2.065
    30   1 H        0.925     0.093     1.853     2.129
    31   1 H        0.924     0.115     1.652     2.010
    32   1 H        0.925     0.121     1.603     1.980
    33   1 H        0.926     0.066     2.135     2.285
    34   1 H        0.926     0.078     1.999     2.211
    35   1 H        0.926     0.078     2.003     2.213
    36   1 H        0.926     0.066     2.126     2.280
    37   1 H        0.924     0.099     1.794     2.094
    38   1 H        0.925     0.092     1.862     2.134
    39   1 H        0.926     0.035     2.510     2.478
    40   1 H        0.926     0.053     2.277     2.360
    41   1 H        0.926     0.064     2.155     2.296
    42   1 H        0.926     0.065     2.145     2.290
    43   1 H        0.926     0.075     2.033     2.230

Wiberg/Mayer (AO) data.
largest (>0.10) Wiberg bond orders for each atom

     #   Z sym  total        # sym  WBO       # sym  WBO       # sym  WBO
 ---------------------------------------------------------------------------
     1   6 C    3.891 --    27 H    0.976    25 H    0.974    26 H    0.972
                             2 O    0.930
     2   8 O    2.362 --     3 C    1.201     1 C    0.930     4 O    0.193
     3   6 C    3.933 --     4 O    1.742     2 O    1.201     5 C    0.920
     4   8 O    2.057 --     3 C    1.742     2 O    0.193
     5   6 C    3.956 --     6 N    0.997    28 H    0.954    29 H    0.943
                             3 C    0.920
     6   7 N    3.651 --     7 C    1.312    11 C    1.111     5 C    0.997
     7   6 C    3.950 --     9 N    1.332     6 N    1.312     8 C    1.054
     8   6 C    3.967 --     7 C    1.054    32 H    0.957    30 H    0.949
                            31 H    0.936
     9   7 N    3.659 --     7 C    1.332    10 C    1.111    16 C    0.977
    10   6 C    3.952 --    15 C    1.345    11 C    1.280     9 N    1.111
    11   6 C    3.952 --    12 C    1.348    10 C    1.280     6 N    1.111
    12   6 C    3.986 --    13 C    1.485    11 C    1.348    33 H    0.963
                            15 C    0.117
    13   6 C    3.983 --    12 C    1.485    14 C    1.387    34 H    0.966
    14   6 C    3.983 --    15 C    1.485    13 C    1.387    35 H    0.966
    15   6 C    3.984 --    14 C    1.485    10 C    1.345    36 H    0.960
                            12 C    0.117
    16   6 C    3.941 --     9 N    0.977    38 H    0.960    37 H    0.955
                            17 C    0.924
    17   6 C    3.928 --    18 O    1.823    19 C    1.074    16 C    0.924
    18   8 O    2.098 --    17 C    1.823
    19   6 C    3.986 --    20 C    1.360    24 C    1.352    17 C    1.074
    20   6 C    3.991 --    21 C    1.468    19 C    1.360    39 H    0.963
                            23 C    0.103
    21   6 C    3.991 --    20 C    1.468    22 C    1.421    40 H    0.969
                            24 C    0.100
    22   6 C    3.986 --    23 C    1.427    21 C    1.421    41 H    0.969
    23   6 C    3.989 --    24 C    1.464    22 C    1.427    42 H    0.967
                            20 C    0.103
    24   6 C    3.984 --    23 C    1.464    19 C    1.352    43 H    0.964
                            21 C    0.100
    25   1 H    0.991 --     1 C    0.974
    26   1 H    0.992 --     1 C    0.972
    27   1 H    0.992 --     1 C    0.976
    28   1 H    0.988 --     5 C    0.954
    29   1 H    0.988 --     5 C    0.943
    30   1 H    0.989 --     8 C    0.949
    31   1 H    0.983 --     8 C    0.936
    32   1 H    0.985 --     8 C    0.957
    33   1 H    0.995 --    12 C    0.963
    34   1 H    0.993 --    13 C    0.966
    35   1 H    0.994 --    14 C    0.966
    36   1 H    0.995 --    15 C    0.960
    37   1 H    0.989 --    16 C    0.955
    38   1 H    0.991 --    16 C    0.960
    39   1 H    0.999 --    20 C    0.963
    40   1 H    0.997 --    21 C    0.969
    41   1 H    0.995 --    22 C    0.969
    42   1 H    0.995 --    23 C    0.967
    43   1 H    0.994 --    24 C    0.964
 ---------------------------------------------------------------------------

molecular dipole:
                 x           y           z       tot (Debye)
 q only:        0.023      -0.735       8.974
   full:       -0.057      -0.669       8.842      22.539

           -------------------------------------------------
          | TOTAL ENERGY              -68.064980528748 Eh   |
          | GRADIENT NORM               0.000575823802 Eh/α |
          | HOMO-LUMO GAP               3.039839952371 eV   |
           -------------------------------------------------

 * finished run on 2024/12/20 at 06:47:03.011
