   * xtb version 6.7.1 (edcfbbe) compiled by 'conda@3ef47c1a292c' on 2024-11-25

   ID    Z sym.   atoms
    1    6 C      1, 2, 4, 6-18
    2    7 N      3
    3    8 O      5
    4    1 H      19-52

          program call               : xtb C0515.xyz --opt --namespace C0515 --charge +1
          :  Hamiltonian                  GFN2-xTB          :
 * total energy  :   -58.2158842 Eh     change       -0.2855600E-09 Eh
 * total energy  :   -58.2228197 Eh     change       -0.6935513E-02 Eh
 * total energy  :   -58.2245135 Eh     change       -0.1693802E-02 Eh
 * total energy  :   -58.2247654 Eh     change       -0.2518861E-03 Eh
 * total energy  :   -58.2250005 Eh     change       -0.2350739E-03 Eh
 * total energy  :   -58.2251101 Eh     change       -0.1095572E-03 Eh
 * total energy  :   -58.2252156 Eh     change       -0.1055130E-03 Eh
 * total energy  :   -58.2252802 Eh     change       -0.6463279E-04 Eh
 * total energy  :   -58.2253192 Eh     change       -0.3894683E-04 Eh
 * total energy  :   -58.2253774 Eh     change       -0.5825904E-04 Eh
 * total energy  :   -58.2262510 Eh     change       -0.3078599E-04 Eh
 * total energy  :   -58.2262604 Eh     change       -0.9370303E-05 Eh
 * total energy  :   -58.2262743 Eh     change       -0.1398511E-04 Eh
 * total energy  :   -58.2262872 Eh     change       -0.1291051E-04 Eh
 * total energy  :   -58.2262985 Eh     change       -0.1129914E-04 Eh
 * total energy  :   -58.2263077 Eh     change       -0.9160008E-05 Eh
 * total energy  :   -58.2263072 Eh     change        0.4798565E-06 Eh
 * total energy  :   -58.2263126 Eh     change       -0.5357301E-05 Eh
 * total energy  :   -58.2263166 Eh     change       -0.4050026E-05 Eh
   *** GEOMETRY OPTIMIZATION CONVERGED AFTER 36 ITERATIONS ***

 final structure:
================
52
 xtb: 6.7.1 (edcfbbe)
C           -4.74642079090310        3.79900426959313        0.01018922422791
C           -3.32264686802142        4.14288888173818        0.41668660397233
N           -2.92112076549351        3.71643376572998        1.79245762145278
C           -2.97119927965421        2.19934046857419        1.87422026037011
O           -2.18606878683457        1.66416738521884        0.89052917186695
C           -1.13883722889494        0.74364821633645        1.28681489407920
C           -1.72160468448226       -0.59585632518589        1.73604274648078
C           -2.27392312740819       -1.45795192532768        0.59815059799145
C           -3.56671456611180       -0.89760509148681        0.00901555521805
C           -1.18136618766163       -1.64105988294682       -0.45431895391427
C           -0.65249609749066       -0.31036956366777       -0.98192713149003
C           -0.17169901705651        0.67852590806431        0.09048429437145
C            1.30812377571440        0.53626493245313        0.52135223946059
C            1.75232621203254       -0.87028928353479        0.90824822072577
C            2.22777489455631        1.06485431361070       -0.58078389971213
C           -1.50666737089208        4.13085271467549        2.05059833410027
C           -1.24360215523779        5.62709260849739        2.08415689175261
C           -3.81930416201387        4.27880874569144        2.81255496206339
H           -4.91283516531478        2.72745673559673       -0.04105103161241
H           -4.90540657609339        4.19655317891117       -0.98924478923438
H           -5.48805795386821        4.25198933665112        0.66137696112838
H           -2.62942106881750        3.65720355556492       -0.27221928523147
H           -3.18991256389107        5.22282153638867        0.35924937273904
H           -2.64512599730893        1.91267114671180        2.88267489619570
H           -4.02192341589301        1.91242860036452        1.74305466329257
H           -0.61337846498436        1.19350206521509        2.14508908413984
H           -2.50676380305277       -0.41473048506699        2.47605832036118
H           -0.92602776249530       -1.14667474017395        2.23836585053122
H           -2.50736901893894       -2.44142748038159        1.02093474121625
H           -4.32990561248378       -0.81781127092803        0.78155930950035
H           -3.40932775256237        0.08240567396266       -0.43052678441623
H           -3.93927464075530       -1.56563966502844       -0.76311669807603
H           -0.37278395651377       -2.22385915501075       -0.01616387173893
H           -1.57895221821637       -2.21273000110450       -1.29444563553339
H           -1.44773902285262        0.17297118263609       -1.55152125386577
H            0.16474734039290       -0.50218802051848       -1.67653428459423
H           -0.23258296325148        1.67584146614984       -0.36585837065317
H            1.44587967591680        1.18270758667238        1.39850896540510
H            1.72944670918748       -1.53403102802676        0.04921140548119
H            2.77699716640334       -0.83378751709263        1.27159797508601
H            1.13455250661599       -1.28667461956737        1.69845305974742
H            1.97920744550936        2.09081449735783       -0.84501065864428
H            3.26083693013242        1.04232800147768       -0.24390780458959
H            2.15476728309988        0.45357761537176       -1.47618920729810
H           -1.22098539622206        3.70383112227800        3.01517700802136
H           -0.89447333029492        3.66677118532978        1.27450993751341
H           -1.80783744457621        6.12751368015335        2.86557448448808
H           -0.18815440249121        5.76933000108445        2.30347901668718
H           -1.44103046968610        6.11045166528749        1.13232184281021
H           -3.95061769907361        5.34573883324866        2.64744555379951
H           -4.79269620089992        3.79568106098184        2.76743546901038
H           -3.40123595087261        4.12052411747022        3.80528012531329

          :  Hamiltonian                  GFN2-xTB          :
         :: total energy             -58.226316634169 Eh    ::
         :: gradient norm              0.000465530887 Eh/a0 ::
         :: HOMO-LUMO gap              7.193992593979 eV    ::
         :: SCC energy               -59.009324209043 Eh    ::
         :: -> dispersion             -0.046594612093 Eh    ::
         :: repulsion energy           0.783007574874 Eh    ::

    * Orbital Energies and Occupations

         #    Occupation            Energy/Eh            Energy/eV
      -------------------------------------------------------------
         1        2.0000           -0.8640403             -23.5117
       ...           ...                  ...                  ...
        42        2.0000           -0.5665323             -15.4161
        43        2.0000           -0.5606858             -15.2570
        44        2.0000           -0.5512260             -14.9996
        45        2.0000           -0.5501076             -14.9692
        46        2.0000           -0.5427699             -14.7695
        47        2.0000           -0.5398824             -14.6909
        48        2.0000           -0.5343305             -14.5399
        49        2.0000           -0.5263406             -14.3225
        50        2.0000           -0.5214617             -14.1897
        51        2.0000           -0.5191727             -14.1274
        52        2.0000           -0.5058408             -13.7646
        53        2.0000           -0.5033982             -13.6982
        54        2.0000           -0.4996479             -13.5961 (HOMO)
        55                         -0.2352735              -6.4021 (LUMO)
        56                         -0.1817596              -4.9459
        57                         -0.1540125              -4.1909
        58                         -0.1447246              -3.9382
        59                         -0.1201574              -3.2696
        60                         -0.0649628              -1.7677
        61                         -0.0553388              -1.5058
        62                         -0.0453475              -1.2340
        63                         -0.0391592              -1.0656
        64                         -0.0294009              -0.8000
        65                         -0.0253644              -0.6902
       ...                                ...                  ...
       106                          0.2393142               6.5121
      -------------------------------------------------------------
                  HL-Gap            0.2643744 Eh            7.1940 eV

     #   Z          covCN         q      C6AA      α(0)
     1   6 C        3.751    -0.129    23.050     6.847
     2   6 C        3.754    -0.031    21.180     6.562
     3   7 N        3.617     0.094    19.610     6.577
     4   6 C        3.645     0.123    18.897     6.248
     5   8 O        1.699    -0.302    19.024     5.889
     6   6 C        3.735     0.109    18.870     6.199
     7   6 C        3.806    -0.068    21.795     6.646
     8   6 C        3.851    -0.013    20.766     6.481
     9   6 C        3.753    -0.109    22.652     6.787
    10   6 C        3.807    -0.069    21.811     6.648
    11   6 C        3.803    -0.061    21.679     6.629
    12   6 C        3.850    -0.028    21.039     6.524
    13   6 C        3.848    -0.014    20.784     6.485
    14   6 C        3.755    -0.111    22.675     6.790
    15   6 C        3.757    -0.112    22.693     6.792
    16   6 C        3.758    -0.026    21.092     6.548
    17   6 C        3.751    -0.130    23.054     6.848
    18   6 C        3.709    -0.092    22.394     6.763
    19   1 H        0.925     0.069     2.098     2.265
    20   1 H        0.925     0.085     1.924     2.169
    21   1 H        0.925     0.064     2.150     2.293
    22   1 H        0.924     0.100     1.788     2.091
    23   1 H        0.925     0.086     1.922     2.168
    24   1 H        0.923     0.060     2.198     2.319
    25   1 H        0.924     0.079     1.991     2.207
    26   1 H        0.923     0.012     2.859     2.644
    27   1 H        0.924     0.027     2.631     2.537
    28   1 H        0.924     0.051     2.304     2.374
    29   1 H        0.924     0.039     2.463     2.454
    30   1 H        0.925     0.026     2.650     2.546
    31   1 H        0.925     0.043     2.409     2.427
    32   1 H        0.925     0.046     2.374     2.410
    33   1 H        0.925     0.047     2.357     2.401
    34   1 H        0.924     0.045     2.380     2.413
    35   1 H        0.924     0.042     2.426     2.436
    36   1 H        0.925     0.050     2.319     2.382
    37   1 H        0.923     0.039     2.463     2.454
    38   1 H        0.923     0.020     2.729     2.584
    39   1 H        0.925     0.050     2.314     2.379
    40   1 H        0.925     0.047     2.358     2.401
    41   1 H        0.925     0.034     2.529     2.487
    42   1 H        0.925     0.031     2.576     2.510
    43   1 H        0.925     0.049     2.330     2.387
    44   1 H        0.925     0.046     2.368     2.407
    45   1 H        0.924     0.075     2.027     2.226
    46   1 H        0.924     0.094     1.845     2.124
    47   1 H        0.925     0.068     2.113     2.273
    48   1 H        0.925     0.086     1.920     2.167
    49   1 H        0.925     0.066     2.130     2.282
    50   1 H        0.925     0.104     1.744     2.065
    51   1 H        0.925     0.096     1.826     2.113
    52   1 H        0.925     0.092     1.857     2.131

Wiberg/Mayer (AO) data.
largest (>0.10) Wiberg bond orders for each atom

     #   Z sym  total        # sym  WBO       # sym  WBO       # sym  WBO
 ---------------------------------------------------------------------------
     1   6 C    3.982 --     2 C    1.023    21 H    0.981    19 H    0.979
                            20 H    0.973
     2   6 C    3.927 --     1 C    1.023    22 H    0.964    23 H    0.963
                             3 N    0.923
     3   7 N    3.793 --    18 C    0.965    16 C    0.926     2 C    0.923
                             4 C    0.891
     4   6 C    3.934 --     5 O    1.063    24 H    0.957    25 H    0.950
                             3 N    0.891
     5   8 O    2.117 --     4 C    1.063     6 C    0.905
     6   6 C    3.913 --     7 C    0.996    12 C    0.978    26 H    0.959
                             5 O    0.905
     7   6 C    3.994 --     6 C    0.996     8 C    0.995    27 H    0.971
                            28 H    0.965
     8   6 C    3.994 --     9 C    1.010    10 C    0.997     7 C    0.995
                            29 H    0.967
     9   6 C    3.996 --     8 C    1.010    30 H    0.987    32 H    0.985
                            31 H    0.982
    10   6 C    3.996 --    11 C    1.010     8 C    0.997    34 H    0.974
                            33 H    0.972
    11   6 C    3.995 --    10 C    1.010    12 C    0.995    35 H    0.975
                            36 H    0.970
    12   6 C    3.987 --    11 C    0.995    13 C    0.978     6 C    0.978
                            37 H    0.961
    13   6 C    3.994 --    14 C    1.011    15 C    1.008    12 C    0.978
                            38 H    0.966
    14   6 C    3.994 --    13 C    1.011    40 H    0.984    39 H    0.982
                            41 H    0.980
    15   6 C    3.994 --    13 C    1.008    42 H    0.986    43 H    0.985
                            44 H    0.983
    16   6 C    3.932 --    17 C    1.023    45 H    0.968    46 H    0.964
                             3 N    0.926
    17   6 C    3.982 --    16 C    1.023    47 H    0.981    49 H    0.979
                            48 H    0.972
    18   6 C    3.931 --    52 H    0.976    51 H    0.972    50 H    0.972
                             3 N    0.965
    19   1 H    0.995 --     1 C    0.979
    20   1 H    0.992 --     1 C    0.973
    21   1 H    0.996 --     1 C    0.981
    22   1 H    0.990 --     2 C    0.964
    23   1 H    0.993 --     2 C    0.963
    24   1 H    0.996 --     4 C    0.957
    25   1 H    0.993 --     4 C    0.950
    26   1 H    1.000 --     6 C    0.959
    27   1 H    0.999 --     7 C    0.971
    28   1 H    0.997 --     7 C    0.965
    29   1 H    0.998 --     8 C    0.967
    30   1 H    0.999 --     9 C    0.987
    31   1 H    0.998 --     9 C    0.982
    32   1 H    0.998 --     9 C    0.985
    33   1 H    0.998 --    10 C    0.972
    34   1 H    0.998 --    10 C    0.974
    35   1 H    0.998 --    11 C    0.975
    36   1 H    0.997 --    11 C    0.970
    37   1 H    0.998 --    12 C    0.961
    38   1 H    1.000 --    13 C    0.966
    39   1 H    0.997 --    14 C    0.982
    40   1 H    0.998 --    14 C    0.984
    41   1 H    0.999 --    14 C    0.980
    42   1 H    0.999 --    15 C    0.986
    43   1 H    0.997 --    15 C    0.985
    44   1 H    0.998 --    15 C    0.983
    45   1 H    0.994 --    16 C    0.968
    46   1 H    0.991 --    16 C    0.964
    47   1 H    0.995 --    17 C    0.981
    48   1 H    0.992 --    17 C    0.972
    49   1 H    0.996 --    17 C    0.979
    50   1 H    0.989 --    18 C    0.972
    51   1 H    0.991 --    18 C    0.972
    52   1 H    0.991 --    18 C    0.976
 ---------------------------------------------------------------------------

molecular dipole:
                 x           y           z       tot (Debye)
 q only:       -4.822       6.285       3.028
   full:       -4.871       6.334       3.374      22.045

           -------------------------------------------------
          | TOTAL ENERGY              -58.226316634169 Eh   |
          | GRADIENT NORM               0.000465530887 Eh/α |
          | HOMO-LUMO GAP               7.193992593979 eV   |
           -------------------------------------------------

 * finished run on 2024/12/20 at 06:47:10.862
