   * xtb version 6.7.1 (edcfbbe) compiled by 'conda@3ef47c1a292c' on 2024-11-25

   ID    Z sym.   atoms
    1    6 C      1-7, 9-14
    2    7 N      8
    3    1 H      15-42

          program call               : xtb C0510.xyz --opt --namespace C0510 --charge +1
          :  Hamiltonian                  GFN2-xTB          :
 * total energy  :   -44.6638111 Eh     change       -0.6134826E-10 Eh
 * total energy  :   -44.6701020 Eh     change       -0.6290891E-02 Eh
 * total energy  :   -44.6716314 Eh     change       -0.1529370E-02 Eh
 * total energy  :   -44.6717142 Eh     change       -0.8282973E-04 Eh
 * total energy  :   -44.6717683 Eh     change       -0.5414636E-04 Eh
 * total energy  :   -44.6717866 Eh     change       -0.1825577E-04 Eh
 * total energy  :   -44.6718131 Eh     change       -0.2653492E-04 Eh
 * total energy  :   -44.6718233 Eh     change       -0.1013460E-04 Eh
 * total energy  :   -44.6718333 Eh     change       -0.1002737E-04 Eh
 * total energy  :   -44.6718391 Eh     change       -0.5844076E-05 Eh
 * total energy  :   -44.6718450 Eh     change       -0.5820738E-05 Eh
 * total energy  :   -44.6718524 Eh     change       -0.7458402E-05 Eh
 * total energy  :   -44.6718606 Eh     change       -0.8164868E-05 Eh
 * total energy  :   -44.6718689 Eh     change       -0.8315183E-05 Eh
 * total energy  :   -44.6718772 Eh     change       -0.8332574E-05 Eh
 * total energy  :   -44.6718848 Eh     change       -0.7575871E-05 Eh
 * total energy  :   -44.6718904 Eh     change       -0.5585617E-05 Eh
 * total energy  :   -44.6718941 Eh     change       -0.3704612E-05 Eh
   *** GEOMETRY OPTIMIZATION CONVERGED AFTER 18 ITERATIONS ***

 final structure:
================
42
 xtb: 6.7.1 (edcfbbe)
C            0.97925830421542        0.55289364726657        0.79932438791387
C            0.81355056272859        1.78770088053522       -0.07829508923451
C            1.22467169836409        1.55416829274368       -1.53329442215985
C            0.43169607228224        0.46573749221351       -2.26228549964004
C           -1.08059196949171        0.69774121217192       -2.31091394218882
C           -1.51583432304180        1.99216309675377       -3.00404493249805
C           -1.07927614418451        2.23125039935445       -4.45280415607029
N           -1.64864876012790        1.37698842193755       -5.55429730967125
C           -1.46956643319725        2.13665011118872       -6.80803702058849
C           -0.90715605597694        0.08647683954328       -5.64662758442348
C           -1.48181281874442       -0.88279319062643       -6.67574232406390
C           -2.96178375203847       -1.13982291639400       -6.41278733111141
C           -3.71265721277814        0.18685888027442       -6.36776863074880
C           -3.09166142210938        1.10096722587948       -5.31752861642674
H            0.29149151042989       -0.23802728465253        0.51017131753846
H            0.78102661067364        0.80490289557939        1.83760513994242
H            1.99477010507658        0.17063539652353        0.73012338073130
H           -0.21980135085245        2.13698550014820       -0.02734405114515
H            1.44152984118635        2.58710555954118        0.31951169517867
H            1.14689329489766        2.49901687048265       -2.07728809517157
H            2.27644800948451        1.26149135251900       -1.55036538416890
H            0.83676431866183        0.36795258946039       -3.27297882151173
H            0.60599667617225       -0.48694167652491       -1.76147712533770
H           -1.56518434551615       -0.17233819407828       -2.76195975547155
H           -1.45195984055564        0.74930727362935       -1.28703868595328
H           -2.59664080163552        2.10431877008418       -2.90893951813694
H           -1.07626517925870        2.82242407266434       -2.44736663702311
H           -1.35505956839876        3.26114703071579       -4.68994914992440
H            0.00715063250027        2.15182226645373       -4.51727107752882
H           -2.08322460860012        3.03561046069557       -6.79303835771865
H           -0.42531454179792        2.42427039677288       -6.91839454609267
H           -1.75566789390956        1.53856453051569       -7.66740634433736
H           -0.94259350274622       -0.38513827855029       -4.66595849515673
H            0.13406260331363        0.31008195814915       -5.88744869484347
H           -0.92116203424502       -1.81464708926594       -6.59608546526813
H           -1.33898460592004       -0.51454354426178       -7.69199625469949
H           -3.37306725246541       -1.77756093926800       -7.19328386143116
H           -3.08222365154303       -1.66168937620939       -5.46162435031356
H           -3.71994224455332        0.65539818630302       -7.35179025881354
H           -4.75235976272748        0.01793824699879       -6.08643236675740
H           -3.61905718620242        2.05591203274110       -5.27533159992301
H           -3.17876297736872        0.60733059999353       -4.34935016575057

          :  Hamiltonian                  GFN2-xTB          :
         :: total energy             -44.671894090902 Eh    ::
         :: gradient norm              0.000184931464 Eh/a0 ::
         :: HOMO-LUMO gap              7.584765611377 eV    ::
         :: SCC energy               -45.312591245142 Eh    ::
         :: -> dispersion             -0.034149372498 Eh    ::
         :: repulsion energy           0.640697154239 Eh    ::

    * Orbital Energies and Occupations

         #    Occupation            Energy/Eh            Energy/eV
      -------------------------------------------------------------
         1        2.0000           -0.8548853             -23.2626
       ...           ...                  ...                  ...
        30        2.0000           -0.5956157             -16.2075
        31        2.0000           -0.5912605             -16.0890
        32        2.0000           -0.5819972             -15.8369
        33        2.0000           -0.5809637             -15.8088
        34        2.0000           -0.5763560             -15.6834
        35        2.0000           -0.5739447             -15.6178
        36        2.0000           -0.5685577             -15.4712
        37        2.0000           -0.5549913             -15.1021
        38        2.0000           -0.5487250             -14.9316
        39        2.0000           -0.5418902             -14.7456
        40        2.0000           -0.5205113             -14.1638
        41        2.0000           -0.5148244             -14.0091
        42        2.0000           -0.5096806             -13.8691 (HOMO)
        43                         -0.2309456              -6.2843 (LUMO)
        44                         -0.1586200              -4.3163
        45                         -0.1542156              -4.1964
        46                         -0.1438159              -3.9134
        47                         -0.0774979              -2.1088
        48                         -0.0722515              -1.9661
        49                         -0.0642086              -1.7472
        50                         -0.0496419              -1.3508
        51                         -0.0334793              -0.9110
        52                         -0.0318269              -0.8661
        53                         -0.0242165              -0.6590
       ...                                ...                  ...
        84                          0.2157159               5.8699
      -------------------------------------------------------------
                  HL-Gap            0.2787350 Eh            7.5848 eV

     #   Z          covCN         q      C6AA      α(0)
     1   6 C        3.752    -0.107    22.608     6.781
     2   6 C        3.799    -0.056    21.584     6.615
     3   6 C        3.800    -0.062    21.700     6.632
     4   6 C        3.800    -0.064    21.738     6.638
     5   6 C        3.799    -0.065    21.757     6.641
     6   6 C        3.799    -0.075    21.935     6.668
     7   6 C        3.760    -0.041    21.348     6.587
     8   7 N        3.620     0.119    19.197     6.507
     9   6 C        3.722    -0.091    22.348     6.751
    10   6 C        3.762    -0.034    21.228     6.568
    11   6 C        3.804    -0.072    21.880     6.659
    12   6 C        3.807    -0.071    21.853     6.655
    13   6 C        3.804    -0.073    21.889     6.661
    14   6 C        3.761    -0.033    21.201     6.564
    15   1 H        0.925     0.034     2.536     2.490
    16   1 H        0.925     0.043     2.406     2.426
    17   1 H        0.925     0.041     2.430     2.438
    18   1 H        0.924     0.029     2.606     2.525
    19   1 H        0.924     0.040     2.452     2.449
    20   1 H        0.924     0.023     2.686     2.563
    21   1 H        0.924     0.044     2.399     2.422
    22   1 H        0.924     0.019     2.751     2.594
    23   1 H        0.924     0.052     2.290     2.367
    24   1 H        0.924     0.024     2.678     2.559
    25   1 H        0.924     0.064     2.152     2.294
    26   1 H        0.924     0.052     2.300     2.371
    27   1 H        0.924     0.080     1.979     2.200
    28   1 H        0.924     0.079     1.990     2.206
    29   1 H        0.924     0.085     1.930     2.173
    30   1 H        0.925     0.090     1.877     2.143
    31   1 H        0.925     0.091     1.873     2.140
    32   1 H        0.925     0.103     1.756     2.072
    33   1 H        0.925     0.095     1.828     2.114
    34   1 H        0.924     0.076     2.026     2.226
    35   1 H        0.924     0.076     2.023     2.224
    36   1 H        0.924     0.058     2.222     2.331
    37   1 H        0.925     0.069     2.098     2.265
    38   1 H        0.924     0.055     2.258     2.350
    39   1 H        0.925     0.060     2.200     2.320
    40   1 H        0.924     0.076     2.024     2.225
    41   1 H        0.924     0.077     2.005     2.214
    42   1 H        0.924     0.092     1.863     2.134

Wiberg/Mayer (AO) data.
largest (>0.10) Wiberg bond orders for each atom

     #   Z sym  total        # sym  WBO       # sym  WBO       # sym  WBO
 ---------------------------------------------------------------------------
     1   6 C    3.996 --     2 C    1.021    17 H    0.987    16 H    0.986
                            15 H    0.986
     2   6 C    3.997 --     1 C    1.021     3 C    1.008    19 H    0.977
                            18 H    0.976
     3   6 C    3.996 --     2 C    1.008     4 C    1.007    20 H    0.976
                            21 H    0.976
     4   6 C    3.995 --     5 C    1.007     3 C    1.007    22 H    0.974
                            23 H    0.973
     5   6 C    3.992 --     4 C    1.007     6 C    1.006    25 H    0.968
                            24 H    0.967
     6   6 C    3.983 --     7 C    1.006     5 C    1.006    26 H    0.971
                            27 H    0.959
     7   6 C    3.930 --     6 C    1.006    28 H    0.968    29 H    0.965
                             8 N    0.920
     8   7 N    3.805 --     9 C    0.962    14 C    0.934    10 C    0.932
                             7 C    0.920
     9   6 C    3.933 --    31 H    0.976    30 H    0.976    32 H    0.966
                             8 N    0.962
    10   6 C    3.934 --    11 C    1.008    34 H    0.969    33 H    0.957
                             8 N    0.932
    11   6 C    3.988 --    12 C    1.009    10 C    1.008    36 H    0.970
                            35 H    0.966
    12   6 C    3.992 --    13 C    1.009    11 C    1.009    38 H    0.975
                            37 H    0.973
    13   6 C    3.988 --    12 C    1.009    14 C    1.007    39 H    0.971
                            40 H    0.966
    14   6 C    3.935 --    13 C    1.007    41 H    0.969    42 H    0.962
                             8 N    0.934
    15   1 H    0.999 --     1 C    0.986
    16   1 H    0.998 --     1 C    0.986
    17   1 H    0.998 --     1 C    0.987
    18   1 H    0.999 --     2 C    0.976
    19   1 H    0.998 --     2 C    0.977
    20   1 H    0.999 --     3 C    0.976
    21   1 H    0.998 --     3 C    0.976
    22   1 H    1.000 --     4 C    0.974
    23   1 H    0.997 --     4 C    0.973
    24   1 H    0.999 --     5 C    0.967
    25   1 H    0.996 --     5 C    0.968
    26   1 H    0.997 --     6 C    0.971
    27   1 H    0.993 --     6 C    0.959
    28   1 H    0.994 --     7 C    0.968
    29   1 H    0.992 --     7 C    0.965
    30   1 H    0.992 --     9 C    0.976
    31   1 H    0.992 --     9 C    0.976
    32   1 H    0.989 --     9 C    0.966
    33   1 H    0.991 --    10 C    0.957
    34   1 H    0.994 --    10 C    0.969
    35   1 H    0.994 --    11 C    0.966
    36   1 H    0.996 --    11 C    0.970
    37   1 H    0.995 --    12 C    0.973
    38   1 H    0.997 --    12 C    0.975
    39   1 H    0.996 --    13 C    0.971
    40   1 H    0.994 --    13 C    0.966
    41   1 H    0.994 --    14 C    0.969
    42   1 H    0.992 --    14 C    0.962
 ---------------------------------------------------------------------------

molecular dipole:
                 x           y           z       tot (Debye)
 q only:       -3.151       2.106     -10.034
   full:       -3.105       2.253     -10.072      27.394

           -------------------------------------------------
          | TOTAL ENERGY              -44.671894090902 Eh   |
          | GRADIENT NORM               0.000184931464 Eh/α |
          | HOMO-LUMO GAP               7.584765611377 eV   |
           -------------------------------------------------

 * finished run on 2024/12/20 at 06:46:56.483
