   * xtb version 6.7.1 (edcfbbe) compiled by 'conda@3ef47c1a292c' on 2024-11-25

   ID    Z sym.   atoms
    1    6 C      1-4, 6, 8-13
    2    7 N      5
    3   16 S      7
    4    1 H      14-27

          program call               : xtb C0517.xyz --opt --namespace C0517 --charge +1
          :  Hamiltonian                  GFN2-xTB          :
 * total energy  :   -36.4668327 Eh     change       -0.2534435E-08 Eh
 * total energy  :   -36.4706883 Eh     change       -0.3855597E-02 Eh
 * total energy  :   -36.4712382 Eh     change       -0.5498841E-03 Eh
 * total energy  :   -36.4713549 Eh     change       -0.1167122E-03 Eh
 * total energy  :   -36.4714369 Eh     change       -0.8205118E-04 Eh
 * total energy  :   -36.4714717 Eh     change       -0.3476730E-04 Eh
 * total energy  :   -36.4715027 Eh     change       -0.3101678E-04 Eh
 * total energy  :   -36.4715384 Eh     change       -0.3571303E-04 Eh
 * total energy  :   -36.4715844 Eh     change       -0.4594018E-04 Eh
 * total energy  :   -36.4716074 Eh     change       -0.2306358E-04 Eh
 * total energy  :   -36.4716166 Eh     change       -0.9196289E-05 Eh
 * total energy  :   -36.4716189 Eh     change       -0.2232687E-05 Eh
   *** GEOMETRY OPTIMIZATION CONVERGED AFTER 12 ITERATIONS ***

 final structure:
================
27
 xtb: 6.7.1 (edcfbbe)
C            1.04811513571996       -0.01924852411951       -0.08730530944944
C            0.37870980572615       -0.38582743846821        1.24410546902761
C            0.88563793905587        0.41807410380697        2.44668141638220
C            0.11058237359907        1.70794277685540        2.69935224172277
N            0.74832840429197        1.33347567626223       -0.50572765564365
C            1.58556164159337        2.33960258220410       -0.36633634691925
S            0.99615523443228        3.84515591836441       -0.85663908226873
C           -0.51558806757083        3.09335472127234       -1.30023064034799
C           -0.46644638380198        1.71292567262469       -1.03989924231973
C           -1.56609345975438        0.90867536838040       -1.33765596097887
C           -2.68466744810093        1.50664166921869       -1.87764517650611
C           -2.72829093872132        2.88032429531984       -2.12447786565114
C           -1.64653043293471        3.68894274977553       -1.84168516863082
H            0.70893658169087       -0.69981194338611       -0.87181171640020
H            2.13109481681863       -0.11472030588081        0.01031888133546
H           -0.70297402389128       -0.27160913150437        1.16360394003982
H            0.58882973289776       -1.44362479879054        1.40542782035243
H            0.78712077611441       -0.20552013919392        3.33547574739986
H            1.94890881060976        0.63620875678022        2.32746243055345
H           -0.94659448665623        1.49330644212275        2.83591005954505
H            0.47470700576345        2.18166207074804        3.60674987600147
H            0.21196846742636        2.42539967416746        1.88826075790334
H            2.57486551066748        2.21543099425593        0.03720466453841
H           -1.54460500078475       -0.15336902106765       -1.15679113750514
H           -3.54405472417721        0.90060627824979       -2.11612741010939
H           -3.62012786659080        3.31510789507476       -2.54644842539026
H           -1.67060940342341        4.74886365692792       -2.03456216668031

          :  Hamiltonian                  GFN2-xTB          :
         :: total energy             -36.471618876250 Eh    ::
         :: gradient norm              0.000249554951 Eh/a0 ::
         :: HOMO-LUMO gap              2.709582259507 eV    ::
         :: SCC energy               -37.047909496819 Eh    ::
         :: -> dispersion             -0.026557798136 Eh    ::
         :: repulsion energy           0.576290620569 Eh    ::

    * Orbital Energies and Occupations

         #    Occupation            Energy/Eh            Energy/eV
      -------------------------------------------------------------
         1        2.0000           -0.9186298             -24.9972
       ...           ...                  ...                  ...
        22        2.0000           -0.6377547             -17.3542
        23        2.0000           -0.6321722             -17.2023
        24        2.0000           -0.6246133             -16.9966
        25        2.0000           -0.6182852             -16.8244
        26        2.0000           -0.6022940             -16.3893
        27        2.0000           -0.5978709             -16.2689
        28        2.0000           -0.5925172             -16.1232
        29        2.0000           -0.5860848             -15.9482
        30        2.0000           -0.5725427             -15.5797
        31        2.0000           -0.5694743             -15.4962
        32        2.0000           -0.5620553             -15.2943
        33        2.0000           -0.5599915             -15.2381
        34        2.0000           -0.5521986             -15.0261 (HOMO)
        35                         -0.4526233             -12.3165 (LUMO)
        36                         -0.3940929             -10.7238
        37                         -0.3783085             -10.2943
        38                         -0.3777496             -10.2791
        39                         -0.2916241              -7.9355
        40                         -0.2659247              -7.2362
        41                         -0.1942684              -5.2863
        42                         -0.1458582              -3.9690
        43                         -0.1357271              -3.6933
        44                         -0.1332251              -3.6252
        45                         -0.0725217              -1.9734
       ...                                ...                  ...
        71                          0.5161724              14.0458
      -------------------------------------------------------------
                  HL-Gap            0.0995753 Eh            2.7096 eV

     #   Z          covCN         q      C6AA      α(0)
     1   6 C        3.746    -0.024    21.074     6.548
     2   6 C        3.800    -0.072    21.876     6.659
     3   6 C        3.799    -0.065    21.750     6.640
     4   6 C        3.751    -0.109    22.645     6.786
     5   7 N        2.875     0.068    20.046     6.650
     6   6 C        2.926     0.027    27.411     8.586
     7  16 S        2.234     0.197   133.259    19.429
     8   6 C        3.005     0.014    27.679     8.630
     9   6 C        3.143     0.047    26.695     8.454
    10   6 C        2.912    -0.030    28.741     8.791
    11   6 C        2.921    -0.013    28.344     8.731
    12   6 C        2.923    -0.011    28.287     8.722
    13   6 C        2.928    -0.022    28.565     8.765
    14   1 H        0.924     0.089     1.885     2.147
    15   1 H        0.924     0.084     1.935     2.176
    16   1 H        0.924     0.063     2.169     2.303
    17   1 H        0.924     0.074     2.040     2.234
    18   1 H        0.925     0.064     2.158     2.297
    19   1 H        0.924     0.040     2.446     2.446
    20   1 H        0.925     0.047     2.354     2.399
    21   1 H        0.925     0.057     2.239     2.340
    22   1 H        0.925     0.014     2.819     2.626
    23   1 H        0.926     0.119     1.619     1.990
    24   1 H        0.926     0.079     1.990     2.206
    25   1 H        0.926     0.087     1.905     2.159
    26   1 H        0.926     0.090     1.881     2.145
    27   1 H        0.926     0.085     1.932     2.174

Wiberg/Mayer (AO) data.
largest (>0.10) Wiberg bond orders for each atom

     #   Z sym  total        # sym  WBO       # sym  WBO       # sym  WBO
 ---------------------------------------------------------------------------
     1   6 C    3.935 --     2 C    0.980    15 H    0.966     5 N    0.961
                            14 H    0.956
     2   6 C    3.982 --     3 C    1.006     1 C    0.980    16 H    0.971
                            17 H    0.967
     3   6 C    3.993 --     4 C    1.021     2 C    1.006    19 H    0.975
                            18 H    0.974
     4   6 C    3.994 --     3 C    1.021    22 H    0.986    20 H    0.986
                            21 H    0.985
     5   7 N    3.722 --     6 C    1.438     9 C    1.118     1 C    0.961
                             7 S    0.128
     6   6 C    3.955 --     5 N    1.438     7 S    1.349    23 H    0.953
     7  16 S    2.757 --     6 C    1.349     8 C    1.102     5 N    0.128
     8   6 C    3.954 --    13 C    1.372     9 C    1.295     7 S    1.102
     9   6 C    3.955 --    10 C    1.330     8 C    1.295     5 N    1.118
    10   6 C    3.986 --    11 C    1.495     9 C    1.330    24 H    0.959
                            13 C    0.113
    11   6 C    3.984 --    10 C    1.495    12 C    1.379    25 H    0.964
    12   6 C    3.984 --    13 C    1.478    11 C    1.379    26 H    0.963
    13   6 C    3.985 --    12 C    1.478     8 C    1.372    27 H    0.963
                            10 C    0.113
    14   1 H    0.992 --     1 C    0.956
    15   1 H    0.992 --     1 C    0.966
    16   1 H    0.996 --     2 C    0.971
    17   1 H    0.993 --     2 C    0.967
    18   1 H    0.996 --     3 C    0.974
    19   1 H    0.998 --     3 C    0.975
    20   1 H    0.998 --     4 C    0.986
    21   1 H    0.997 --     4 C    0.985
    22   1 H    1.000 --     4 C    0.986
    23   1 H    0.985 --     6 C    0.953
    24   1 H    0.994 --    10 C    0.959
    25   1 H    0.991 --    11 C    0.964
    26   1 H    0.992 --    12 C    0.963
    27   1 H    0.992 --    13 C    0.963
 ---------------------------------------------------------------------------

molecular dipole:
                 x           y           z       tot (Debye)
 q only:        0.099       3.339      -1.123
   full:        0.248       3.302      -1.171       8.928

           -------------------------------------------------
          | TOTAL ENERGY              -36.471618876250 Eh   |
          | GRADIENT NORM               0.000249554951 Eh/α |
          | HOMO-LUMO GAP               2.709582259507 eV   |
           -------------------------------------------------

 * finished run on 2024/12/20 at 06:47:16.442
