   * xtb version 6.7.1 (edcfbbe) compiled by 'conda@3ef47c1a292c' on 2024-11-25

   ID    Z sym.   atoms
    1    6 C      1, 2, 4, 5, 7-15
    2    7 N      3, 6
    3    1 H      16-32

          program call               : xtb C0512.xyz --opt --namespace C0512 --charge +1
          :  Hamiltonian                  GFN2-xTB          :
 * total energy  :   -41.9769754 Eh     change       -0.4848033E-09 Eh
 * total energy  :   -41.9814373 Eh     change       -0.4461953E-02 Eh
 * total energy  :   -41.9824007 Eh     change       -0.9633378E-03 Eh
 * total energy  :   -41.9826467 Eh     change       -0.2459858E-03 Eh
 * total energy  :   -41.9828164 Eh     change       -0.1697388E-03 Eh
 * total energy  :   -41.9828851 Eh     change       -0.6871017E-04 Eh
 * total energy  :   -41.9829688 Eh     change       -0.8371676E-04 Eh
 * total energy  :   -41.9830585 Eh     change       -0.8964467E-04 Eh
 * total energy  :   -41.9831522 Eh     change       -0.9374028E-04 Eh
 * total energy  :   -41.9832664 Eh     change       -0.1141979E-03 Eh
 * total energy  :   -41.9835643 Eh     change       -0.1514688E-03 Eh
 * total energy  :   -41.9836755 Eh     change       -0.1111970E-03 Eh
 * total energy  :   -41.9837380 Eh     change       -0.6248405E-04 Eh
 * total energy  :   -41.9837722 Eh     change       -0.3427750E-04 Eh
 * total energy  :   -41.9837885 Eh     change       -0.1623729E-04 Eh
 * total energy  :   -41.9838047 Eh     change       -0.1623670E-04 Eh
 * total energy  :   -41.9838145 Eh     change       -0.9827240E-05 Eh
 * total energy  :   -41.9838262 Eh     change       -0.1160710E-04 Eh
 * total energy  :   -41.9838305 Eh     change       -0.4312129E-05 Eh
   *** GEOMETRY OPTIMIZATION CONVERGED AFTER 20 ITERATIONS ***

 final structure:
================
32
 xtb: 6.7.1 (edcfbbe)
C            1.38722928297643       -0.24686294749830        0.06087981206265
C            0.52006311355896       -0.92767218837319        1.11548342718163
N            0.77101575393048       -0.36819347428218        2.42558777699407
C            0.15648673639039        0.72499888364077        2.95663748751357
C            0.71957067093371        0.95530068960152        4.17431055587938
N            1.67957114234021        0.00801177225040        4.36240648085980
C            1.68641050060788       -0.78667748552403        3.29525252365463
C            2.42049469860042       -0.22183544648688        5.57703916333491
C            1.65202923077701       -1.21526098493244        6.47134748874672
C            1.43323938122373       -2.51337105342823        5.74466789763202
C            0.26965429512652       -2.72317374059877        5.01176192372006
C            0.08867129501963       -3.89790795295613        4.30064472693699
C            1.07173006739616       -4.87249695858005        4.31092818899633
C            2.23343543896498       -4.67168178849422        5.03899609197154
C            2.41493463484087       -3.49704166331381        5.74743782129130
H            1.18592098203870        0.82070066365169        0.02426755565796
H            1.16777064909378       -0.67003836343961       -0.91434899741570
H            2.44311191739695       -0.39767110774063        0.27066459568627
H           -0.53670015027982       -0.78608494735326        0.88150283851069
H            0.73416824881274       -1.99758976280592        1.15212124240846
H           -0.62445884882246        1.25057724570462        2.44620803916053
H            0.50987511389436        1.71490404655979        4.89967075272824
H            2.33628993386765       -1.62744341290796        3.15300850139639
H            3.39706319805014       -0.63620480516687        5.31978009348329
H            2.55658012355705        0.72954327505542        6.09308411890717
H            2.24086193888239       -1.37887825822881        7.37326807509889
H            0.69518012602730       -0.77696707487625        6.75892851048961
H           -0.51492407265321       -1.97809206714968        5.02405489333695
H           -0.82586247055998       -4.05595807552275        3.74900590436799
H            0.92773143653626       -5.79177922942643        3.76528126383786
H            2.99506535794944       -5.43525671804982        5.06197784271828
H            3.31731027352286       -3.34905706932665        6.32232340284576

          :  Hamiltonian                  GFN2-xTB          :
         :: total energy             -41.983830465544 Eh    ::
         :: gradient norm              0.000735459153 Eh/a0 ::
         :: HOMO-LUMO gap              3.070998672076 eV    ::
         :: SCC energy               -42.695603249837 Eh    ::
         :: -> dispersion             -0.030036605324 Eh    ::
         :: repulsion energy           0.711772784293 Eh    ::

    * Orbital Energies and Occupations

         #    Occupation            Energy/Eh            Energy/eV
      -------------------------------------------------------------
         1        2.0000           -0.8909742             -24.2446
       ...           ...                  ...                  ...
        27        2.0000           -0.6063816             -16.5005
        28        2.0000           -0.6014398             -16.3660
        29        2.0000           -0.5998300             -16.3222
        30        2.0000           -0.5914760             -16.0949
        31        2.0000           -0.5907739             -16.0758
        32        2.0000           -0.5870000             -15.9731
        33        2.0000           -0.5845456             -15.9063
        34        2.0000           -0.5830084             -15.8645
        35        2.0000           -0.5799570             -15.7814
        36        2.0000           -0.5371877             -14.6176
        37        2.0000           -0.5335417             -14.5184
        38        2.0000           -0.5185016             -14.1091
        39        2.0000           -0.5152527             -14.0207 (HOMO)
        40                         -0.4023956             -10.9497 (LUMO)
        41                         -0.3670863              -9.9889
        42                         -0.3391718              -9.2293
        43                         -0.3364581              -9.1555
        44                         -0.2099497              -5.7130
        45                         -0.1794727              -4.8837
        46                         -0.1263929              -3.4393
        47                         -0.0535590              -1.4574
        48                         -0.0490389              -1.3344
        49                         -0.0408270              -1.1110
        50                         -0.0316764              -0.8620
       ...                                ...                  ...
        77                          0.5486643              14.9299
      -------------------------------------------------------------
                  HL-Gap            0.1128571 Eh            3.0710 eV

     #   Z          covCN         q      C6AA      α(0)
     1   6 C        3.753    -0.124    22.947     6.831
     2   6 C        3.741    -0.022    21.044     6.545
     3   7 N        2.870     0.064    20.116     6.661
     4   6 C        3.073    -0.006    28.102     8.692
     5   6 C        3.072    -0.006    28.105     8.692
     6   7 N        2.871     0.068    20.053     6.651
     7   6 C        3.099     0.051    26.742     8.475
     8   6 C        3.745    -0.024    21.078     6.549
     9   6 C        3.809    -0.075    21.933     6.667
    10   6 C        2.971     0.001    28.004     8.680
    11   6 C        2.924    -0.047    29.157     8.855
    12   6 C        2.918    -0.032    28.804     8.801
    13   6 C        2.920    -0.027    28.681     8.782
    14   6 C        2.919    -0.025    28.632     8.775
    15   6 C        2.924    -0.039    28.978     8.828
    16   1 H        0.925     0.067     2.116     2.275
    17   1 H        0.925     0.085     1.930     2.172
    18   1 H        0.925     0.063     2.170     2.304
    19   1 H        0.924     0.092     1.862     2.134
    20   1 H        0.924     0.084     1.937     2.177
    21   1 H        0.926     0.107     1.724     2.053
    22   1 H        0.926     0.107     1.726     2.054
    23   1 H        0.926     0.110     1.698     2.038
    24   1 H        0.924     0.085     1.925     2.170
    25   1 H        0.924     0.091     1.873     2.140
    26   1 H        0.925     0.080     1.978     2.199
    27   1 H        0.924     0.062     2.178     2.308
    28   1 H        0.925     0.023     2.695     2.567
    29   1 H        0.926     0.042     2.420     2.433
    30   1 H        0.926     0.052     2.298     2.370
    31   1 H        0.926     0.053     2.279     2.361
    32   1 H        0.926     0.044     2.396     2.421

Wiberg/Mayer (AO) data.
largest (>0.10) Wiberg bond orders for each atom

     #   Z sym  total        # sym  WBO       # sym  WBO       # sym  WBO
 ---------------------------------------------------------------------------
     1   6 C    3.981 --     2 C    1.001    18 H    0.985    16 H    0.984
                            17 H    0.976
     2   6 C    3.939 --     1 C    1.001     3 N    0.966    20 H    0.966
                            19 H    0.964
     3   7 N    3.714 --     7 C    1.359     4 C    1.226     2 C    0.966
     4   6 C    3.949 --     5 C    1.593     3 N    1.226    21 H    0.961
     5   6 C    3.948 --     4 C    1.593     6 N    1.224    22 H    0.961
     6   7 N    3.714 --     7 C    1.356     5 C    1.224     8 C    0.974
     7   6 C    3.950 --     3 N    1.359     6 N    1.356    23 H    0.954
     8   6 C    3.939 --     6 N    0.974    24 H    0.965    25 H    0.965
                             9 C    0.964
     9   6 C    3.983 --    10 C    1.012    27 H    0.972     8 C    0.964
                            26 H    0.962
    10   6 C    3.988 --    15 C    1.411    11 C    1.407     9 C    1.012
                            13 C    0.108
    11   6 C    3.991 --    12 C    1.438    10 C    1.407    28 H    0.969
                            14 C    0.109
    12   6 C    3.992 --    13 C    1.443    11 C    1.438    29 H    0.970
                            15 C    0.111
    13   6 C    3.990 --    12 C    1.443    14 C    1.434    30 H    0.970
                            10 C    0.108
    14   6 C    3.990 --    15 C    1.448    13 C    1.434    31 H    0.969
                            11 C    0.109
    15   6 C    3.991 --    14 C    1.448    10 C    1.411    32 H    0.968
                            12 C    0.111
    16   1 H    0.995 --     1 C    0.984
    17   1 H    0.992 --     1 C    0.976
    18   1 H    0.996 --     1 C    0.985
    19   1 H    0.991 --     2 C    0.964
    20   1 H    0.993 --     2 C    0.966
    21   1 H    0.989 --     4 C    0.961
    22   1 H    0.989 --     5 C    0.961
    23   1 H    0.988 --     7 C    0.954
    24   1 H    0.993 --     8 C    0.965
    25   1 H    0.991 --     8 C    0.965
    26   1 H    0.993 --     9 C    0.962
    27   1 H    0.996 --     9 C    0.972
    28   1 H    0.999 --    11 C    0.969
    29   1 H    0.998 --    12 C    0.970
    30   1 H    0.997 --    13 C    0.970
    31   1 H    0.997 --    14 C    0.969
    32   1 H    0.998 --    15 C    0.968
 ---------------------------------------------------------------------------

molecular dipole:
                 x           y           z       tot (Debye)
 q only:        2.497      -0.975       6.348
   full:        2.497      -1.006       6.418      17.690

           -------------------------------------------------
          | TOTAL ENERGY              -41.983830465544 Eh   |
          | GRADIENT NORM               0.000735459153 Eh/α |
          | HOMO-LUMO GAP               3.070998672076 eV   |
           -------------------------------------------------

 * finished run on 2024/12/20 at 06:47:00.779
