   * xtb version 6.7.1 (edcfbbe) compiled by 'conda@3ef47c1a292c' on 2024-11-25

   ID    Z sym.   atoms
    1    6 C      1-16, 18-26
    2    7 N      17
    3    1 H      27-80

          program call               : xtb C0514.xyz --opt --namespace C0514 --charge +1
          :  Hamiltonian                  GFN2-xTB          :
 * total energy  :   -83.6229253 Eh     change       -0.1103757E-09 Eh
 * total energy  :   -83.6308207 Eh     change       -0.7895471E-02 Eh
 * total energy  :   -83.6327081 Eh     change       -0.1887414E-02 Eh
 * total energy  :   -83.6328661 Eh     change       -0.1579806E-03 Eh
 * total energy  :   -83.6330182 Eh     change       -0.1521258E-03 Eh
 * total energy  :   -83.6331030 Eh     change       -0.8480631E-04 Eh
 * total energy  :   -83.6332107 Eh     change       -0.1076591E-03 Eh
 * total energy  :   -83.6332952 Eh     change       -0.8452300E-04 Eh
 * total energy  :   -83.6333851 Eh     change       -0.8987943E-04 Eh
 * total energy  :   -83.6334295 Eh     change       -0.4441427E-04 Eh
 * total energy  :   -83.6362379 Eh     change       -0.1964823E-04 Eh
 * total energy  :   -83.6362547 Eh     change       -0.1677590E-04 Eh
 * total energy  :   -83.6362758 Eh     change       -0.2112587E-04 Eh
 * total energy  :   -83.6362960 Eh     change       -0.2019309E-04 Eh
 * total energy  :   -83.6363173 Eh     change       -0.2131703E-04 Eh
 * total energy  :   -83.6363397 Eh     change       -0.2241740E-04 Eh
 * total energy  :   -83.6363495 Eh     change       -0.9791571E-05 Eh
 * total energy  :   -83.6363610 Eh     change       -0.1146615E-04 Eh
 * total energy  :   -83.6363657 Eh     change       -0.4719338E-05 Eh
   *** GEOMETRY OPTIMIZATION CONVERGED AFTER 70 ITERATIONS ***

 final structure:
================
80
 xtb: 6.7.1 (edcfbbe)
C            1.05158142665255        0.42661522423207       -0.76133890709683
C            1.16106031904258       -0.94627672549937       -0.10835451612369
C            1.60377345775442       -0.88650310538855        1.35462998227842
C            0.66268761221085       -0.11833184957492        2.28490055987557
C           -0.77007739271085       -0.65103435301769        2.34060501101246
C           -0.90507014145097       -2.09829671484196        2.81777123268351
C           -0.37832334585496       -2.36886620112820        4.22901591134040
C           -1.00127210669504       -1.50801102123796        5.33037213048994
C           -2.52731480027535       -1.56880590110298        5.41367728981353
C           -3.10173812877702       -2.95574074633096        5.70680092399240
C           -2.73281202933484       -3.53267060802234        7.07529112920819
C           -3.14298713762239       -2.67339402905051        8.27477712040317
C           -4.61306938837793       -2.24788411023672        8.29550297840260
C           -5.61226635659261       -3.40710374206798        8.34057579600441
C           -5.69450032749667       -4.09366457027833        9.70970892923484
C           -6.40798561680971       -3.24369475941650       10.77114954391238
N           -7.80904326151897       -3.63837479025514       11.09687181212366
C           -7.90823200413725       -5.05519522107513       11.59501951607144
C           -6.80743005137524       -5.59876145598360       12.51173272460398
C           -6.75262532535689       -5.10596163088410       13.96153451385667
C           -8.02856129359969       -5.38645950248017       14.74833210697174
C           -8.37287625916979       -2.72882866648681       12.15533923332048
C           -8.01936576437847       -1.23757406300428       12.14066588527182
C           -8.56997721259609       -0.36537006635491       11.00817921368264
C          -10.09234367788148       -0.36085614227404       10.93038893100750
C           -8.65091952462356       -3.55333690525301        9.88751124282075
H            0.25140622207788        1.01191899136358       -0.31523914899684
H            0.84075675337486        0.32220151250014       -1.82330790094527
H            1.98394127752105        0.97619911473938       -0.65043537461058
H            0.20316711780802       -1.46383276491320       -0.18648039187617
H            1.89517278060607       -1.54006113625959       -0.65875238142316
H            1.72458912095777       -1.90704396643376        1.72419699467386
H            2.58577633677683       -0.40845781817606        1.40068044391034
H            1.09167570498001       -0.12986662619401        3.28932534823490
H            0.62419131516150        0.92582874101500        1.96807442776348
H           -1.35068827836006        0.00148895762318        2.99665548213221
H           -1.21659477986018       -0.57905627205427        1.34693146640615
H           -1.96026614345882       -2.37767623343005        2.76708475796029
H           -0.37150695837868       -2.75354926777021        2.12677567536796
H           -0.54288372462096       -3.42463928487019        4.45750768846826
H            0.70096291796002       -2.20670128965514        4.24541823763902
H           -0.57246670535894       -1.81349682207432        6.28767116185317
H           -0.71453118141296       -0.46674839656352        5.17210382890705
H           -2.85605073010188       -0.86717342948955        6.18379801632878
H           -2.94792110017493       -1.22196952380359        4.46844733146599
H           -4.18968880882570       -2.90537280725838        5.61578293241502
H           -2.75428179165766       -3.65290004266112        4.94318257394748
H           -3.18471025855393       -4.52426614662785        7.16253573572428
H           -1.65264940794257       -3.67662078937990        7.12286759886071
H           -2.90322788386921       -3.22358136731751        9.18842832804691
H           -2.53584119494682       -1.76730721238283        8.28448956363114
H           -4.76622854296424       -1.58930161637555        9.15511623372966
H           -4.81649114452849       -1.65727597881072        7.40262168675461
H           -6.59497644927393       -3.03319060957784        8.04630628190024
H           -5.31766990373996       -4.14960704358355        7.60007826826288
H           -6.17070435501724       -5.06683851324842        9.59713019598808
H           -4.67596345700025       -4.28459983310583       10.04859065893334
H           -5.85070267693413       -3.25225249110869       11.70790764107528
H           -6.44218501722278       -2.21665772078539       10.40850666356712
H           -8.87423781038210       -5.15331948184737       12.09299327624423
H           -7.93142806982805       -5.70028817703762       10.71521481071174
H           -6.98791437184751       -6.67613734438478       12.54957474478186
H           -5.82961120826563       -5.46584910573976       12.05018354442380
H           -5.93374654137085       -5.64363678706797       14.44259762755941
H           -6.49517683550128       -4.04567358545699       14.01669267210436
H           -8.27466348163107       -6.44408327471049       14.70107665203463
H           -7.88395378284931       -5.12196237996314       15.79183738654187
H           -8.88140616164949       -4.81999679423136       14.37988496088783
H           -9.45839833640604       -2.83351005712025       12.11902781778678
H           -8.02971272260744       -3.11370372701148       13.11296005068846
H           -8.44016292153317       -0.85165920519385       13.07299361514849
H           -6.94015617243224       -1.09902080050629       12.21319636783355
H           -8.23649365383447        0.65446414556214       11.20797485707212
H           -8.14184089252521       -0.64145333064838       10.04166127887614
H          -10.51734780385702       -0.07731732280880       11.88981888787240
H          -10.42171824618769        0.36350648333144       10.19105563870362
H          -10.49768960430794       -1.32946909256972       10.64738763697404
H           -8.68944884591708       -2.52955067756888        9.52824207421043
H           -8.24967415774394       -4.18697223504816        9.10035929520164
H           -9.66257910138210       -3.88570790635546       10.11488648314017

          :  Hamiltonian                  GFN2-xTB          :
         :: total energy             -83.636365722407 Eh    ::
         :: gradient norm              0.000401526871 Eh/a0 ::
         :: HOMO-LUMO gap              6.056806760474 eV    ::
         :: SCC energy               -84.857523230111 Eh    ::
         :: -> dispersion             -0.068841230440 Eh    ::
         :: repulsion energy           1.221157507704 Eh    ::

    * Orbital Energies and Occupations

         #    Occupation            Energy/Eh            Energy/eV
      -------------------------------------------------------------
         1        2.0000           -0.8468742             -23.0446
       ...           ...                  ...                  ...
        67        2.0000           -0.5108817             -13.9018
        68        2.0000           -0.5046582             -13.7324
        69        2.0000           -0.5018306             -13.6555
        70        2.0000           -0.4949162             -13.4674
        71        2.0000           -0.4896408             -13.3238
        72        2.0000           -0.4859794             -13.2242
        73        2.0000           -0.4821260             -13.1193
        74        2.0000           -0.4717118             -12.8359
        75        2.0000           -0.4706471             -12.8070
        76        2.0000           -0.4681793             -12.7398
        77        2.0000           -0.4580722             -12.4648
        78        2.0000           -0.4528019             -12.3214
        79        2.0000           -0.4516217             -12.2893 (HOMO)
        80                         -0.2290382              -6.2324 (LUMO)
        81                         -0.1661433              -4.5210
        82                         -0.1537820              -4.1846
        83                         -0.1360242              -3.7014
        84                         -0.0759534              -2.0668
        85                         -0.0701210              -1.9081
        86                         -0.0600534              -1.6341
        87                         -0.0496112              -1.3500
        88                         -0.0341792              -0.9301
        89                         -0.0295354              -0.8037
        90                         -0.0270676              -0.7365
       ...                                ...                  ...
       158                          0.2683240               7.3015
      -------------------------------------------------------------
                  HL-Gap            0.2225836 Eh            6.0568 eV

     #   Z          covCN         q      C6AA      α(0)
     1   6 C        3.751    -0.101    22.500     6.765
     2   6 C        3.799    -0.052    21.507     6.603
     3   6 C        3.800    -0.057    21.601     6.617
     4   6 C        3.800    -0.057    21.596     6.617
     5   6 C        3.800    -0.056    21.586     6.615
     6   6 C        3.800    -0.057    21.593     6.616
     7   6 C        3.800    -0.057    21.595     6.616
     8   6 C        3.800    -0.057    21.599     6.617
     9   6 C        3.800    -0.058    21.613     6.619
    10   6 C        3.800    -0.059    21.631     6.622
    11   6 C        3.800    -0.059    21.638     6.623
    12   6 C        3.800    -0.060    21.657     6.626
    13   6 C        3.800    -0.063    21.712     6.634
    14   6 C        3.800    -0.069    21.823     6.651
    15   6 C        3.799    -0.072    21.882     6.660
    16   6 C        3.752    -0.037    21.296     6.581
    17   7 N        3.617     0.115    19.268     6.519
    18   6 C        3.760    -0.038    21.304     6.580
    19   6 C        3.799    -0.076    21.951     6.671
    20   6 C        3.798    -0.062    21.695     6.632
    21   6 C        3.751    -0.115    22.758     6.803
    22   6 C        3.756    -0.043    21.406     6.597
    23   6 C        3.799    -0.075    21.931     6.668
    24   6 C        3.799    -0.060    21.663     6.627
    25   6 C        3.751    -0.115    22.763     6.804
    26   6 C        3.721    -0.089    22.321     6.748
    27   1 H        0.925     0.033     2.538     2.491
    28   1 H        0.925     0.032     2.562     2.503
    29   1 H        0.925     0.034     2.528     2.487
    30   1 H        0.924     0.030     2.592     2.518
    31   1 H        0.924     0.027     2.623     2.533
    32   1 H        0.924     0.028     2.616     2.529
    33   1 H        0.924     0.029     2.599     2.521
    34   1 H        0.924     0.027     2.623     2.533
    35   1 H        0.924     0.032     2.563     2.504
    36   1 H        0.924     0.026     2.651     2.546
    37   1 H        0.924     0.032     2.560     2.502
    38   1 H        0.924     0.025     2.664     2.552
    39   1 H        0.924     0.033     2.542     2.493
    40   1 H        0.924     0.025     2.657     2.549
    41   1 H        0.924     0.034     2.536     2.490
    42   1 H        0.924     0.026     2.649     2.545
    43   1 H        0.924     0.034     2.534     2.489
    44   1 H        0.924     0.024     2.673     2.557
    45   1 H        0.924     0.036     2.508     2.477
    46   1 H        0.924     0.022     2.697     2.568
    47   1 H        0.924     0.039     2.458     2.452
    48   1 H        0.924     0.023     2.691     2.565
    49   1 H        0.924     0.041     2.431     2.438
    50   1 H        0.924     0.023     2.684     2.562
    51   1 H        0.924     0.043     2.403     2.424
    52   1 H        0.924     0.021     2.714     2.576
    53   1 H        0.925     0.050     2.318     2.381
    54   1 H        0.924     0.029     2.601     2.522
    55   1 H        0.925     0.059     2.209     2.324
    56   1 H        0.925     0.047     2.356     2.400
    57   1 H        0.924     0.068     2.103     2.268
    58   1 H        0.925     0.079     1.990     2.206
    59   1 H        0.925     0.093     1.851     2.128
    60   1 H        0.924     0.083     1.950     2.184
    61   1 H        0.924     0.079     1.995     2.209
    62   1 H        0.924     0.073     2.053     2.241
    63   1 H        0.925     0.059     2.212     2.326
    64   1 H        0.924     0.059     2.214     2.327
    65   1 H        0.924     0.031     2.571     2.508
    66   1 H        0.925     0.051     2.311     2.377
    67   1 H        0.925     0.056     2.246     2.343
    68   1 H        0.925     0.030     2.585     2.514
    69   1 H        0.924     0.081     1.965     2.192
    70   1 H        0.925     0.093     1.854     2.130
    71   1 H        0.924     0.074     2.047     2.237
    72   1 H        0.924     0.052     2.297     2.370
    73   1 H        0.924     0.058     2.224     2.332
    74   1 H        0.924     0.029     2.596     2.519
    75   1 H        0.925     0.050     2.321     2.383
    76   1 H        0.925     0.055     2.255     2.348
    77   1 H        0.925     0.032     2.560     2.502
    78   1 H        0.925     0.103     1.757     2.073
    79   1 H        0.925     0.094     1.838     2.120
    80   1 H        0.925     0.083     1.944     2.180

Wiberg/Mayer (AO) data.
largest (>0.10) Wiberg bond orders for each atom

     #   Z sym  total        # sym  WBO       # sym  WBO       # sym  WBO
 ---------------------------------------------------------------------------
     1   6 C    3.997 --     2 C    1.020    29 H    0.988    28 H    0.987
                            27 H    0.986
     2   6 C    3.998 --     1 C    1.020     3 C    1.008    31 H    0.978
                            30 H    0.976
     3   6 C    3.998 --     2 C    1.008     4 C    1.008    33 H    0.977
                            32 H    0.976
     4   6 C    3.998 --     5 C    1.008     3 C    1.008    35 H    0.975
                            34 H    0.975
     5   6 C    3.998 --     4 C    1.008     6 C    1.008    36 H    0.975
                            37 H    0.975
     6   6 C    3.997 --     5 C    1.008     7 C    1.007    38 H    0.975
                            39 H    0.975
     7   6 C    3.997 --     6 C    1.007     8 C    1.007    40 H    0.976
                            41 H    0.975
     8   6 C    3.997 --     9 C    1.008     7 C    1.007    42 H    0.975
                            43 H    0.975
     9   6 C    3.997 --     8 C    1.008    10 C    1.008    44 H    0.974
                            45 H    0.974
    10   6 C    3.997 --     9 C    1.008    11 C    1.008    46 H    0.975
                            47 H    0.973
    11   6 C    3.996 --    10 C    1.008    12 C    1.007    48 H    0.975
                            49 H    0.974
    12   6 C    3.996 --    13 C    1.008    11 C    1.007    50 H    0.975
                            51 H    0.974
    13   6 C    3.995 --    12 C    1.008    14 C    1.007    52 H    0.973
                            53 H    0.972
    14   6 C    3.992 --    13 C    1.007    15 C    1.005    54 H    0.975
                            55 H    0.970
    15   6 C    3.986 --    14 C    1.005    16 C    1.001    56 H    0.968
                            57 H    0.967
    16   6 C    3.930 --    15 C    1.001    58 H    0.968    59 H    0.957
                            17 N    0.932
    17   7 N    3.802 --    26 C    0.964    16 C    0.932    18 C    0.925
                            22 C    0.923
    18   6 C    3.934 --    19 C    1.007    61 H    0.965    60 H    0.965
                            17 N    0.925
    19   6 C    3.985 --    18 C    1.007    20 C    1.006    63 H    0.969
                            62 H    0.964
    20   6 C    3.994 --    21 C    1.020    19 C    1.006    64 H    0.973
                            65 H    0.969
    21   6 C    3.993 --    20 C    1.020    66 H    0.986    67 H    0.984
                            68 H    0.983
    22   6 C    3.930 --    23 C    1.007    69 H    0.966    70 H    0.957
                            17 N    0.923
    23   6 C    3.986 --    22 C    1.007    24 C    1.006    72 H    0.971
                            71 H    0.963
    24   6 C    3.994 --    25 C    1.020    23 C    1.006    73 H    0.973
                            74 H    0.968
    25   6 C    3.993 --    24 C    1.020    75 H    0.986    76 H    0.984
                            77 H    0.984
    26   6 C    3.933 --    80 H    0.976    79 H    0.971    78 H    0.964
                            17 N    0.964
    27   1 H    0.999 --     1 C    0.986
    28   1 H    0.999 --     1 C    0.987
    29   1 H    0.999 --     1 C    0.988
    30   1 H    0.999 --     2 C    0.976
    31   1 H    0.999 --     2 C    0.978
    32   1 H    0.999 --     3 C    0.976
    33   1 H    0.999 --     3 C    0.977
    34   1 H    0.999 --     4 C    0.975
    35   1 H    0.999 --     4 C    0.975
    36   1 H    0.999 --     5 C    0.975
    37   1 H    0.999 --     5 C    0.975
    38   1 H    0.999 --     6 C    0.975
    39   1 H    0.999 --     6 C    0.975
    40   1 H    0.999 --     7 C    0.976
    41   1 H    0.999 --     7 C    0.975
    42   1 H    0.999 --     8 C    0.975
    43   1 H    0.999 --     8 C    0.975
    44   1 H    0.999 --     9 C    0.974
    45   1 H    0.999 --     9 C    0.974
    46   1 H    0.999 --    10 C    0.975
    47   1 H    0.998 --    10 C    0.973
    48   1 H    0.999 --    11 C    0.975
    49   1 H    0.998 --    11 C    0.974
    50   1 H    0.999 --    12 C    0.975
    51   1 H    0.998 --    12 C    0.974
    52   1 H    1.000 --    13 C    0.973
    53   1 H    0.997 --    13 C    0.972
    54   1 H    0.999 --    14 C    0.975
    55   1 H    0.996 --    14 C    0.970
    56   1 H    0.998 --    15 C    0.968
    57   1 H    0.995 --    15 C    0.967
    58   1 H    0.994 --    16 C    0.968
    59   1 H    0.991 --    16 C    0.957
    60   1 H    0.993 --    18 C    0.965
    61   1 H    0.994 --    18 C    0.965
    62   1 H    0.994 --    19 C    0.964
    63   1 H    0.997 --    19 C    0.969
    64   1 H    0.996 --    20 C    0.973
    65   1 H    0.999 --    20 C    0.969
    66   1 H    0.997 --    21 C    0.986
    67   1 H    0.997 --    21 C    0.984
    68   1 H    0.999 --    21 C    0.983
    69   1 H    0.993 --    22 C    0.966
    70   1 H    0.991 --    22 C    0.957
    71   1 H    0.994 --    23 C    0.963
    72   1 H    0.997 --    23 C    0.971
    73   1 H    0.996 --    24 C    0.973
    74   1 H    0.999 --    24 C    0.968
    75   1 H    0.997 --    25 C    0.986
    76   1 H    0.997 --    25 C    0.984
    77   1 H    0.999 --    25 C    0.984
    78   1 H    0.989 --    26 C    0.964
    79   1 H    0.991 --    26 C    0.971
    80   1 H    0.993 --    26 C    0.976
 ---------------------------------------------------------------------------

molecular dipole:
                 x           y           z       tot (Debye)
 q only:      -14.177      -6.609      20.816
   full:      -14.266      -6.672      20.866      66.448

           -------------------------------------------------
          | TOTAL ENERGY              -83.636365722407 Eh   |
          | GRADIENT NORM               0.000401526871 Eh/α |
          | HOMO-LUMO GAP               6.056806760474 eV   |
           -------------------------------------------------

 * finished run on 2024/12/20 at 06:47:08.838
