   * xtb version 6.7.1 (edcfbbe) compiled by 'conda@3ef47c1a292c' on 2024-11-25

   ID    Z sym.   atoms
    1    6 C      1-3, 5, 6, 9-11, 13-16, 19-21, 23-26
    2    7 N      4, 7
    3    8 O      8, 18
    4   17 Cl     12, 17, 22, 27
    5    1 H      28-44

          program call               : xtb C0526.xyz --opt --namespace C0526 --charge +1
          :  Hamiltonian                  GFN2-xTB          :
 * total energy  :   -81.0771752 Eh     change       -0.7806733E-09 Eh
 * total energy  :   -81.0873090 Eh     change       -0.1013387E-01 Eh
 * total energy  :   -81.0903897 Eh     change       -0.3080661E-02 Eh
 * total energy  :   -81.0909753 Eh     change       -0.5855772E-03 Eh
 * total energy  :   -81.0914771 Eh     change       -0.5017700E-03 Eh
 * total energy  :   -81.0917036 Eh     change       -0.2265742E-03 Eh
 * total energy  :   -81.0918801 Eh     change       -0.1764937E-03 Eh
 * total energy  :   -81.0920509 Eh     change       -0.1707556E-03 Eh
 * total energy  :   -81.0922209 Eh     change       -0.1700599E-03 Eh
 * total energy  :   -81.0923773 Eh     change       -0.1563504E-03 Eh
 * total energy  :   -81.0945377 Eh     change       -0.8416284E-05 Eh
 * total energy  :   -81.0945448 Eh     change       -0.7146671E-05 Eh
 * total energy  :   -81.0945518 Eh     change       -0.6959828E-05 Eh
 * total energy  :   -81.0945594 Eh     change       -0.7616105E-05 Eh
 * total energy  :   -81.0945680 Eh     change       -0.8639787E-05 Eh
 * total energy  :   -81.0945780 Eh     change       -0.9934615E-05 Eh
 * total energy  :   -81.0945864 Eh     change       -0.8408654E-05 Eh
 * total energy  :   -81.0945917 Eh     change       -0.5289181E-05 Eh
 * total energy  :   -81.0945954 Eh     change       -0.3754636E-05 Eh
   *** GEOMETRY OPTIMIZATION CONVERGED AFTER 55 ITERATIONS ***

 final structure:
================
44
 xtb: 6.7.1 (edcfbbe)
C            1.60678104678443        0.20964208789413        0.65403760426124
C            0.75559536701226        0.58871418585984        1.87162224973779
C            1.11201250057965        1.93251002606199        2.37292081054105
N            1.72281460414468        2.22778205431141        3.52664366283265
C            1.90922594171055        3.57136125046647        3.62220444528892
C            1.40997859395009        4.11950268510148        2.47890695145763
N            0.92127614465674        3.09351599106842        1.73327029447112
O            0.34841374593828        3.13841564448923        0.50176476583638
C           -0.46045166084099        4.28913472574419        0.23678817609238
C           -1.48868094862806        4.56199470030886        1.30166498668554
C           -1.52307806577152        5.76631853609404        2.00645633361830
Cl          -0.36134648859393        7.01272672259176        1.68152073607802
C           -2.48699975789287        6.01164810380252        2.97170309408513
C           -3.43339713767389        5.04364475946651        3.25625967343958
C           -3.42188769178152        3.83628461465218        2.58154921190554
C           -2.45833896693554        3.60559876382949        1.61267317868271
Cl          -2.47462769086892        2.10181011816381        0.76274512375741
O            2.01236728607857        1.26187457815872        4.43949294569095
C            3.13078497453334        1.52154286201158        5.29059376913287
C            4.40057896496282        1.84125576410190        4.54708463166503
C            4.93527567252616        0.92740030468624        3.63564950435246
Cl           4.11876067433493       -0.56873428288860        3.35333628457053
C            6.11622044012559        1.18563555692492        2.95770453213282
C            6.78949760503739        2.37143661088688        3.18934220007433
C            6.28442656910963        3.29819299044747        4.08373740001708
C            5.09845571209567        3.03263253406349        4.74981682010238
Cl           4.50769149478668        4.22241081623164        5.86645857003444
H            1.44719409569094        0.91325478706855       -0.15775467838249
H            1.32240275371282       -0.78084001126950        0.31380451578253
H            2.66200203672704        0.19555358884114        0.91249224798003
H           -0.29736267519314        0.58916492961494        1.58094883262818
H            0.90509772494375       -0.13040750462131        2.67671640799920
H            2.38468049854957        4.04790890793052        4.45591024231613
H            1.36221117691783        5.14666579312526        2.17831064991802
H            0.16821113445619        5.16879606892303        0.07275653586122
H           -0.94454229539532        4.01454616899047       -0.70423192542048
H           -2.49537892555292        6.95602908524824        3.49173017100922
H           -4.18677822917294        5.23404899635106        4.00362938694159
H           -4.15987934541337        3.07960184078501        2.79352299495783
H            2.89237948881750        2.31147172405983        6.00836688266517
H            3.23042919425180        0.57238379347498        5.82434439555404
H            6.50678682112341        0.45651299826723        2.26636662249485
H            7.71532043734948        2.57280123373647        2.67491941404655
H            6.80785717880751        4.22222489490738        4.26972934707202

          :  Hamiltonian                  GFN2-xTB          :
         :: total energy             -81.094595438371 Eh    ::
         :: gradient norm              0.000323725934 Eh/a0 ::
         :: HOMO-LUMO gap              3.541152044351 eV    ::
         :: SCC energy               -82.045455087133 Eh    ::
         :: -> dispersion             -0.058531884260 Eh    ::
         :: repulsion energy           0.950859648762 Eh    ::

    * Orbital Energies and Occupations

         #    Occupation            Energy/Eh            Energy/eV
      -------------------------------------------------------------
         1        2.0000           -1.1707375             -31.8574
       ...           ...                  ...                  ...
        59        2.0000           -0.5609277             -15.2636
        60        2.0000           -0.5589008             -15.2085
        61        2.0000           -0.5558775             -15.1262
        62        2.0000           -0.5523863             -15.0312
        63        2.0000           -0.5506812             -14.9848
        64        2.0000           -0.5340354             -14.5318
        65        2.0000           -0.5334521             -14.5160
        66        2.0000           -0.5288338             -14.3903
        67        2.0000           -0.5270056             -14.3406
        68        2.0000           -0.5244818             -14.2719
        69        2.0000           -0.5234833             -14.2447
        70        2.0000           -0.5122395             -13.9387
        71        2.0000           -0.5110600             -13.9067 (HOMO)
        72                         -0.3809250             -10.3655 (LUMO)
        73                         -0.3670536              -9.9880
        74                         -0.3647965              -9.9266
        75                         -0.3593838              -9.7793
        76                         -0.3581847              -9.7467
        77                         -0.3536782              -9.6241
        78                         -0.2677050              -7.2846
        79                         -0.2667111              -7.2576
        80                         -0.2563967              -6.9769
        81                         -0.2397930              -6.5251
        82                         -0.2378261              -6.4716
       ...                                ...                  ...
       145                          0.5075555              13.8113
      -------------------------------------------------------------
                  HL-Gap            0.1301349 Eh            3.5412 eV

     #   Z          covCN         q      C6AA      α(0)
     1   6 C        3.754    -0.117    22.787     6.807
     2   6 C        3.803    -0.067    21.774     6.643
     3   6 C        3.067     0.076    26.247     8.401
     4   7 N        2.914     0.182    18.213     6.338
     5   6 C        3.036    -0.039    28.926     8.822
     6   6 C        3.036    -0.038    28.907     8.819
     7   7 N        2.915     0.183    18.191     6.335
     8   8 O        1.767    -0.191    17.180     5.597
     9   6 C        3.689     0.051    19.897     6.384
    10   6 C        3.024    -0.026    28.627     8.776
    11   6 C        2.891     0.088    26.042     8.367
    12  17 Cl       0.964    -0.146   103.731    15.582
    13   6 C        2.959    -0.039    28.961     8.827
    14   6 C        2.923    -0.019    28.481     8.752
    15   6 C        2.957    -0.040    28.985     8.830
    16   6 C        2.892     0.092    25.949     8.352
    17  17 Cl       0.969    -0.136   103.410    15.558
    18   8 O        1.768    -0.192    17.200     5.600
    19   6 C        3.689     0.053    19.875     6.381
    20   6 C        3.024    -0.026    28.620     8.775
    21   6 C        2.892     0.093    25.933     8.349
    22  17 Cl       0.968    -0.134   103.354    15.553
    23   6 C        2.956    -0.040    28.984     8.830
    24   6 C        2.923    -0.019    28.477     8.751
    25   6 C        2.959    -0.039    28.957     8.826
    26   6 C        2.891     0.088    26.040     8.366
    27  17 Cl       0.964    -0.148   103.775    15.585
    28   1 H        0.925     0.066     2.131     2.283
    29   1 H        0.925     0.076     2.025     2.226
    30   1 H        0.925     0.058     2.219     2.329
    31   1 H        0.924     0.099     1.792     2.094
    32   1 H        0.925     0.094     1.840     2.121
    33   1 H        0.926     0.125     1.572     1.961
    34   1 H        0.926     0.125     1.576     1.963
    35   1 H        0.924     0.082     1.959     2.189
    36   1 H        0.924     0.117     1.641     2.003
    37   1 H        0.926     0.085     1.932     2.174
    38   1 H        0.926     0.084     1.935     2.175
    39   1 H        0.926     0.085     1.924     2.169
    40   1 H        0.924     0.082     1.964     2.191
    41   1 H        0.924     0.117     1.636     2.000
    42   1 H        0.926     0.085     1.925     2.169
    43   1 H        0.926     0.084     1.936     2.176
    44   1 H        0.926     0.084     1.934     2.175

Wiberg/Mayer (AO) data.
largest (>0.10) Wiberg bond orders for each atom

     #   Z sym  total        # sym  WBO       # sym  WBO       # sym  WBO
 ---------------------------------------------------------------------------
     1   6 C    3.982 --    30 H    0.986    28 H    0.984     2 C    0.982
                            29 H    0.980
     2   6 C    3.972 --     3 C    1.029     1 C    0.982    32 H    0.963
                            31 H    0.942
     3   6 C    3.928 --     4 N    1.293     7 N    1.290     2 C    1.029
     4   7 N    3.706 --     3 C    1.293     5 C    1.206    18 O    1.005
     5   6 C    3.933 --     6 C    1.567     4 N    1.206    33 H    0.947
     6   6 C    3.935 --     5 C    1.567     7 N    1.208    34 H    0.949
     7   7 N    3.706 --     3 C    1.290     6 C    1.208     8 O    1.007
     8   8 O    2.130 --     7 N    1.007     9 C    0.932
     9   6 C    3.910 --    10 C    1.005    35 H    0.959    36 H    0.940
                             8 O    0.932
    10   6 C    3.982 --    11 C    1.373    16 C    1.368     9 C    1.005
                            14 C    0.102
    11   6 C    3.923 --    13 C    1.406    10 C    1.373    12 Cl   0.983
    12  17 Cl   1.145 --    11 C    0.983
    13   6 C    3.985 --    14 C    1.434    11 C    1.406    37 H    0.963
    14   6 C    3.986 --    15 C    1.435    13 C    1.434    38 H    0.963
                            10 C    0.102
    15   6 C    3.985 --    14 C    1.435    16 C    1.405    39 H    0.963
    16   6 C    3.927 --    15 C    1.405    10 C    1.368    17 Cl   0.996
    17  17 Cl   1.150 --    16 C    0.996
    18   8 O    2.134 --     4 N    1.005    19 C    0.934
    19   6 C    3.908 --    20 C    1.004    40 H    0.959    41 H    0.939
                            18 O    0.934
    20   6 C    3.982 --    26 C    1.374    21 C    1.367    19 C    1.004
                            24 C    0.102
    21   6 C    3.928 --    23 C    1.404    20 C    1.367    22 Cl   0.999
    22  17 Cl   1.151 --    21 C    0.999
    23   6 C    3.985 --    24 C    1.436    21 C    1.404    42 H    0.963
    24   6 C    3.986 --    23 C    1.436    25 C    1.433    43 H    0.963
                            20 C    0.102
    25   6 C    3.985 --    24 C    1.433    26 C    1.406    44 H    0.963
    26   6 C    3.922 --    25 C    1.406    20 C    1.374    27 Cl   0.981
    27  17 Cl   1.144 --    26 C    0.981
    28   1 H    0.996 --     1 C    0.984
    29   1 H    0.993 --     1 C    0.980
    30   1 H    0.997 --     1 C    0.986
    31   1 H    0.990 --     2 C    0.942
    32   1 H    0.991 --     2 C    0.963
    33   1 H    0.984 --     5 C    0.947
    34   1 H    0.984 --     6 C    0.949
    35   1 H    0.993 --     9 C    0.959
    36   1 H    0.985 --     9 C    0.940
    37   1 H    0.992 --    13 C    0.963
    38   1 H    0.993 --    14 C    0.963
    39   1 H    0.992 --    15 C    0.963
    40   1 H    0.993 --    19 C    0.959
    41   1 H    0.985 --    19 C    0.939
    42   1 H    0.992 --    23 C    0.963
    43   1 H    0.993 --    24 C    0.963
    44   1 H    0.992 --    25 C    0.963
 ---------------------------------------------------------------------------

molecular dipole:
                 x           y           z       tot (Debye)
 q only:        2.776       5.561       5.184
   full:        2.784       5.908       5.372      21.494

           -------------------------------------------------
          | TOTAL ENERGY              -81.094595438371 Eh   |
          | GRADIENT NORM               0.000323725934 Eh/α |
          | HOMO-LUMO GAP               3.541152044351 eV   |
           -------------------------------------------------

 * finished run on 2024/12/20 at 06:47:33.212
