   * xtb version 6.7.1 (edcfbbe) compiled by 'conda@3ef47c1a292c' on 2024-11-25

   ID    Z sym.   atoms
    1    6 C      1-4, 6-19
    2    7 N      5
    3    1 H      20-59

          program call               : xtb C0521.xyz --opt --namespace C0521 --charge +1
          :  Hamiltonian                  GFN2-xTB          :
 * total energy  :   -61.4697115 Eh     change       -0.4155822E-09 Eh
 * total energy  :   -61.4776068 Eh     change       -0.7895276E-02 Eh
 * total energy  :   -61.4797432 Eh     change       -0.2136454E-02 Eh
 * total energy  :   -61.4801380 Eh     change       -0.3947910E-03 Eh
 * total energy  :   -61.4805577 Eh     change       -0.4197463E-03 Eh
 * total energy  :   -61.4807386 Eh     change       -0.1808540E-03 Eh
 * total energy  :   -61.4809461 Eh     change       -0.2075100E-03 Eh
 * total energy  :   -61.4812022 Eh     change       -0.2560382E-03 Eh
 * total energy  :   -61.4815360 Eh     change       -0.3338531E-03 Eh
 * total energy  :   -61.4819415 Eh     change       -0.4054994E-03 Eh
 * total energy  :   -61.4898448 Eh     change       -0.7264144E-04 Eh
 * total energy  :   -61.4898824 Eh     change       -0.3763369E-04 Eh
 * total energy  :   -61.4899010 Eh     change       -0.1857449E-04 Eh
 * total energy  :   -61.4899186 Eh     change       -0.1756956E-04 Eh
 * total energy  :   -61.4899354 Eh     change       -0.1683452E-04 Eh
 * total energy  :   -61.4899468 Eh     change       -0.1140188E-04 Eh
 * total energy  :   -61.4899534 Eh     change       -0.6579411E-05 Eh
 * total energy  :   -61.4899589 Eh     change       -0.5487331E-05 Eh
 * total energy  :   -61.4899625 Eh     change       -0.3590294E-05 Eh
   *** GEOMETRY OPTIMIZATION CONVERGED AFTER 141 ITERATIONS ***

 final structure:
================
59
 xtb: 6.7.1 (edcfbbe)
C           -0.70760545308713        0.12376744797915       -0.94463788093087
C            0.29243611981848        0.03091514328948       -2.09205956253325
C           -0.35202574809935       -0.80142340963797        0.23138102064881
C            0.71448374168496       -0.28326474471397        1.22082982815671
N            0.52393344618967        0.99870794115451        1.99663872564249
C           -0.90126940494184        1.28242096936166        2.25818302577556
C            1.15990334443644        0.83041886154966        3.31991018353920
C            1.10992609023329        2.17662368303672        1.25635685550333
C            2.55827668206172        2.60472899480173        1.55359520653918
C            3.64665393945887        1.64960701700323        1.03546370768059
C            3.77913980435718        1.57461457272402       -0.48569946079026
C            4.79537377870043        0.52103706398547       -0.93367902465709
C            4.33187705555295       -0.91545356272871       -0.71630397815095
C            2.75271094869828        4.02037779272173        0.97564066654634
C            2.12605971043871        5.11730556037137        1.83020330849522
C           -1.61562427662433       -1.37390156029932        0.90126454063122
C           -2.16743180790702       -2.58687172038118        0.14054294286817
C           -1.36713739323561       -3.87547296864483        0.34013229408277
C           -1.50154410061045       -4.45651613370709        1.74308441230785
H           -1.68214318854783       -0.18127563741504       -1.32774396798589
H           -0.80931455347722        1.16417985704631       -0.63254423010621
H            1.30116546829850        0.28238382482583       -1.77329478544101
H            0.31009888188566       -0.97729175658498       -2.49802709538552
H            0.01269800823256        0.71077658252387       -2.89218922910374
H            0.16108151294145       -1.66454091748286       -0.21037673922588
H            0.84669200420229       -1.08097889080739        1.95469956680697
H            1.65307387536175       -0.17540874150184        0.67839709022519
H           -1.36313325919256        0.43667429763978        2.76047821201890
H           -0.98919517450026        2.15512603613675        2.90415973983058
H           -1.43281115567597        1.47745892967802        1.33166165707828
H            2.19972583391319        0.53128515847965        3.21668238885217
H            1.10912574088575        1.76303029928750        3.87877080421153
H            0.63138971341338        0.06498145930580        3.88621319663983
H            1.01309721964521        1.97869238459417        0.19033927555992
H            0.48402486942285        3.03764150867730        1.49305051727427
H            2.69616929047323        2.69797592926635        2.63381966970901
H            4.60114632778183        1.99484977360733        1.43800078082881
H            3.48878967507703        0.64693616346565        1.43690619794462
H            2.81556433264807        1.35263790547008       -0.94903706386480
H            4.10266828243418        2.54464866964348       -0.86313964732912
H            4.98828878090749        0.66403639055935       -1.99804128361336
H            5.73608922397403        0.68277345798448       -0.40518741621040
H            3.38835379781305       -1.09962588022621       -1.22799777907247
H            5.06906800576138       -1.60343301726479       -1.12003198918169
H            4.21183716470029       -1.14695388074272        0.34026560030160
H            3.82359161866576        4.21345986737498        0.91488146041778
H            2.35001975698433        4.07043171452441       -0.03671368786575
H            2.51451015943299        5.08384757177123        2.84553272417969
H            2.37007685645747        6.08908070397226        1.41117735457752
H            1.04125788502295        5.04411176194901        1.87154731260660
H           -1.39528361090922       -1.69128950775699        1.92132292369927
H           -2.40237657391217       -0.61981478396756        0.94152957392525
H           -3.19112486603268       -2.76564161838849        0.47287486972799
H           -2.20801713417377       -2.35403495115363       -0.92477719978372
H           -1.73461798856609       -4.61282504872128       -0.37480346362925
H           -0.31082372471297       -3.70880333761072        0.11549714624061
H           -2.54833915730628       -4.61648444891977        1.98901091959278
H           -0.98901079277126       -5.41281045766426        1.80158421478526
H           -1.06880958360758       -3.80099831957191        2.49619556932781

          :  Hamiltonian                  GFN2-xTB          :
         :: total energy             -61.489962481826 Eh    ::
         :: gradient norm              0.000484328286 Eh/a0 ::
         :: HOMO-LUMO gap              7.699514864183 eV    ::
         :: SCC energy               -62.384983537678 Eh    ::
         :: -> dispersion             -0.050990171401 Eh    ::
         :: repulsion energy           0.895021055852 Eh    ::

    * Orbital Energies and Occupations

         #    Occupation            Energy/Eh            Energy/eV
      -------------------------------------------------------------
         1        2.0000           -0.8490050             -23.1026
       ...           ...                  ...                  ...
        46        2.0000           -0.5582570             -15.1909
        47        2.0000           -0.5546245             -15.0921
        48        2.0000           -0.5517577             -15.0141
        49        2.0000           -0.5508761             -14.9901
        50        2.0000           -0.5495437             -14.9538
        51        2.0000           -0.5445316             -14.8175
        52        2.0000           -0.5433395             -14.7850
        53        2.0000           -0.5310194             -14.4498
        54        2.0000           -0.5281865             -14.3727
        55        2.0000           -0.5254442             -14.2981
        56        2.0000           -0.5217911             -14.1987
        57        2.0000           -0.5210639             -14.1789
        58        2.0000           -0.5171768             -14.0731 (HOMO)
        59                         -0.2342249              -6.3736 (LUMO)
        60                         -0.1726768              -4.6988
        61                         -0.1451808              -3.9506
        62                         -0.1431103              -3.8942
        63                         -0.0948209              -2.5802
        64                         -0.0682756              -1.8579
        65                         -0.0615121              -1.6738
        66                         -0.0573887              -1.5616
        67                         -0.0453032              -1.2328
        68                         -0.0381356              -1.0377
        69                         -0.0351836              -0.9574
       ...                                ...                  ...
       116                          0.2452601               6.6739
      -------------------------------------------------------------
                  HL-Gap            0.2829520 Eh            7.6995 eV

     #   Z          covCN         q      C6AA      α(0)
     1   6 C        3.800    -0.065    21.744     6.639
     2   6 C        3.751    -0.111    22.676     6.791
     3   6 C        3.848    -0.035    21.157     6.543
     4   6 C        3.749    -0.047    21.489     6.612
     5   7 N        3.617     0.126    19.094     6.490
     6   6 C        3.726    -0.092    22.359     6.752
     7   6 C        3.727    -0.089    22.301     6.742
     8   6 C        3.755    -0.048    21.487     6.609
     9   6 C        3.848    -0.031    21.098     6.533
    10   6 C        3.802    -0.071    21.855     6.656
    11   6 C        3.800    -0.063    21.706     6.633
    12   6 C        3.800    -0.060    21.651     6.625
    13   6 C        3.751    -0.104    22.559     6.773
    14   6 C        3.805    -0.068    21.793     6.646
    15   6 C        3.751    -0.112    22.714     6.797
    16   6 C        3.801    -0.073    21.897     6.662
    17   6 C        3.801    -0.065    21.755     6.641
    18   6 C        3.800    -0.058    21.611     6.619
    19   6 C        3.751    -0.106    22.579     6.776
    20   1 H        0.924     0.058     2.226     2.333
    21   1 H        0.924     0.025     2.663     2.552
    22   1 H        0.925     0.032     2.560     2.502
    23   1 H        0.925     0.048     2.350     2.397
    24   1 H        0.925     0.050     2.322     2.383
    25   1 H        0.924     0.077     2.011     2.218
    26   1 H        0.924     0.077     2.007     2.215
    27   1 H        0.925     0.094     1.844     2.123
    28   1 H        0.925     0.098     1.801     2.099
    29   1 H        0.925     0.088     1.898     2.155
    30   1 H        0.925     0.099     1.796     2.096
    31   1 H        0.925     0.097     1.814     2.106
    32   1 H        0.925     0.094     1.841     2.122
    33   1 H        0.925     0.090     1.880     2.144
    34   1 H        0.925     0.091     1.865     2.135
    35   1 H        0.924     0.083     1.948     2.183
    36   1 H        0.924     0.050     2.317     2.381
    37   1 H        0.924     0.052     2.295     2.369
    38   1 H        0.924     0.029     2.599     2.521
    39   1 H        0.924     0.025     2.663     2.552
    40   1 H        0.925     0.043     2.405     2.425
    41   1 H        0.924     0.044     2.393     2.419
    42   1 H        0.924     0.041     2.431     2.438
    43   1 H        0.925     0.030     2.584     2.514
    44   1 H        0.925     0.048     2.343     2.393
    45   1 H        0.925     0.026     2.639     2.540
    46   1 H        0.925     0.061     2.185     2.311
    47   1 H        0.924     0.044     2.393     2.419
    48   1 H        0.925     0.044     2.397     2.421
    49   1 H        0.925     0.058     2.224     2.332
    50   1 H        0.925     0.030     2.590     2.517
    51   1 H        0.924     0.037     2.485     2.465
    52   1 H        0.924     0.036     2.496     2.471
    53   1 H        0.924     0.048     2.346     2.395
    54   1 H        0.924     0.040     2.453     2.449
    55   1 H        0.924     0.045     2.387     2.416
    56   1 H        0.924     0.027     2.625     2.534
    57   1 H        0.925     0.043     2.408     2.427
    58   1 H        0.925     0.044     2.397     2.421
    59   1 H        0.925     0.024     2.671     2.556

Wiberg/Mayer (AO) data.
largest (>0.10) Wiberg bond orders for each atom

     #   Z sym  total        # sym  WBO       # sym  WBO       # sym  WBO
 ---------------------------------------------------------------------------
     1   6 C    3.994 --     2 C    1.019     3 C    0.995    20 H    0.970
                            21 H    0.968
     2   6 C    3.993 --     1 C    1.019    23 H    0.986    24 H    0.985
                            22 H    0.974
     3   6 C    3.980 --     1 C    0.995    16 C    0.993     4 C    0.992
                            25 H    0.944
     4   6 C    3.923 --     3 C    0.992    26 H    0.968    27 H    0.960
                             5 N    0.916
     5   7 N    3.805 --     7 C    0.964     6 C    0.963     8 C    0.918
                             4 C    0.916
     6   6 C    3.931 --    29 H    0.975    28 H    0.970    30 H    0.968
                             5 N    0.963
     7   6 C    3.935 --    33 H    0.974    32 H    0.973    31 H    0.972
                             5 N    0.964
     8   6 C    3.922 --     9 C    0.994    35 H    0.961    34 H    0.959
                             5 N    0.918
     9   6 C    3.985 --    10 C    0.994     8 C    0.994    14 C    0.985
                            36 H    0.961
    10   6 C    3.994 --    11 C    1.008     9 C    0.994    37 H    0.973
                            38 H    0.964
    11   6 C    3.996 --    10 C    1.008    12 C    1.005    40 H    0.976
                            39 H    0.963
    12   6 C    3.995 --    13 C    1.020    11 C    1.005    42 H    0.977
                            41 H    0.977
    13   6 C    3.996 --    12 C    1.020    43 H    0.986    44 H    0.985
                            45 H    0.985
    14   6 C    3.991 --    15 C    1.020     9 C    0.985    47 H    0.976
                            46 H    0.972
    15   6 C    3.994 --    14 C    1.020    48 H    0.986    49 H    0.984
                            50 H    0.983
    16   6 C    3.995 --    17 C    1.004     3 C    0.993    52 H    0.976
                            51 H    0.969
    17   6 C    3.994 --    18 C    1.009    16 C    1.004    53 H    0.975
                            54 H    0.974
    18   6 C    3.997 --    19 C    1.020    17 C    1.009    55 H    0.977
                            56 H    0.973
    19   6 C    3.996 --    18 C    1.020    57 H    0.987    58 H    0.986
                            59 H    0.985
    20   1 H    0.996 --     1 C    0.970
    21   1 H    0.999 --     1 C    0.968
    22   1 H    0.999 --     2 C    0.974
    23   1 H    0.998 --     2 C    0.986
    24   1 H    0.997 --     2 C    0.985
    25   1 H    0.994 --     3 C    0.944
    26   1 H    0.994 --     4 C    0.968
    27   1 H    0.991 --     4 C    0.960
    28   1 H    0.990 --     6 C    0.970
    29   1 H    0.992 --     6 C    0.975
    30   1 H    0.990 --     6 C    0.968
    31   1 H    0.991 --     7 C    0.972
    32   1 H    0.991 --     7 C    0.973
    33   1 H    0.992 --     7 C    0.974
    34   1 H    0.992 --     8 C    0.959
    35   1 H    0.993 --     8 C    0.961
    36   1 H    0.997 --     9 C    0.961
    37   1 H    0.997 --    10 C    0.973
    38   1 H    0.999 --    10 C    0.964
    39   1 H    0.999 --    11 C    0.963
    40   1 H    0.998 --    11 C    0.976
    41   1 H    0.998 --    12 C    0.977
    42   1 H    0.998 --    12 C    0.977
    43   1 H    0.999 --    13 C    0.986
    44   1 H    0.998 --    13 C    0.985
    45   1 H    0.999 --    13 C    0.985
    46   1 H    0.996 --    14 C    0.972
    47   1 H    0.998 --    14 C    0.976
    48   1 H    0.998 --    15 C    0.986
    49   1 H    0.996 --    15 C    0.984
    50   1 H    0.999 --    15 C    0.983
    51   1 H    0.998 --    16 C    0.969
    52   1 H    0.999 --    16 C    0.976
    53   1 H    0.997 --    17 C    0.975
    54   1 H    0.998 --    17 C    0.974
    55   1 H    0.998 --    18 C    0.977
    56   1 H    0.999 --    18 C    0.973
    57   1 H    0.998 --    19 C    0.987
    58   1 H    0.998 --    19 C    0.986
    59   1 H    0.999 --    19 C    0.985
 ---------------------------------------------------------------------------

molecular dipole:
                 x           y           z       tot (Debye)
 q only:        1.262       1.701       3.094
   full:        1.239       1.716       3.187       9.724

           -------------------------------------------------
          | TOTAL ENERGY              -61.489962481826 Eh   |
          | GRADIENT NORM               0.000484328286 Eh/α |
          | HOMO-LUMO GAP               7.699514864183 eV   |
           -------------------------------------------------

 * finished run on 2024/12/20 at 06:47:24.012
