   * xtb version 6.7.1 (edcfbbe) compiled by 'conda@3ef47c1a292c' on 2024-11-25

   ID    Z sym.   atoms
    1    6 C      1-13, 15
    2   15 P      14
    3    1 H      16-47

          program call               : xtb C0524.xyz --opt --namespace C0524 --charge +1
          :  Hamiltonian                  GFN2-xTB          :
 * total energy  :   -48.4101649 Eh     change       -0.1510685E-09 Eh
 * total energy  :   -48.4144681 Eh     change       -0.4303278E-02 Eh
 * total energy  :   -48.4152641 Eh     change       -0.7960008E-03 Eh
 * total energy  :   -48.4156162 Eh     change       -0.3520377E-03 Eh
 * total energy  :   -48.4159002 Eh     change       -0.2840461E-03 Eh
 * total energy  :   -48.4160718 Eh     change       -0.1715937E-03 Eh
 * total energy  :   -48.4162201 Eh     change       -0.1482594E-03 Eh
 * total energy  :   -48.4164059 Eh     change       -0.1858729E-03 Eh
 * total energy  :   -48.4166528 Eh     change       -0.2468798E-03 Eh
 * total energy  :   -48.4168377 Eh     change       -0.1849047E-03 Eh
 * total energy  :   -48.4169369 Eh     change       -0.1556063E-04 Eh
 * total energy  :   -48.4169561 Eh     change       -0.1917040E-04 Eh
 * total energy  :   -48.4169756 Eh     change       -0.1947427E-04 Eh
 * total energy  :   -48.4169994 Eh     change       -0.2387371E-04 Eh
 * total energy  :   -48.4170216 Eh     change       -0.2211558E-04 Eh
 * total energy  :   -48.4170331 Eh     change       -0.1155547E-04 Eh
 * total energy  :   -48.4170405 Eh     change       -0.7406850E-05 Eh
 * total energy  :   -48.4170467 Eh     change       -0.6229883E-05 Eh
 * total energy  :   -48.4170515 Eh     change       -0.4734026E-05 Eh
   *** GEOMETRY OPTIMIZATION CONVERGED AFTER 21 ITERATIONS ***

 final structure:
================
47
 xtb: 6.7.1 (edcfbbe)
C            0.98446020431106       -0.01417206157401       -0.55530921701740
C            0.90925998656196       -1.52660057793908       -0.38280761834208
C            1.23981093650017       -1.98858116820729        1.03724826117618
C            0.29431825047140       -1.46709108491433        2.12119171199412
C           -1.17179478978036       -1.86871551797997        1.94860025868100
C           -1.43115829289345       -3.37671813470121        1.92914924404901
C           -0.94621285832149       -4.13097535756920        3.16922568466114
C           -1.52393197857437       -3.63126248179934        4.49487772106862
C           -3.04917621033424       -3.69527033175842        4.59935736030363
C           -3.64358829396828       -5.09885470143846        4.45818071690940
C           -3.13355878182882       -6.11444460553341        5.48214680931809
C           -3.35832847915312       -5.71934240406154        6.94023710002934
C           -4.83451344254510       -5.46682160455129        7.26610441083563
P           -5.90636786069924       -6.82438033584746        6.72821587306370
C           -5.46902754457332       -8.41962943090263        7.43935590630934
H            0.21080640600041        0.48731166942646        0.02072637940147
H            0.85096951775524        0.25215782518090       -1.60112940939727
H            1.95325719793638        0.35775495347870       -0.22906833945615
H           -0.08452643604394       -1.87702727198085       -0.66773584263819
H            1.62435565054182       -1.99395223070557       -1.06400682075284
H            1.24924132878792       -3.08061012788331        1.05712386152981
H            2.25031360948005       -1.65312674944936        1.28370184810098
H            0.65634569665601       -1.82014062065085        3.08950193282223
H            0.34609061408138       -0.37723323914776        2.14281603909973
H           -1.74957511676351       -1.41042270977458        2.75495861046137
H           -1.54870118940817       -1.45018930173555        1.01393111002804
H           -2.50421300616885       -3.53867609542499        1.79821927907316
H           -0.93812309939480       -3.81124276255525        1.05805539021238
H           -1.17959875318754       -5.19106394326695        3.04131995820993
H            0.14019362253995       -4.05279437525909        3.22821461547789
H           -1.07397609023045       -4.20667177161507        5.30743983753319
H           -1.22435179582537       -2.59300569311379        4.64054033184527
H           -3.34821623939724       -3.25986367156030        5.55622205719106
H           -3.48274225496852       -3.06945560899649        3.81874423240853
H           -4.73594865364587       -5.02038321153612        4.52091430951080
H           -3.41234982326564       -5.47966079734466        3.46300256535037
H           -3.62544109320233       -7.08118342670281        5.29577243813422
H           -2.06585617216428       -6.26836923962163        5.32808110047308
H           -2.96720442369225       -6.50671364576001        7.58808018035817
H           -2.79990024275812       -4.81129903721392        7.16571111000707
H           -4.97692209312730       -5.35275686423211        8.34698735626548
H           -5.18947335847739       -4.55154285526621        6.78282428107648
H           -7.19200269278709       -6.52597156252971        7.12134462633688
H           -5.98853185081843       -6.92457985763353        5.36276181587422
H           -5.47230627628360       -8.34259552302155        8.52829615698080
H           -6.19307425235929       -9.17554204493631        7.13322379712846
H           -4.47510957499216       -8.72225041038986        7.10707096830670

          :  Hamiltonian                  GFN2-xTB          :
         :: total energy             -48.417051482463 Eh    ::
         :: gradient norm              0.000540508324 Eh/a0 ::
         :: HOMO-LUMO gap              3.478818105220 eV    ::
         :: SCC energy               -49.124966069097 Eh    ::
         :: -> dispersion             -0.037401316689 Eh    ::
         :: repulsion energy           0.707914586634 Eh    ::

    * Orbital Energies and Occupations

         #    Occupation            Energy/Eh            Energy/eV
      -------------------------------------------------------------
         1        2.0000           -0.8771491             -23.8684
       ...           ...                  ...                  ...
        34        2.0000           -0.5440980             -14.8057
        35        2.0000           -0.5386732             -14.6580
        36        2.0000           -0.5309659             -14.4483
        37        2.0000           -0.5281577             -14.3719
        38        2.0000           -0.5176641             -14.0864
        39        2.0000           -0.5136363             -13.9768
        40        2.0000           -0.5067007             -13.7880
        41        2.0000           -0.4968274             -13.5194
        42        2.0000           -0.4928622             -13.4115
        43        2.0000           -0.4887985             -13.3009
        44        2.0000           -0.4745367             -12.9128
        45        2.0000           -0.4704728             -12.8022
        46        2.0000           -0.4681607             -12.7393 (HOMO)
        47                         -0.3403164              -9.2605 (LUMO)
        48                         -0.3299065              -8.9772
        49                         -0.3277671              -8.9190
        50                         -0.1754728              -4.7749
        51                         -0.1498790              -4.0784
        52                         -0.1321899              -3.5971
        53                         -0.0627174              -1.7066
        54                         -0.0434581              -1.1826
        55                         -0.0386777              -1.0525
        56                         -0.0281186              -0.7651
        57                         -0.0094021              -0.2558
       ...                                ...                  ...
        97                          1.0567870              28.7566
      -------------------------------------------------------------
                  HL-Gap            0.1278442 Eh            3.4788 eV

     #   Z          covCN         q      C6AA      α(0)
     1   6 C        3.751    -0.103    22.522     6.768
     2   6 C        3.799    -0.052    21.518     6.605
     3   6 C        3.801    -0.058    21.615     6.619
     4   6 C        3.800    -0.058    21.619     6.620
     5   6 C        3.800    -0.058    21.611     6.619
     6   6 C        3.800    -0.058    21.618     6.620
     7   6 C        3.800    -0.059    21.642     6.624
     8   6 C        3.800    -0.061    21.680     6.629
     9   6 C        3.800    -0.061    21.680     6.629
    10   6 C        3.800    -0.063    21.704     6.633
    11   6 C        3.802    -0.067    21.781     6.645
    12   6 C        3.878    -0.070    21.783     6.636
    13   6 C        3.750    -0.075    21.993     6.688
    14  15 P        3.903     0.216   150.972    22.072
    15   6 C        3.700    -0.142    23.417     6.920
    16   1 H        0.925     0.034     2.537     2.491
    17   1 H        0.925     0.034     2.528     2.487
    18   1 H        0.925     0.036     2.507     2.476
    19   1 H        0.924     0.029     2.600     2.522
    20   1 H        0.924     0.029     2.594     2.519
    21   1 H        0.924     0.027     2.632     2.537
    22   1 H        0.924     0.032     2.564     2.504
    23   1 H        0.924     0.026     2.642     2.542
    24   1 H        0.924     0.036     2.506     2.476
    25   1 H        0.924     0.024     2.672     2.556
    26   1 H        0.924     0.037     2.494     2.470
    27   1 H        0.924     0.022     2.697     2.568
    28   1 H        0.924     0.038     2.474     2.460
    29   1 H        0.924     0.023     2.695     2.567
    30   1 H        0.924     0.042     2.428     2.437
    31   1 H        0.924     0.025     2.657     2.549
    32   1 H        0.924     0.046     2.368     2.406
    33   1 H        0.924     0.024     2.676     2.558
    34   1 H        0.924     0.050     2.324     2.384
    35   1 H        0.924     0.019     2.748     2.592
    36   1 H        0.924     0.056     2.242     2.341
    37   1 H        0.923     0.032     2.562     2.503
    38   1 H        0.925     0.074     2.043     2.235
    39   1 H        0.924     0.060     2.204     2.322
    40   1 H        0.925     0.086     1.914     2.164
    41   1 H        0.927     0.107     1.724     2.053
    42   1 H        0.927     0.118     1.633     1.998
    43   1 H        0.978     0.103     1.750     2.067
    44   1 H        0.978     0.117     1.636     1.999
    45   1 H        0.927     0.128     1.553     1.949
    46   1 H        0.927     0.128     1.549     1.946
    47   1 H        0.926     0.129     1.546     1.944

Wiberg/Mayer (AO) data.
largest (>0.10) Wiberg bond orders for each atom

     #   Z sym  total        # sym  WBO       # sym  WBO       # sym  WBO
 ---------------------------------------------------------------------------
     1   6 C    3.997 --     2 C    1.020    18 H    0.987    17 H    0.987
                            16 H    0.986
     2   6 C    3.998 --     1 C    1.020     3 C    1.008    20 H    0.978
                            19 H    0.976
     3   6 C    3.997 --     2 C    1.008     4 C    1.008    22 H    0.977
                            21 H    0.976
     4   6 C    3.997 --     5 C    1.008     3 C    1.008    23 H    0.975
                            24 H    0.975
     5   6 C    3.997 --     4 C    1.008     6 C    1.007    25 H    0.975
                            26 H    0.974
     6   6 C    3.997 --     5 C    1.007     7 C    1.007    27 H    0.976
                            28 H    0.974
     7   6 C    3.997 --     8 C    1.008     6 C    1.007    29 H    0.975
                            30 H    0.974
     8   6 C    3.995 --     7 C    1.008     9 C    1.007    31 H    0.975
                            32 H    0.973
     9   6 C    3.994 --     8 C    1.007    10 C    1.005    33 H    0.975
                            34 H    0.972
    10   6 C    3.994 --    11 C    1.007     9 C    1.005    36 H    0.972
                            35 H    0.963
    11   6 C    3.992 --    12 C    1.008    10 C    1.007    38 H    0.967
                            37 H    0.943
    12   6 C    3.981 --    11 C    1.008    13 C    0.980    39 H    0.970
                            40 H    0.962
    13   6 C    3.975 --    14 P    1.040    12 C    0.980    41 H    0.924
                            42 H    0.924
    14  15 P    4.310 --    15 C    1.094    13 C    1.040    43 H    0.908
                            44 H    0.898
    15   6 C    3.978 --    14 P    1.094    46 H    0.934    47 H    0.931
                            45 H    0.930
    16   1 H    0.999 --     1 C    0.986
    17   1 H    0.999 --     1 C    0.987
    18   1 H    0.999 --     1 C    0.987
    19   1 H    0.999 --     2 C    0.976
    20   1 H    0.999 --     2 C    0.978
    21   1 H    0.999 --     3 C    0.976
    22   1 H    0.999 --     3 C    0.977
    23   1 H    0.999 --     4 C    0.975
    24   1 H    0.999 --     4 C    0.975
    25   1 H    0.999 --     5 C    0.975
    26   1 H    0.999 --     5 C    0.974
    27   1 H    0.999 --     6 C    0.976
    28   1 H    0.999 --     6 C    0.974
    29   1 H    0.999 --     7 C    0.975
    30   1 H    0.998 --     7 C    0.974
    31   1 H    0.999 --     8 C    0.975
    32   1 H    0.998 --     8 C    0.973
    33   1 H    0.999 --     9 C    0.975
    34   1 H    0.997 --     9 C    0.972
    35   1 H    1.000 --    10 C    0.963
    36   1 H    0.997 --    10 C    0.972
    37   1 H    0.999 --    11 C    0.943
    38   1 H    0.995 --    11 C    0.967
    39   1 H    0.996 --    12 C    0.970
    40   1 H    0.992 --    12 C    0.962
    41   1 H    0.989 --    13 C    0.924
    42   1 H    0.986 --    13 C    0.924
    43   1 H    0.989 --    14 P    0.908
    44   1 H    0.986 --    14 P    0.898
    45   1 H    0.983 --    15 C    0.930
    46   1 H    0.983 --    15 C    0.934
    47   1 H    0.983 --    15 C    0.931
 ---------------------------------------------------------------------------

molecular dipole:
                 x           y           z       tot (Debye)
 q only:       -9.638     -12.541      12.664
   full:       -9.856     -12.594      12.713      51.927

           -------------------------------------------------
          | TOTAL ENERGY              -48.417051482463 Eh   |
          | GRADIENT NORM               0.000540508324 Eh/α |
          | HOMO-LUMO GAP               3.478818105220 eV   |
           -------------------------------------------------

 * finished run on 2024/12/20 at 06:47:28.087
