   * xtb version 6.7.1 (edcfbbe) compiled by 'conda@3ef47c1a292c' on 2024-11-25

   ID    Z sym.   atoms
    1    6 C      1-5, 7-18
    2    7 N      6
    3    1 H      19-42

          program call               : xtb C0525.xyz --opt --namespace C0525 --charge +1
          :  Hamiltonian                  GFN2-xTB          :
 * total energy  :   -51.0725006 Eh     change       -0.5665370E-09 Eh
 * total energy  :   -51.0790891 Eh     change       -0.6588459E-02 Eh
 * total energy  :   -51.0809862 Eh     change       -0.1897110E-02 Eh
 * total energy  :   -51.0814439 Eh     change       -0.4577280E-03 Eh
 * total energy  :   -51.0819902 Eh     change       -0.5463106E-03 Eh
 * total energy  :   -51.0823448 Eh     change       -0.3546198E-03 Eh
 * total energy  :   -51.0828188 Eh     change       -0.4739301E-03 Eh
 * total energy  :   -51.0832612 Eh     change       -0.4424064E-03 Eh
 * total energy  :   -51.0836051 Eh     change       -0.3438979E-03 Eh
 * total energy  :   -51.0838254 Eh     change       -0.2203178E-03 Eh
 * total energy  :   -51.0854800 Eh     change       -0.2976818E-04 Eh
 * total energy  :   -51.0855054 Eh     change       -0.2538660E-04 Eh
 * total energy  :   -51.0855230 Eh     change       -0.1759560E-04 Eh
 * total energy  :   -51.0855293 Eh     change       -0.6281052E-05 Eh
 * total energy  :   -51.0855410 Eh     change       -0.1168661E-04 Eh
 * total energy  :   -51.0855510 Eh     change       -0.1007643E-04 Eh
 * total energy  :   -51.0855605 Eh     change       -0.9479714E-05 Eh
 * total energy  :   -51.0855652 Eh     change       -0.4730539E-05 Eh
 * total energy  :   -51.0855693 Eh     change       -0.4050248E-05 Eh
   *** GEOMETRY OPTIMIZATION CONVERGED AFTER 42 ITERATIONS ***

 final structure:
================
42
 xtb: 6.7.1 (edcfbbe)
C            0.89223394263537        0.91796593960476       -0.66593824152518
C            0.32826547064494       -0.22851860836592       -1.03840152431826
C           -1.09714575552269       -0.36602358648926       -1.21323876278239
C           -1.73826030611144       -1.48528321338974       -1.58593526469253
C           -3.24171594164724       -1.47920188544438       -1.70162001857303
N           -3.77435679541740       -1.11873530059710       -3.06490112376561
C           -3.33704510994329       -2.11318012298437       -4.10444440814573
C           -3.96952519113357       -3.45951334871821       -3.95570792688323
C           -4.80991386545443       -3.96248310966736       -4.86317271102238
C           -5.45097562865651       -5.26404319508049       -4.83755921845899
C           -6.15760724118690       -5.67785197948125       -5.97035493334528
C           -6.78257056949410       -6.90883570202752       -6.00527170210105
C           -6.72243532376549       -7.74785053574767       -4.90463012776238
C           -6.03372268988448       -7.34735960130700       -3.76968673169345
C           -5.40239014193845       -6.12020145182529       -3.73396068969088
C           -5.24591127313554       -1.09190791444525       -3.00464668511961
C           -3.28837974609291        0.21449443883541       -3.45506288514191
C           -1.01926655519433       -2.78477841721691       -1.81567081678552
H            0.30718600338725        1.80340638614105       -0.47590018858887
H            1.95542270604677        1.01034000427042       -0.53527768065480
H            0.94079990018744       -1.09899153109031       -1.21909773788906
H           -1.66706787015091        0.53197112130625       -1.00871778852715
H           -3.64192025777267       -2.46169624561959       -1.44838058979744
H           -3.65783781801447       -0.74961553366483       -1.00318227818796
H           -3.60104928413503       -1.70080847166728       -5.08073722538203
H           -2.24940021011421       -2.18479331765834       -4.04053024778720
H           -3.68106603054327       -4.04376541997651       -3.09576978662910
H           -5.04488288388990       -3.36510921414073       -5.73724909950913
H           -6.20699201364748       -5.02711944931411       -6.83179503916367
H           -7.31882642932835       -7.21428277183702       -6.89048072690940
H           -7.21109429457061       -8.70936230950451       -4.92862456296839
H           -5.98921944084708       -7.99771883997582       -2.90916123702523
H           -4.87625472684637       -5.82619491049723       -2.83832967304898
H           -5.58039690477689       -0.35052644732991       -2.28161569075621
H           -5.65209907269598       -0.83929499962591       -3.98251976332333
H           -5.62670602040637       -2.07020826795227       -2.71648508028802
H           -3.59359460560305        0.95343026575990       -2.71647740339149
H           -2.20190949894508        0.21183356267216       -3.52134978733509
H           -3.70333322847891        0.49625509629091       -4.42092942769265
H           -0.27107237446354       -2.69485280487896       -2.60251176349310
H           -0.49556968063970       -3.08343404460500       -0.90838225162678
H           -1.70086324246049       -3.58746426274286       -2.07960119823261

          :  Hamiltonian                  GFN2-xTB          :
         :: total energy             -51.085569292959 Eh    ::
         :: gradient norm              0.000638167976 Eh/a0 ::
         :: HOMO-LUMO gap              3.171763509677 eV    ::
         :: SCC energy               -51.981672087200 Eh    ::
         :: -> dispersion             -0.037825020843 Eh    ::
         :: repulsion energy           0.896102794241 Eh    ::

    * Orbital Energies and Occupations

         #    Occupation            Energy/Eh            Energy/eV
      -------------------------------------------------------------
         1        2.0000           -0.8512007             -23.1623
       ...           ...                  ...                  ...
        36        2.0000           -0.5750685             -15.6484
        37        2.0000           -0.5735893             -15.6082
        38        2.0000           -0.5696511             -15.5010
        39        2.0000           -0.5638898             -15.3442
        40        2.0000           -0.5593978             -15.2220
        41        2.0000           -0.5566034             -15.1459
        42        2.0000           -0.5455583             -14.8454
        43        2.0000           -0.5359154             -14.5830
        44        2.0000           -0.5191882             -14.1278
        45        2.0000           -0.5132312             -13.9657
        46        2.0000           -0.4985679             -13.5667
        47        2.0000           -0.4972614             -13.5312
        48        2.0000           -0.4904308             -13.3453 (HOMO)
        49                         -0.3738706             -10.1735 (LUMO)
        50                         -0.3680211             -10.0144
        51                         -0.3155861              -8.5875
        52                         -0.2833602              -7.7106
        53                         -0.2642315              -7.1901
        54                         -0.2035950              -5.5401
        55                         -0.1758034              -4.7839
        56                         -0.1466082              -3.9894
        57                         -0.1344553              -3.6587
        58                         -0.1274003              -3.4667
        59                         -0.0530318              -1.4431
       ...                                ...                  ...
        96                          0.5850183              15.9192
      -------------------------------------------------------------
                  HL-Gap            0.1165602 Eh            3.1718 eV

     #   Z          covCN         q      C6AA      α(0)
     1   6 C        2.844    -0.072    29.797     8.946
     2   6 C        2.891    -0.030    28.753     8.791
     3   6 C        2.907    -0.042    29.039     8.836
     4   6 C        2.940    -0.012    28.320     8.728
     5   6 C        3.763    -0.039    21.315     6.581
     6   7 N        3.620     0.124    19.125     6.495
     7   6 C        3.764    -0.034    21.229     6.567
     8   6 C        2.889    -0.069    29.709     8.936
     9   6 C        2.902    -0.027    28.664     8.779
    10   6 C        2.971     0.009    27.819     8.651
    11   6 C        2.929    -0.028    28.690     8.784
    12   6 C        2.917    -0.023    28.571     8.765
    13   6 C        2.920    -0.018    28.449     8.747
    14   6 C        2.917    -0.024    28.603     8.770
    15   6 C        2.923    -0.030    28.757     8.794
    16   6 C        3.721    -0.089    22.325     6.748
    17   6 C        3.721    -0.091    22.354     6.753
    18   6 C        3.756    -0.120    22.845     6.815
    19   1 H        0.926     0.056     2.243     2.342
    20   1 H        0.926     0.064     2.156     2.296
    21   1 H        0.926     0.053     2.277     2.360
    22   1 H        0.925     0.042     2.419     2.432
    23   1 H        0.924     0.087     1.911     2.162
    24   1 H        0.924     0.078     2.001     2.212
    25   1 H        0.924     0.078     2.003     2.213
    26   1 H        0.924     0.091     1.872     2.140
    27   1 H        0.926     0.047     2.357     2.401
    28   1 H        0.925     0.046     2.373     2.409
    29   1 H        0.926     0.042     2.428     2.437
    30   1 H        0.926     0.051     2.307     2.375
    31   1 H        0.926     0.053     2.279     2.361
    32   1 H        0.926     0.048     2.344     2.394
    33   1 H        0.926     0.031     2.569     2.507
    34   1 H        0.925     0.092     1.861     2.133
    35   1 H        0.925     0.095     1.836     2.119
    36   1 H        0.925     0.098     1.803     2.100
    37   1 H        0.925     0.093     1.848     2.126
    38   1 H        0.925     0.099     1.795     2.095
    39   1 H        0.925     0.092     1.858     2.132
    40   1 H        0.925     0.059     2.207     2.323
    41   1 H        0.925     0.072     2.064     2.247
    42   1 H        0.925     0.048     2.343     2.394

Wiberg/Mayer (AO) data.
largest (>0.10) Wiberg bond orders for each atom

     #   Z sym  total        # sym  WBO       # sym  WBO       # sym  WBO
 ---------------------------------------------------------------------------
     1   6 C    3.978 --     2 C    1.866    20 H    0.977    19 H    0.974
                             4 C    0.138
     2   6 C    3.990 --     1 C    1.866     3 C    1.136    21 H    0.962
     3   6 C    3.989 --     4 C    1.769     2 C    1.136    22 H    0.960
     4   6 C    3.975 --     3 C    1.769    18 C    1.027     5 C    1.009
                             1 C    0.138
     5   6 C    3.929 --     4 C    1.009    24 H    0.965    23 H    0.962
                             6 N    0.906
     6   7 N    3.794 --    17 C    0.964    16 C    0.963     7 C    0.907
                             5 C    0.906
     7   6 C    3.928 --     8 C    1.025    25 H    0.965    26 H    0.955
                             6 N    0.907
     8   6 C    3.973 --     9 C    1.819     7 C    1.025    27 H    0.955
     9   6 C    3.985 --     8 C    1.819    10 C    1.111    28 H    0.960
    10   6 C    3.989 --    11 C    1.365    15 C    1.362     9 C    1.111
    11   6 C    3.987 --    12 C    1.459    10 C    1.365    29 H    0.968
                            14 C    0.102
    12   6 C    3.991 --    11 C    1.459    13 C    1.431    30 H    0.969
                            15 C    0.104
    13   6 C    3.987 --    12 C    1.431    14 C    1.423    31 H    0.970
    14   6 C    3.991 --    15 C    1.467    13 C    1.423    32 H    0.970
                            11 C    0.102
    15   6 C    3.991 --    14 C    1.467    10 C    1.362    33 H    0.966
                            12 C    0.104
    16   6 C    3.932 --    34 H    0.976    35 H    0.975    36 H    0.972
                             6 N    0.963
    17   6 C    3.933 --    39 H    0.975    37 H    0.974    38 H    0.972
                             6 N    0.964
    18   6 C    3.992 --     4 C    1.027    42 H    0.980    40 H    0.967
                            41 H    0.963
    19   1 H    0.997 --     1 C    0.974
    20   1 H    0.995 --     1 C    0.977
    21   1 H    0.997 --     2 C    0.962
    22   1 H    0.998 --     3 C    0.960
    23   1 H    0.991 --     5 C    0.962
    24   1 H    0.994 --     5 C    0.965
    25   1 H    0.994 --     7 C    0.965
    26   1 H    0.990 --     7 C    0.955
    27   1 H    0.998 --     8 C    0.955
    28   1 H    0.997 --     9 C    0.960
    29   1 H    0.998 --    11 C    0.968
    30   1 H    0.997 --    12 C    0.969
    31   1 H    0.997 --    13 C    0.970
    32   1 H    0.997 --    14 C    0.970
    33   1 H    0.999 --    15 C    0.966
    34   1 H    0.992 --    16 C    0.976
    35   1 H    0.990 --    16 C    0.975
    36   1 H    0.990 --    16 C    0.972
    37   1 H    0.990 --    17 C    0.974
    38   1 H    0.990 --    17 C    0.972
    39   1 H    0.991 --    17 C    0.975
    40   1 H    0.996 --    18 C    0.967
    41   1 H    0.995 --    18 C    0.963
    42   1 H    0.998 --    18 C    0.980
 ---------------------------------------------------------------------------

molecular dipole:
                 x           y           z       tot (Debye)
 q only:       -6.971      -3.123      -5.901
   full:       -6.999      -3.027      -5.903      24.512

           -------------------------------------------------
          | TOTAL ENERGY              -51.085569292959 Eh   |
          | GRADIENT NORM               0.000638167976 Eh/α |
          | HOMO-LUMO GAP               3.171763509677 eV   |
           -------------------------------------------------

 * finished run on 2024/12/20 at 06:47:29.792
