   * xtb version 6.7.1 (edcfbbe) compiled by 'conda@3ef47c1a292c' on 2024-11-25

   ID    Z sym.   atoms
    1   35 Br     1
    2    6 C      2-4, 6-11
    3    7 N      5
    4    1 H      12-24

          program call               : xtb C0528.xyz --opt --namespace C0528 --charge +1
          :  Hamiltonian                  GFN2-xTB          :
 * total energy  :   -32.5077870 Eh     change       -0.2522142E-09 Eh
 * total energy  :   -32.5109336 Eh     change       -0.3146519E-02 Eh
 * total energy  :   -32.5116891 Eh     change       -0.7555010E-03 Eh
 * total energy  :   -32.5118511 Eh     change       -0.1620582E-03 Eh
 * total energy  :   -32.5119691 Eh     change       -0.1179943E-03 Eh
 * total energy  :   -32.5120223 Eh     change       -0.5317562E-04 Eh
 * total energy  :   -32.5120626 Eh     change       -0.4035044E-04 Eh
 * total energy  :   -32.5120839 Eh     change       -0.2120909E-04 Eh
 * total energy  :   -32.5120929 Eh     change       -0.9093971E-05 Eh
 * total energy  :   -32.5120994 Eh     change       -0.6422091E-05 Eh
 * total energy  :   -32.5121029 Eh     change       -0.3496405E-05 Eh
   *** GEOMETRY OPTIMIZATION CONVERGED AFTER 11 ITERATIONS ***

 final structure:
================
24
 xtb: 6.7.1 (edcfbbe)
Br           0.47853310719325        0.78024529794633       -0.56267421272670
C            2.27322230368753        0.28844283327181        0.07659913284818
C            3.29247717648710        0.25050098484604       -1.05255347592674
C            3.36210906080781        1.54211743879487       -1.87778178812030
N            3.64400771986727        2.70956733312200       -1.05840796353046
C            2.67138671117079        3.57916211710512       -0.75618047389551
C            2.91383314494036        4.67173971816198        0.04373172290851
C            4.19178635184305        4.90051964117431        0.56242235647598
C            5.18395237412500        3.97136950955122        0.22280006703511
C            4.88314272660425        2.89976157250043       -0.58080843674538
C            4.49327145445477        6.07447714558265        1.40906148406566
H            2.53317607269260        1.01608029796174        0.84523076918559
H            2.17589106590409       -0.69425476545884        0.53401173790603
H            4.26682690236200        0.02231822350562       -0.61403411441245
H            3.04030539952830       -0.55524488007741       -1.74379124135208
H            4.14574307710347        1.44088257913620       -2.63195831510426
H            2.40757099680453        1.69504098304219       -2.38460962774718
H            1.68726118988431        3.38612821716075       -1.15808587168517
H            2.10525937880284        5.35065411791066        0.26466489302965
H            6.19157018177325        4.09466456890062        0.58775440531875
H            5.63497159861092        2.17660520650761       -0.86057742957924
H            4.95611730509055        6.85091415187400        0.79667754788444
H            3.59223273897775        6.49155642731602        1.84975422954671
H            5.20377196128412        5.82176128016419        2.19298460462094

          :  Hamiltonian                  GFN2-xTB          :
         :: total energy             -32.512102864926 Eh    ::
         :: gradient norm              0.000508585305 Eh/a0 ::
         :: HOMO-LUMO gap              1.943791353823 eV    ::
         :: SCC energy               -32.986032438835 Eh    ::
         :: -> dispersion             -0.020206102753 Eh    ::
         :: repulsion energy           0.473929573909 Eh    ::

    * Orbital Energies and Occupations

         #    Occupation            Energy/Eh            Energy/eV
      -------------------------------------------------------------
         1        2.0000           -0.9507805             -25.8721
       ...           ...                  ...                  ...
        18        2.0000           -0.6672614             -18.1571
        19        2.0000           -0.6523260             -17.7507
        20        2.0000           -0.6379038             -17.3582
        21        2.0000           -0.6276338             -17.0788
        22        2.0000           -0.6231275             -16.9562
        23        2.0000           -0.6203215             -16.8798
        24        2.0000           -0.6120093             -16.6536
        25        2.0000           -0.6103082             -16.6073
        26        2.0000           -0.6037812             -16.4297
        27        2.0000           -0.5951636             -16.1952
        28        2.0000           -0.5907111             -16.0741
        29        2.0000           -0.5247759             -14.2799
        30        2.0000           -0.5228130             -14.2265 (HOMO)
        31                         -0.4513800             -12.2827 (LUMO)
        32                         -0.4224401             -11.4952
        33                         -0.3378568              -9.1936
        34                         -0.3041619              -8.2767
        35                         -0.1747078              -4.7540
        36                         -0.1038163              -2.8250
        37                         -0.0999587              -2.7200
        38                         -0.0835749              -2.2742
        39                         -0.0764361              -2.0799
        40                         -0.0675612              -1.8384
        41                         -0.0619234              -1.6850
       ...                                ...                  ...
        62                          0.4402884              11.9809
      -------------------------------------------------------------
                  HL-Gap            0.0714330 Eh            1.9438 eV

     #   Z          covCN         q      C6AA      α(0)
     1  35 Br       0.964    -0.177   189.898    22.219
     2   6 C        3.738     0.010    20.489     6.459
     3   6 C        3.848    -0.069    21.782     6.638
     4   6 C        3.757    -0.040    21.336     6.586
     5   7 N        2.749     0.100    19.513     6.561
     6   6 C        2.887     0.029    27.351     8.574
     7   6 C        2.920    -0.026    28.655     8.778
     8   6 C        2.969     0.073    26.375     8.424
     9   6 C        2.920    -0.028    28.690     8.784
    10   6 C        2.889     0.027    27.394     8.581
    11   6 C        3.758    -0.134    23.136     6.857
    12   1 H        0.926     0.060     2.203     2.321
    13   1 H        0.926     0.086     1.920     2.167
    14   1 H        0.924     0.068     2.103     2.268
    15   1 H        0.924     0.094     1.844     2.124
    16   1 H        0.924     0.096     1.820     2.110
    17   1 H        0.924     0.111     1.689     2.032
    18   1 H        0.926     0.122     1.599     1.977
    19   1 H        0.926     0.105     1.743     2.064
    20   1 H        0.926     0.101     1.778     2.085
    21   1 H        0.926     0.102     1.769     2.080
    22   1 H        0.924     0.109     1.709     2.044
    23   1 H        0.925     0.089     1.891     2.150
    24   1 H        0.925     0.093     1.846     2.125

Wiberg/Mayer (AO) data.
largest (>0.10) Wiberg bond orders for each atom

     #   Z sym  total        # sym  WBO       # sym  WBO       # sym  WBO
 ---------------------------------------------------------------------------
     1  35 Br   1.038 --     2 C    0.972
     2   6 C    3.958 --     3 C    1.019    12 H    0.976    13 H    0.972
                             1 Br   0.972
     3   6 C    3.986 --     2 C    1.019     4 C    0.988    15 H    0.965
                            14 H    0.964
     4   6 C    3.938 --     3 C    0.988     5 N    0.966    16 H    0.958
                            17 H    0.958
     5   7 N    3.754 --     6 C    1.315    10 C    1.303     4 C    0.966
     6   6 C    3.954 --     7 C    1.484     5 N    1.315    18 H    0.948
     7   6 C    3.983 --     6 C    1.484     8 C    1.369    19 H    0.958
     8   6 C    3.969 --     7 C    1.369     9 C    1.354    11 C    1.066
     9   6 C    3.984 --    10 C    1.503     8 C    1.354    20 H    0.959
    10   6 C    3.961 --     9 C    1.503     5 N    1.303    21 H    0.956
    11   6 C    3.983 --     8 C    1.066    23 H    0.973    24 H    0.960
                            22 H    0.927
    12   1 H    0.996 --     2 C    0.976
    13   1 H    0.992 --     2 C    0.972
    14   1 H    0.995 --     3 C    0.964
    15   1 H    0.990 --     3 C    0.965
    16   1 H    0.990 --     4 C    0.958
    17   1 H    0.987 --     4 C    0.958
    18   1 H    0.985 --     6 C    0.948
    19   1 H    0.989 --     7 C    0.958
    20   1 H    0.989 --     9 C    0.959
    21   1 H    0.989 --    10 C    0.956
    22   1 H    0.987 --    11 C    0.927
    23   1 H    0.992 --    11 C    0.973
    24   1 H    0.991 --    11 C    0.960
 ---------------------------------------------------------------------------

molecular dipole:
                 x           y           z       tot (Debye)
 q only:        7.902       6.229      -0.690
   full:        8.141       5.800      -0.422      25.428

           -------------------------------------------------
          | TOTAL ENERGY              -32.512102864926 Eh   |
          | GRADIENT NORM               0.000508585305 Eh/α |
          | HOMO-LUMO GAP               1.943791353823 eV   |
           -------------------------------------------------

 * finished run on 2024/12/20 at 06:47:34.221
