   * xtb version 6.7.1 (edcfbbe) compiled by 'conda@3ef47c1a292c' on 2024-11-25

   ID    Z sym.   atoms
    1    6 C      1-6, 8-17
    2    7 N      7
    3    1 H      18-53

          program call               : xtb C0523.xyz --opt --namespace C0523 --charge +1
          :  Hamiltonian                  GFN2-xTB          :
 * total energy  :   -55.1475286 Eh     change       -0.1113634E-09 Eh
 * total energy  :   -55.1551054 Eh     change       -0.7576827E-02 Eh
 * total energy  :   -55.1570592 Eh     change       -0.1953779E-02 Eh
 * total energy  :   -55.1572383 Eh     change       -0.1791223E-03 Eh
 * total energy  :   -55.1574632 Eh     change       -0.2248323E-03 Eh
 * total energy  :   -55.1576482 Eh     change       -0.1850230E-03 Eh
 * total energy  :   -55.1579531 Eh     change       -0.3048870E-03 Eh
 * total energy  :   -55.1583362 Eh     change       -0.3831806E-03 Eh
 * total energy  :   -55.1588244 Eh     change       -0.4881093E-03 Eh
 * total energy  :   -55.1593383 Eh     change       -0.5139299E-03 Eh
 * total energy  :   -55.1636478 Eh     change       -0.9340895E-05 Eh
 * total energy  :   -55.1636552 Eh     change       -0.7348360E-05 Eh
 * total energy  :   -55.1636631 Eh     change       -0.7934803E-05 Eh
 * total energy  :   -55.1636708 Eh     change       -0.7674942E-05 Eh
 * total energy  :   -55.1636770 Eh     change       -0.6179867E-05 Eh
 * total energy  :   -55.1636826 Eh     change       -0.5592606E-05 Eh
 * total energy  :   -55.1636884 Eh     change       -0.5881709E-05 Eh
 * total energy  :   -55.1636942 Eh     change       -0.5794298E-05 Eh
 * total energy  :   -55.1636989 Eh     change       -0.4624694E-05 Eh
   *** GEOMETRY OPTIMIZATION CONVERGED AFTER 56 ITERATIONS ***

 final structure:
================
53
 xtb: 6.7.1 (edcfbbe)
C           -0.16239592200823       -0.40269413193885        0.76893816451373
C           -0.34879471950491        0.44166770296692       -0.48574753410804
C            0.73626428740907        0.20844865393248       -1.53857346050317
C            0.82331478863132       -1.22255847116202       -2.07666451187174
C           -0.45826692750788       -1.74420154767023       -2.73922841690514
C           -0.89109142444818       -0.96613526050908       -3.99084056020624
N           -0.62655415056122       -1.61763351223408       -5.30641306364194
C           -1.28279170911205       -2.97123194804541       -5.40453706505936
C           -2.67860146358734       -3.16639502317366       -4.80225654260257
C           -3.88524791601811       -2.56554770463618       -5.53092892966157
C           -4.07481814797420       -3.03474420157821       -6.97705676988651
C           -4.22880617717475       -4.54810080516574       -7.14806271276994
C           -5.43381065210748       -5.12104551054994       -6.41214733290178
C           -1.15813745424022       -0.76596209519505       -6.42841334387704
C           -1.16460938987502        0.74586562738553       -6.24093607023777
C            0.83886966377879       -1.86571087375383       -5.49726316701882
C            1.72638624577653       -0.64365128175175       -5.67067179093454
H           -0.29599284966722       -1.46185052073948        0.56309968850418
H           -0.88955694349285       -0.11424086957208        1.52304933454418
H            0.83205696897137       -0.25360485099005        1.18192538181973
H           -1.33705482743068        0.25541606624453       -0.91207764879048
H           -0.31625028308946        1.49597928084586       -0.20538070848151
H            0.58065944221142        0.91510405554935       -2.35873172562671
H            1.70368201332012        0.44953612604784       -1.09428658157675
H            1.66290119654128       -1.27651620743835       -2.77238091085375
H            1.05756870739285       -1.88904842534233       -1.24651391874874
H           -0.32816932745222       -2.80400368521708       -2.95613505140305
H           -1.26135516511298       -1.67735062273562       -2.00510446449142
H           -1.96152568925541       -0.76527895863841       -3.95461967580690
H           -0.37575296489991       -0.00798137337822       -3.99324334592087
H           -1.30598439196441       -3.23866928615864       -6.46234410122308
H           -0.62291237285897       -3.68300803126665       -4.90559332624593
H           -2.82097505504004       -4.24863105342569       -4.77963205584682
H           -2.69434824301463       -2.83704086020574       -3.76405041798896
H           -4.76963415525654       -2.85612050686672       -4.96281556775956
H           -3.85672970885882       -1.47316371997915       -5.50560315800938
H           -4.97539642723737       -2.55293055629424       -7.36246887134119
H           -3.24374189469541       -2.70096335874255       -7.60516490197094
H           -4.34376188470395       -4.74888668687140       -8.21486449368322
H           -3.32173493995078       -5.06195158440319       -6.82166804868158
H           -6.33987914042132       -4.59193293576416       -6.69674531768915
H           -5.55921435786714       -6.16977654651967       -6.66739704481703
H           -5.31636447376803       -5.05159104618159       -5.33349415526143
H           -0.57674659942967       -1.01876840216420       -7.31710304007747
H           -2.18679902073842       -1.07065937152358       -6.60583796633096
H           -0.19096725218666        1.16122407822095       -6.00681320406065
H           -1.48645007881072        1.18192283241418       -7.18427861578882
H           -1.87549291937359        1.06102019102196       -5.48254912418250
H            1.18541265178893       -2.43252362192353       -4.63262157508025
H            0.94588156505052       -2.49987175484752       -6.38071154395655
H            1.65376406359320        0.04726791379784       -4.83608010512644
H            2.75579965538960       -0.99261969199298       -5.71301407141951
H            1.52732577076230       -0.11573563184193       -6.59797655891827

          :  Hamiltonian                  GFN2-xTB          :
         :: total energy             -55.163698868387 Eh    ::
         :: gradient norm              0.000237964967 Eh/a0 ::
         :: HOMO-LUMO gap              7.734794379353 eV    ::
         :: SCC energy               -55.966292944095 Eh    ::
         :: -> dispersion             -0.044378833700 Eh    ::
         :: repulsion energy           0.802594075708 Eh    ::

    * Orbital Energies and Occupations

         #    Occupation            Energy/Eh            Energy/eV
      -------------------------------------------------------------
         1        2.0000           -0.8441364             -22.9701
       ...           ...                  ...                  ...
        40        2.0000           -0.5813205             -15.8185
        41        2.0000           -0.5691553             -15.4875
        42        2.0000           -0.5648306             -15.3698
        43        2.0000           -0.5592366             -15.2176
        44        2.0000           -0.5572647             -15.1639
        45        2.0000           -0.5533925             -15.0586
        46        2.0000           -0.5499965             -14.9662
        47        2.0000           -0.5329151             -14.5014
        48        2.0000           -0.5287095             -14.3869
        49        2.0000           -0.5255745             -14.3016
        50        2.0000           -0.5219356             -14.2026
        51        2.0000           -0.5203027             -14.1582
        52        2.0000           -0.5170922             -14.0708 (HOMO)
        53                         -0.2328437              -6.3360 (LUMO)
        54                         -0.1712742              -4.6606
        55                         -0.1541802              -4.1955
        56                         -0.1483948              -4.0380
        57                         -0.0744565              -2.0261
        58                         -0.0621986              -1.6925
        59                         -0.0537312              -1.4621
        60                         -0.0458381              -1.2473
        61                         -0.0347995              -0.9469
        62                         -0.0332521              -0.9048
        63                         -0.0283384              -0.7711
       ...                                ...                  ...
       104                          0.2127080               5.7881
      -------------------------------------------------------------
                  HL-Gap            0.2842485 Eh            7.7348 eV

     #   Z          covCN         q      C6AA      α(0)
     1   6 C        3.752    -0.108    22.634     6.785
     2   6 C        3.799    -0.057    21.596     6.617
     3   6 C        3.800    -0.063    21.704     6.633
     4   6 C        3.800    -0.069    21.819     6.651
     5   6 C        3.799    -0.071    21.868     6.658
     6   6 C        3.748    -0.036    21.286     6.581
     7   7 N        3.615     0.100    19.517     6.561
     8   6 C        3.760    -0.035    21.248     6.571
     9   6 C        3.799    -0.075    21.936     6.669
    10   6 C        3.799    -0.067    21.792     6.647
    11   6 C        3.800    -0.064    21.725     6.636
    12   6 C        3.799    -0.057    21.603     6.618
    13   6 C        3.751    -0.109    22.648     6.787
    14   6 C        3.752    -0.034    21.243     6.573
    15   6 C        3.750    -0.128    23.018     6.842
    16   6 C        3.760    -0.028    21.118     6.551
    17   6 C        3.751    -0.124    22.942     6.831
    18   1 H        0.925     0.034     2.535     2.490
    19   1 H        0.925     0.045     2.389     2.417
    20   1 H        0.925     0.044     2.400     2.423
    21   1 H        0.924     0.026     2.646     2.544
    22   1 H        0.924     0.042     2.424     2.435
    23   1 H        0.924     0.020     2.735     2.586
    24   1 H        0.924     0.049     2.333     2.389
    25   1 H        0.924     0.034     2.532     2.489
    26   1 H        0.925     0.058     2.222     2.331
    27   1 H        0.925     0.047     2.361     2.403
    28   1 H        0.925     0.068     2.105     2.269
    29   1 H        0.925     0.079     1.988     2.205
    30   1 H        0.925     0.095     1.833     2.117
    31   1 H        0.924     0.080     1.975     2.198
    32   1 H        0.924     0.073     2.050     2.239
    33   1 H        0.924     0.076     2.019     2.222
    34   1 H        0.925     0.057     2.236     2.338
    35   1 H        0.924     0.062     2.173     2.305
    36   1 H        0.924     0.028     2.613     2.528
    37   1 H        0.924     0.049     2.332     2.388
    38   1 H        0.924     0.019     2.754     2.595
    39   1 H        0.924     0.042     2.417     2.431
    40   1 H        0.924     0.026     2.642     2.542
    41   1 H        0.925     0.044     2.392     2.418
    42   1 H        0.925     0.046     2.371     2.408
    43   1 H        0.925     0.035     2.522     2.483
    44   1 H        0.924     0.077     2.014     2.219
    45   1 H        0.925     0.095     1.829     2.115
    46   1 H        0.925     0.067     2.122     2.278
    47   1 H        0.925     0.079     1.987     2.205
    48   1 H        0.925     0.062     2.171     2.304
    49   1 H        0.924     0.085     1.933     2.174
    50   1 H        0.924     0.073     2.049     2.238
    51   1 H        0.925     0.065     2.138     2.287
    52   1 H        0.925     0.078     1.997     2.210
    53   1 H        0.925     0.066     2.127     2.280

Wiberg/Mayer (AO) data.
largest (>0.10) Wiberg bond orders for each atom

     #   Z sym  total        # sym  WBO       # sym  WBO       # sym  WBO
 ---------------------------------------------------------------------------
     1   6 C    3.995 --     2 C    1.021    20 H    0.987    19 H    0.986
                            18 H    0.986
     2   6 C    3.997 --     1 C    1.021     3 C    1.007    22 H    0.977
                            21 H    0.976
     3   6 C    3.995 --     4 C    1.008     2 C    1.007    24 H    0.974
                            23 H    0.972
     4   6 C    3.993 --     3 C    1.008     5 C    1.005    25 H    0.973
                            26 H    0.972
     5   6 C    3.987 --     4 C    1.005     6 C    1.001    27 H    0.967
                            28 H    0.967
     6   6 C    3.930 --     5 C    1.001    29 H    0.967    30 H    0.954
                             7 N    0.933
     7   7 N    3.796 --    16 C    0.934     6 C    0.933    14 C    0.926
                             8 C    0.925
     8   6 C    3.934 --     9 C    1.005    32 H    0.966    31 H    0.965
                             7 N    0.925
     9   6 C    3.983 --    10 C    1.006     8 C    1.005    34 H    0.969
                            33 H    0.960
    10   6 C    3.993 --    11 C    1.007     9 C    1.006    36 H    0.970
                            35 H    0.969
    11   6 C    3.995 --    12 C    1.007    10 C    1.007    37 H    0.975
                            38 H    0.972
    12   6 C    3.997 --    13 C    1.021    11 C    1.007    39 H    0.977
                            40 H    0.976
    13   6 C    3.995 --    12 C    1.021    41 H    0.987    42 H    0.986
                            43 H    0.986
    14   6 C    3.934 --    15 C    1.023    44 H    0.969    45 H    0.956
                             7 N    0.926
    15   6 C    3.983 --    14 C    1.023    48 H    0.983    46 H    0.978
                            47 H    0.973
    16   6 C    3.940 --    17 C    1.022    50 H    0.969    49 H    0.962
                             7 N    0.934
    17   6 C    3.983 --    16 C    1.022    53 H    0.980    51 H    0.977
                            52 H    0.973
    18   1 H    0.999 --     1 C    0.986
    19   1 H    0.998 --     1 C    0.986
    20   1 H    0.998 --     1 C    0.987
    21   1 H    0.999 --     2 C    0.976
    22   1 H    0.998 --     2 C    0.977
    23   1 H    1.000 --     3 C    0.972
    24   1 H    0.998 --     3 C    0.974
    25   1 H    0.999 --     4 C    0.973
    26   1 H    0.996 --     4 C    0.972
    27   1 H    0.998 --     5 C    0.967
    28   1 H    0.995 --     5 C    0.967
    29   1 H    0.994 --     6 C    0.967
    30   1 H    0.991 --     6 C    0.954
    31   1 H    0.993 --     8 C    0.965
    32   1 H    0.994 --     8 C    0.966
    33   1 H    0.994 --     9 C    0.960
    34   1 H    0.997 --     9 C    0.969
    35   1 H    0.996 --    10 C    0.969
    36   1 H    0.999 --    10 C    0.970
    37   1 H    0.998 --    11 C    0.975
    38   1 H    1.000 --    11 C    0.972
    39   1 H    0.998 --    12 C    0.977
    40   1 H    0.999 --    12 C    0.976
    41   1 H    0.998 --    13 C    0.987
    42   1 H    0.998 --    13 C    0.986
    43   1 H    0.999 --    13 C    0.986
    44   1 H    0.994 --    14 C    0.969
    45   1 H    0.991 --    14 C    0.956
    46   1 H    0.995 --    15 C    0.978
    47   1 H    0.993 --    15 C    0.973
    48   1 H    0.996 --    15 C    0.983
    49   1 H    0.993 --    16 C    0.962
    50   1 H    0.995 --    16 C    0.969
    51   1 H    0.996 --    17 C    0.977
    52   1 H    0.994 --    17 C    0.973
    53   1 H    0.996 --    17 C    0.980
 ---------------------------------------------------------------------------

molecular dipole:
                 x           y           z       tot (Debye)
 q only:       -1.468      -2.946      -9.610
   full:       -1.422      -3.026      -9.704      26.089

           -------------------------------------------------
          | TOTAL ENERGY              -55.163698868387 Eh   |
          | GRADIENT NORM               0.000237964967 Eh/α |
          | HOMO-LUMO GAP               7.734794379353 eV   |
           -------------------------------------------------

 * finished run on 2024/12/20 at 06:47:26.688
