   * xtb version 6.7.1 (edcfbbe) compiled by 'conda@3ef47c1a292c' on 2024-11-25

   ID    Z sym.   atoms
    1    7 N      1, 5
    2    6 C      2-4, 6-11
    3    1 H      12-22

          program call               : xtb C0527.xyz --opt --namespace C0527 --charge +1
          :  Hamiltonian                  GFN2-xTB          :
 * total energy  :   -30.2439229 Eh     change       -0.1474980E-08 Eh
 * total energy  :   -30.2761143 Eh     change       -0.3219138E-01 Eh
 * total energy  :   -30.2775490 Eh     change       -0.1434672E-02 Eh
 * total energy  :   -30.2778427 Eh     change       -0.2936662E-03 Eh
 * total energy  :   -30.2779724 Eh     change       -0.1297881E-03 Eh
 * total energy  :   -30.2780807 Eh     change       -0.1082632E-03 Eh
 * total energy  :   -30.2781631 Eh     change       -0.8242984E-04 Eh
 * total energy  :   -30.2782429 Eh     change       -0.7980237E-04 Eh
 * total energy  :   -30.2783067 Eh     change       -0.6371338E-04 Eh
 * total energy  :   -30.2783551 Eh     change       -0.4848398E-04 Eh
 * total energy  :   -30.2783992 Eh     change       -0.2687846E-04 Eh
 * total energy  :   -30.2784222 Eh     change       -0.2295552E-04 Eh
 * total energy  :   -30.2784529 Eh     change       -0.3074944E-04 Eh
 * total energy  :   -30.2784780 Eh     change       -0.2509134E-04 Eh
 * total energy  :   -30.2785008 Eh     change       -0.2283310E-04 Eh
 * total energy  :   -30.2785140 Eh     change       -0.1312135E-04 Eh
 * total energy  :   -30.2785151 Eh     change       -0.1134537E-05 Eh
 * total energy  :   -30.2785203 Eh     change       -0.5219477E-05 Eh
 * total energy  :   -30.2785229 Eh     change       -0.2549936E-05 Eh
   *** GEOMETRY OPTIMIZATION CONVERGED AFTER 20 ITERATIONS ***

 final structure:
================
22
 xtb: 6.7.1 (edcfbbe)
N            1.33048301293989        0.63782001379923        0.32198115697330
C            2.42213716882838        0.32026737465109        0.22468269180164
C            3.81952738939972        0.00565112122878        0.03348168154087
C            4.31948388867088        0.61106968493705       -1.29168307694978
N            4.01084008354771        2.03287598040275       -1.34626578012880
C            2.84835195790657        2.43579515064543       -1.86833455029284
C            2.49917270461158        3.77256122034875       -1.85399160356825
C            3.36339692001227        4.69683128720928       -1.29411198586503
C            4.58144986771736        4.27083262624056       -0.75228378784672
C            4.85895156252176        2.91412037094568       -0.79969608619676
C            5.53612361343653        5.23518498606723       -0.14686536372079
H            4.38389481216645        0.39681626097656        0.88398931205487
H            3.94364089100645       -1.07890067486932        0.00778571762464
H            5.39862308751698        0.46843236169898       -1.37617850036473
H            3.83108894974919        0.11242446195896       -2.13183278782465
H            2.19814238037182        1.68674302551221       -2.29331123888774
H            1.55620177202555        4.07779585319691       -2.27778232131482
H            3.10577489791602        5.74481548644374       -1.27347969430524
H            5.78225185779801        2.52377884480198       -0.39573286307577
H            5.80805435812281        5.99953747035299       -0.87311651948438
H            5.06784655701770        5.74601388152609        0.69337628087980
H            6.43981226671534        4.74464321192606        0.20134931895145

          :  Hamiltonian                  GFN2-xTB          :
         :: total energy             -30.278522860709 Eh    ::
         :: gradient norm              0.000506092074 Eh/a0 ::
         :: HOMO-LUMO gap              2.678318689115 eV    ::
         :: SCC energy               -30.826978288563 Eh    ::
         :: -> dispersion             -0.017373379675 Eh    ::
         :: repulsion energy           0.548455427853 Eh    ::

    * Orbital Energies and Occupations

         #    Occupation            Energy/Eh            Energy/eV
      -------------------------------------------------------------
         1        2.0000           -0.8849270             -24.0801
       ...           ...                  ...                  ...
        16        2.0000           -0.6757706             -18.3887
        17        2.0000           -0.6664245             -18.1343
        18        2.0000           -0.6647492             -18.0887
        19        2.0000           -0.6492396             -17.6667
        20        2.0000           -0.6459381             -17.5769
        21        2.0000           -0.6302826             -17.1509
        22        2.0000           -0.6266292             -17.0514
        23        2.0000           -0.6236060             -16.9692
        24        2.0000           -0.6107865             -16.6203
        25        2.0000           -0.6085075             -16.5583
        26        2.0000           -0.6027757             -16.4024
        27        2.0000           -0.5924016             -16.1201
        28        2.0000           -0.5604279             -15.2500 (HOMO)
        29                         -0.4620015             -12.5717 (LUMO)
        30                         -0.4256558             -11.5827
        31                         -0.3488868              -9.4937
        32                         -0.3407010              -9.2709
        33                         -0.3090324              -8.4092
        34                         -0.1880413              -5.1169
        35                         -0.0859556              -2.3390
        36                         -0.0674088              -1.8343
        37                         -0.0621416              -1.6910
        38                         -0.0445896              -1.2133
        39                         -0.0212924              -0.5794
       ...                                ...                  ...
        55                          1.0097034              27.4754
      -------------------------------------------------------------
                  HL-Gap            0.0984264 Eh            2.6783 eV

     #   Z          covCN         q      C6AA      α(0)
     1   7 N        0.911    -0.193    25.192     7.259
     2   6 C        1.899     0.109    28.419     8.610
     3   6 C        3.804    -0.064    21.724     6.635
     4   6 C        3.765    -0.024    21.048     6.539
     5   7 N        2.748     0.100    19.515     6.561
     6   6 C        2.890     0.031    27.309     8.568
     7   6 C        2.913    -0.010    28.262     8.717
     8   6 C        2.930     0.001    28.001     8.678
     9   6 C        2.961     0.051    26.844     8.498
    10   6 C        2.896     0.017    27.627     8.618
    11   6 C        3.759    -0.135    23.139     6.858
    12   1 H        0.924     0.094     1.842     2.123
    13   1 H        0.924     0.114     1.661     2.016
    14   1 H        0.924     0.098     1.804     2.100
    15   1 H        0.924     0.098     1.799     2.098
    16   1 H        0.926     0.111     1.686     2.030
    17   1 H        0.926     0.112     1.676     2.025
    18   1 H        0.926     0.107     1.721     2.051
    19   1 H        0.926     0.102     1.771     2.081
    20   1 H        0.925     0.100     1.788     2.091
    21   1 H        0.925     0.101     1.780     2.086
    22   1 H        0.925     0.079     1.988     2.205

Wiberg/Mayer (AO) data.
largest (>0.10) Wiberg bond orders for each atom

     #   Z sym  total        # sym  WBO       # sym  WBO       # sym  WBO
 ---------------------------------------------------------------------------
     1   7 N    3.023 --     2 C    2.870
     2   6 C    3.952 --     1 N    2.870     3 C    1.047
     3   6 C    3.987 --     2 C    1.047     4 C    0.964    12 H    0.944
                            13 H    0.936
     4   6 C    3.943 --     5 N    0.968     3 C    0.964    15 H    0.964
                            14 H    0.962
     5   7 N    3.758 --     6 C    1.330    10 C    1.314     4 C    0.968
     6   6 C    3.956 --     7 C    1.438     5 N    1.330    16 H    0.954
     7   6 C    3.980 --     8 C    1.451     6 C    1.438    17 H    0.958
     8   6 C    3.973 --     7 C    1.451     9 C    1.362    18 H    0.960
     9   6 C    3.980 --    10 C    1.423     8 C    1.362    11 C    1.048
    10   6 C    3.957 --     9 C    1.423     5 N    1.314    19 H    0.954
    11   6 C    3.981 --     9 C    1.048    22 H    0.980    20 H    0.951
                            21 H    0.949
    12   1 H    0.991 --     3 C    0.944
    13   1 H    0.986 --     3 C    0.936
    14   1 H    0.990 --     4 C    0.962
    15   1 H    0.990 --     4 C    0.964
    16   1 H    0.987 --     6 C    0.954
    17   1 H    0.987 --     7 C    0.958
    18   1 H    0.988 --     8 C    0.960
    19   1 H    0.990 --    10 C    0.954
    20   1 H    0.990 --    11 C    0.951
    21   1 H    0.990 --    11 C    0.949
    22   1 H    0.993 --    11 C    0.980
 ---------------------------------------------------------------------------

molecular dipole:
                 x           y           z       tot (Debye)
 q only:        8.325       5.195      -2.205
   full:        8.749       4.979      -2.273      26.231

           -------------------------------------------------
          | TOTAL ENERGY              -30.278522860709 Eh   |
          | GRADIENT NORM               0.000506092074 Eh/α |
          | HOMO-LUMO GAP               2.678318689115 eV   |
           -------------------------------------------------

 * finished run on 2024/12/20 at 06:47:33.711
