   * xtb version 6.7.1 (edcfbbe) compiled by 'conda@3ef47c1a292c' on 2024-11-25

   ID    Z sym.   atoms
    1    6 C      1-3, 5-8
    2    7 N      4
    3    1 H      9-26

          program call               : xtb C0529.xyz --opt --namespace C0529 --charge +1
          :  Hamiltonian                  GFN2-xTB          :
 * total energy  :   -26.6868561 Eh     change       -0.7152323E-10 Eh
 * total energy  :   -26.6888217 Eh     change       -0.1965571E-02 Eh
 * total energy  :   -26.6892230 Eh     change       -0.4013274E-03 Eh
 * total energy  :   -26.6892606 Eh     change       -0.3761055E-04 Eh
 * total energy  :   -26.6892988 Eh     change       -0.3822633E-04 Eh
 * total energy  :   -26.6893221 Eh     change       -0.2325799E-04 Eh
 * total energy  :   -26.6893792 Eh     change       -0.5707935E-04 Eh
 * total energy  :   -26.6894218 Eh     change       -0.4257114E-04 Eh
 * total energy  :   -26.6894371 Eh     change       -0.1536087E-04 Eh
 * total energy  :   -26.6894522 Eh     change       -0.1504340E-04 Eh
 * total energy  :   -26.6894668 Eh     change       -0.1464426E-04 Eh
 * total energy  :   -26.6894790 Eh     change       -0.1219034E-04 Eh
 * total energy  :   -26.6894885 Eh     change       -0.9463717E-05 Eh
 * total energy  :   -26.6894958 Eh     change       -0.7367755E-05 Eh
 * total energy  :   -26.6895028 Eh     change       -0.6977613E-05 Eh
 * total energy  :   -26.6895098 Eh     change       -0.7024824E-05 Eh
 * total energy  :   -26.6895155 Eh     change       -0.5681337E-05 Eh
 * total energy  :   -26.6895191 Eh     change       -0.3630203E-05 Eh
   *** GEOMETRY OPTIMIZATION CONVERGED AFTER 18 ITERATIONS ***

 final structure:
================
26
 xtb: 6.7.1 (edcfbbe)
C            1.16004825616987       -0.08619463157201        0.07290908323839
C            0.56231808629868       -0.24292899702678        1.46807286507702
C            0.90192393254986        0.92169296525855        2.39544323829232
N            0.49667468851619        2.24335169098914        1.84478610118267
C           -0.98225696132393        2.41271901998609        1.72263906349580
C           -1.71775366727614        2.41039084702390        3.05137038839406
C            1.14072797805840        3.36950246258111        2.58024563270006
C            2.57027765268616        3.59734494784467        2.11963371706504
H            0.67476264697510        0.70259691412982       -0.50154292015309
H            1.02692049161363       -1.00894439048943       -0.48401949608884
H            2.22797593162097        0.11484135093252        0.12554839952349
H           -0.51624560948574       -0.38714668180142        1.39913207431441
H            0.97140110451056       -1.14230739994502        1.92970746918467
H            0.42689238732301        0.79065078322310        3.36768309744816
H            1.98279945782736        0.94787181185572        2.54364039624049
H            0.87067563274615        2.26330743203639        0.88726779327465
H           -1.15851107534432        3.36004258397159        1.20792326465747
H           -1.36310375784722        1.61032529828879        1.08960006257756
H           -1.36114646099489        3.19197176267826        3.71544228690429
H           -2.77041279192270        2.59761866275044        2.85732054634237
H           -1.64759096538967        1.45209522782771        3.55704041267868
H            0.55767083248593        4.27368510577172        2.39638557089629
H            1.11101447382317        3.14859430847407        3.64792257355599
H            2.60870946505533        3.82451054542987        1.05620084063603
H            2.98319718885734        4.44847236708399        2.65374915913310
H            3.21219108246732        2.74421601269701        2.32158837942887

          :  Hamiltonian                  GFN2-xTB          :
         :: total energy             -26.689519139962 Eh    ::
         :: gradient norm              0.000227871611 Eh/a0 ::
         :: HOMO-LUMO gap              9.391079765118 eV    ::
         :: SCC energy               -27.076693989612 Eh    ::
         :: -> dispersion             -0.016009915238 Eh    ::
         :: repulsion energy           0.387174849650 Eh    ::

    * Orbital Energies and Occupations

         #    Occupation            Energy/Eh            Energy/eV
      -------------------------------------------------------------
         1        2.0000           -0.8661371             -23.5688
       ...           ...                  ...                  ...
        13        2.0000           -0.6740308             -18.3413
        14        2.0000           -0.6639738             -18.0676
        15        2.0000           -0.6494971             -17.6737
        16        2.0000           -0.6433725             -17.5071
        17        2.0000           -0.6345657             -17.2674
        18        2.0000           -0.6313306             -17.1794
        19        2.0000           -0.6222667             -16.9327
        20        2.0000           -0.6147846             -16.7291
        21        2.0000           -0.6092519             -16.5786
        22        2.0000           -0.6074433             -16.5294
        23        2.0000           -0.5990654             -16.3014
        24        2.0000           -0.5904116             -16.0659
        25        2.0000           -0.5833558             -15.8739 (HOMO)
        26                         -0.2382400              -6.4828 (LUMO)
        27                         -0.1563439              -4.2543
        28                         -0.1461766              -3.9777
        29                         -0.1265523              -3.4437
        30                         -0.0680545              -1.8519
        31                         -0.0551449              -1.5006
        32                         -0.0481556              -1.3104
        33                         -0.0399357              -1.0867
        34                         -0.0307972              -0.8380
        35                         -0.0169152              -0.4603
        36                         -0.0014757              -0.0402
       ...                                ...                  ...
        50                          0.1539741               4.1898
      -------------------------------------------------------------
                  HL-Gap            0.3451158 Eh            9.3911 eV

     #   Z          covCN         q      C6AA      α(0)
     1   6 C        3.751    -0.122    22.905     6.825
     2   6 C        3.800    -0.074    21.924     6.667
     3   6 C        3.741    -0.037    21.304     6.585
     4   7 N        3.576     0.031    20.694     6.756
     5   6 C        3.738    -0.028    21.163     6.564
     6   6 C        3.751    -0.131    23.075     6.850
     7   6 C        3.741    -0.031    21.209     6.571
     8   6 C        3.752    -0.133    23.117     6.857
     9   1 H        0.925     0.035     2.516     2.480
    10   1 H        0.925     0.074     2.039     2.233
    11   1 H        0.925     0.053     2.287     2.365
    12   1 H        0.924     0.061     2.187     2.313
    13   1 H        0.924     0.080     1.976     2.198
    14   1 H        0.925     0.091     1.872     2.140
    15   1 H        0.924     0.090     1.879     2.143
    16   1 H        0.859     0.233     0.950     1.527
    17   1 H        0.924     0.083     1.947     2.182
    18   1 H        0.924     0.092     1.859     2.132
    19   1 H        0.925     0.068     2.107     2.270
    20   1 H        0.925     0.088     1.902     2.157
    21   1 H        0.925     0.069     2.094     2.263
    22   1 H        0.924     0.092     1.858     2.132
    23   1 H        0.924     0.094     1.844     2.124
    24   1 H        0.925     0.065     2.147     2.291
    25   1 H        0.925     0.091     1.871     2.139
    26   1 H        0.925     0.067     2.123     2.279

Wiberg/Mayer (AO) data.
largest (>0.10) Wiberg bond orders for each atom

     #   Z sym  total        # sym  WBO       # sym  WBO       # sym  WBO
 ---------------------------------------------------------------------------
     1   6 C    3.991 --     2 C    1.019    11 H    0.985     9 H    0.980
                            10 H    0.980
     2   6 C    3.986 --     1 C    1.019     3 C    1.007    12 H    0.971
                            13 H    0.966
     3   6 C    3.926 --     2 C    1.007    14 H    0.965    15 H    0.963
                             4 N    0.933
     4   7 N    3.764 --     3 C    0.933     7 C    0.932     5 C    0.931
                            16 H    0.899
     5   6 C    3.929 --     6 C    1.025    17 H    0.968    18 H    0.964
                             4 N    0.931
     6   6 C    3.981 --     5 C    1.025    19 H    0.981    21 H    0.979
                            20 H    0.973
     7   6 C    3.929 --     8 C    1.024    23 H    0.968    22 H    0.966
                             4 N    0.932
     8   6 C    3.982 --     7 C    1.024    24 H    0.981    26 H    0.979
                            25 H    0.973
     9   1 H    0.999 --     1 C    0.980
    10   1 H    0.994 --     1 C    0.980
    11   1 H    0.997 --     1 C    0.985
    12   1 H    0.996 --     2 C    0.971
    13   1 H    0.993 --     2 C    0.966
    14   1 H    0.992 --     3 C    0.965
    15   1 H    0.992 --     3 C    0.963
    16   1 H    0.945 --     4 N    0.899
    17   1 H    0.993 --     5 C    0.968
    18   1 H    0.991 --     5 C    0.964
    19   1 H    0.995 --     6 C    0.981
    20   1 H    0.992 --     6 C    0.973
    21   1 H    0.995 --     6 C    0.979
    22   1 H    0.991 --     7 C    0.966
    23   1 H    0.991 --     7 C    0.968
    24   1 H    0.996 --     8 C    0.981
    25   1 H    0.991 --     8 C    0.973
    26   1 H    0.996 --     8 C    0.979
 ---------------------------------------------------------------------------

molecular dipole:
                 x           y           z       tot (Debye)
 q only:        0.937       4.004       3.690
   full:        0.972       4.050       3.551      13.911

           -------------------------------------------------
          | TOTAL ENERGY              -26.689519139962 Eh   |
          | GRADIENT NORM               0.000227871611 Eh/α |
          | HOMO-LUMO GAP               9.391079765118 eV   |
           -------------------------------------------------

 * finished run on 2024/12/20 at 06:47:34.755
