   * xtb version 6.7.1 (edcfbbe) compiled by 'conda@3ef47c1a292c' on 2024-11-25

   ID    Z sym.   atoms
    1    6 C      1-10, 12, 13, 15-17
    2    7 N      11, 14
    3    1 H      18-46

          program call               : xtb C0520.xyz --opt --namespace C0520 --charge +1
          :  Hamiltonian                  GFN2-xTB          :
 * total energy  :   -52.4155486 Eh     change       -0.4600764E-10 Eh
 * total energy  :   -52.4199872 Eh     change       -0.4438565E-02 Eh
 * total energy  :   -52.4208045 Eh     change       -0.8173249E-03 Eh
 * total energy  :   -52.4209245 Eh     change       -0.1200261E-03 Eh
 * total energy  :   -52.4210304 Eh     change       -0.1058647E-03 Eh
 * total energy  :   -52.4210562 Eh     change       -0.2578914E-04 Eh
 * total energy  :   -52.4210802 Eh     change       -0.2397894E-04 Eh
 * total energy  :   -52.4210969 Eh     change       -0.1669204E-04 Eh
 * total energy  :   -52.4211027 Eh     change       -0.5809286E-05 Eh
 * total energy  :   -52.4211097 Eh     change       -0.7057967E-05 Eh
 * total energy  :   -52.4211156 Eh     change       -0.5822367E-05 Eh
 * total energy  :   -52.4211234 Eh     change       -0.7890943E-05 Eh
 * total energy  :   -52.4211316 Eh     change       -0.8145110E-05 Eh
 * total energy  :   -52.4211364 Eh     change       -0.4784027E-05 Eh
   *** GEOMETRY OPTIMIZATION CONVERGED AFTER 14 ITERATIONS ***

 final structure:
================
46
 xtb: 6.7.1 (edcfbbe)
C            1.10499088048580        0.33592739192060        0.10713918984560
C            0.83331844289268        0.61309353316522       -1.36635487868742
C            1.27664361518987       -0.52505463965442       -2.28697384937590
C            0.56703204301704       -1.86039244808586       -2.05156049933436
C           -0.95656559910398       -1.81692361737440       -2.18516145621298
C           -1.47222821574238       -1.31544792680904       -3.53519299734064
C           -1.00234298469012       -2.12019390369923       -4.74956429321611
C           -1.34461861568189       -3.61181732603032       -4.70954916537108
C           -2.83352736066155       -3.93073870510584       -4.57148096817268
C           -3.67370809565893       -3.53160729774417       -5.78986968492482
N           -3.31468802835944       -4.31719342559648       -6.95119772090526
C           -3.57916834276189       -5.65378709210985       -7.05600047001681
C           -3.04210784264952       -6.08635281053519       -8.22436945615333
N           -2.45423545153141       -5.00895068360994       -8.82006064990867
C           -2.63125229232316       -3.93565603329419       -8.03568407650939
C           -2.15151362701668       -2.58029692662167       -8.37248683704858
C           -1.75988554876124       -5.02586644344847      -10.08063596247141
H            0.50235137750933       -0.49242358589910        0.47093413296468
H            0.86621121836170        1.21306375014128        0.70366338479760
H            2.15399772642550        0.09349581404682        0.26148497009838
H           -0.22960085917279        0.81724812869511       -1.50849875100218
H            1.37723869386317        1.51382311704086       -1.66040287812803
H            1.13266296920795       -0.21239396907921       -3.32402759510624
H            2.34807521631090       -0.68670474654112       -2.14622953873112
H            0.97531884751131       -2.59297027551599       -2.75235051050407
H            0.80587404368762       -2.21653061483218       -1.04838316977328
H           -1.34753246776927       -2.81873674276139       -1.99158245050065
H           -1.36244968459376       -1.16528611670785       -1.41014143507570
H           -2.56471388748870       -1.29995828803737       -3.50446715252557
H           -1.14799245373411       -0.28351343768004       -3.67627828328211
H           -1.42726241791181       -1.65972192262834       -5.64513380510317
H            0.08165659711680       -2.03184368410694       -4.83253408071497
H           -0.94990428159529       -4.09133634600943       -5.61098667685851
H           -0.82943604398920       -4.06307052416678       -3.86185573970930
H           -2.95087831454808       -5.00167851386095       -4.39513043031996
H           -3.23810854703727       -3.41076987703079       -3.70464597154596
H           -4.73099579218754       -3.70951528864134       -5.57769924459875
H           -3.53586724018027       -2.47427377855711       -6.01059015644913
H           -4.12651676766885       -6.18929833013912       -6.30850001494650
H           -3.03706498217198       -7.06214802526996       -8.66379425816940
H           -1.10743739468389       -2.45471450821922       -8.08158221851193
H           -2.22195865834365       -2.41250305485941       -9.44529696038852
H           -2.73842764676538       -1.81813122114168       -7.86775636423185
H           -2.29902197543394       -4.43774350075795      -10.82508812092526
H           -0.75544089680716       -4.61734382075174       -9.96807258222062
H           -1.68679935455542       -6.05168228209537      -10.43366032273405

          :  Hamiltonian                  GFN2-xTB          :
         :: total energy             -52.421136373189 Eh    ::
         :: gradient norm              0.000367609116 Eh/a0 ::
         :: HOMO-LUMO gap              2.397044904701 eV    ::
         :: SCC energy               -53.212997924963 Eh    ::
         :: -> dispersion             -0.038277466720 Eh    ::
         :: repulsion energy           0.791861551774 Eh    ::

    * Orbital Energies and Occupations

         #    Occupation            Energy/Eh            Energy/eV
      -------------------------------------------------------------
         1        2.0000           -0.8856582             -24.1000
       ...           ...                  ...                  ...
        37        2.0000           -0.5657351             -15.3944
        38        2.0000           -0.5588061             -15.2059
        39        2.0000           -0.5535915             -15.0640
        40        2.0000           -0.5488133             -14.9340
        41        2.0000           -0.5386450             -14.6573
        42        2.0000           -0.5330915             -14.5062
        43        2.0000           -0.5257542             -14.3065
        44        2.0000           -0.5140265             -13.9874
        45        2.0000           -0.5080617             -13.8251
        46        2.0000           -0.5044317             -13.7263
        47        2.0000           -0.4873741             -13.2621
        48        2.0000           -0.4837522             -13.1636
        49        2.0000           -0.4805374             -13.0761 (HOMO)
        50                         -0.3924476             -10.6790 (LUMO)
        51                         -0.3597549              -9.7894
        52                         -0.1813827              -4.9357
        53                         -0.1258986              -3.4259
        54                         -0.0646595              -1.7595
        55                         -0.0581884              -1.5834
        56                         -0.0529978              -1.4421
        57                         -0.0300619              -0.8180
        58                         -0.0237327              -0.6458
        59                         -0.0184992              -0.5034
        60                         -0.0066460              -0.1808
       ...                                ...                  ...
        97                          0.4791683              13.0388
      -------------------------------------------------------------
                  HL-Gap            0.0880898 Eh            2.3970 eV

     #   Z          covCN         q      C6AA      α(0)
     1   6 C        3.751    -0.104    22.543     6.771
     2   6 C        3.799    -0.053    21.529     6.606
     3   6 C        3.800    -0.058    21.620     6.620
     4   6 C        3.800    -0.059    21.631     6.622
     5   6 C        3.800    -0.060    21.655     6.626
     6   6 C        3.800    -0.061    21.674     6.629
     7   6 C        3.800    -0.062    21.693     6.631
     8   6 C        3.800    -0.063    21.704     6.633
     9   6 C        3.802    -0.070    21.843     6.654
    10   6 C        3.741    -0.023    21.054     6.546
    11   7 N        2.868     0.044    20.465     6.719
    12   6 C        3.057    -0.009    28.194     8.708
    13   6 C        3.045    -0.011    28.238     8.716
    14   7 N        2.873     0.045    20.460     6.718
    15   6 C        3.102     0.106    25.538     8.281
    16   6 C        3.754    -0.134    23.134     6.858
    17   6 C        3.692    -0.080    22.216     6.745
    18   1 H        0.925     0.034     2.526     2.485
    19   1 H        0.925     0.036     2.498     2.472
    20   1 H        0.925     0.037     2.490     2.468
    21   1 H        0.924     0.029     2.598     2.521
    22   1 H        0.924     0.031     2.574     2.509
    23   1 H        0.924     0.024     2.674     2.557
    24   1 H        0.924     0.034     2.533     2.489
    25   1 H        0.924     0.024     2.677     2.559
    26   1 H        0.924     0.040     2.453     2.449
    27   1 H        0.924     0.026     2.650     2.546
    28   1 H        0.924     0.042     2.417     2.431
    29   1 H        0.924     0.024     2.674     2.557
    30   1 H        0.924     0.045     2.390     2.417
    31   1 H        0.924     0.017     2.777     2.606
    32   1 H        0.924     0.047     2.364     2.404
    33   1 H        0.924     0.017     2.772     2.604
    34   1 H        0.925     0.060     2.196     2.317
    35   1 H        0.924     0.050     2.320     2.382
    36   1 H        0.925     0.077     2.012     2.218
    37   1 H        0.924     0.081     1.965     2.192
    38   1 H        0.925     0.084     1.939     2.178
    39   1 H        0.927     0.102     1.762     2.076
    40   1 H        0.927     0.102     1.771     2.081
    41   1 H        0.924     0.105     1.744     2.065
    42   1 H        0.925     0.096     1.824     2.112
    43   1 H        0.925     0.093     1.851     2.128
    44   1 H        0.924     0.095     1.828     2.114
    45   1 H        0.925     0.097     1.813     2.106
    46   1 H        0.925     0.102     1.763     2.076

Wiberg/Mayer (AO) data.
largest (>0.10) Wiberg bond orders for each atom

     #   Z sym  total        # sym  WBO       # sym  WBO       # sym  WBO
 ---------------------------------------------------------------------------
     1   6 C    3.997 --     2 C    1.020    20 H    0.987    19 H    0.987
                            18 H    0.986
     2   6 C    3.998 --     1 C    1.020     3 C    1.008    22 H    0.978
                            21 H    0.976
     3   6 C    3.997 --     2 C    1.008     4 C    1.007    24 H    0.977
                            23 H    0.976
     4   6 C    3.997 --     5 C    1.008     3 C    1.007    25 H    0.976
                            26 H    0.975
     5   6 C    3.996 --     4 C    1.008     6 C    1.008    27 H    0.975
                            28 H    0.974
     6   6 C    3.996 --     5 C    1.008     7 C    1.007    29 H    0.975
                            30 H    0.973
     7   6 C    3.996 --     6 C    1.007     8 C    1.007    31 H    0.974
                            32 H    0.973
     8   6 C    3.994 --     9 C    1.008     7 C    1.007    33 H    0.977
                            34 H    0.970
     9   6 C    3.984 --     8 C    1.008    10 C    0.985    35 H    0.974
                            36 H    0.964
    10   6 C    3.938 --     9 C    0.985    11 N    0.967    37 H    0.962
                            38 H    0.960
    11   7 N    3.697 --    15 C    1.333    12 C    1.209    10 C    0.967
    12   6 C    3.951 --    13 C    1.610    11 N    1.209    39 H    0.961
    13   6 C    3.949 --    12 C    1.610    14 N    1.210    40 H    0.962
    14   7 N    3.692 --    15 C    1.317    13 C    1.210    17 C    0.992
    15   6 C    3.952 --    11 N    1.333    14 N    1.317    16 C    1.047
    16   6 C    3.978 --    15 C    1.047    43 H    0.964    42 H    0.962
                            41 H    0.943
    17   6 C    3.939 --    14 N    0.992    46 H    0.975    45 H    0.967
                            44 H    0.963
    18   1 H    0.999 --     1 C    0.986
    19   1 H    0.999 --     1 C    0.987
    20   1 H    0.999 --     1 C    0.987
    21   1 H    0.999 --     2 C    0.976
    22   1 H    0.999 --     2 C    0.978
    23   1 H    0.999 --     3 C    0.976
    24   1 H    0.999 --     3 C    0.977
    25   1 H    0.999 --     4 C    0.976
    26   1 H    0.998 --     4 C    0.975
    27   1 H    0.999 --     5 C    0.975
    28   1 H    0.998 --     5 C    0.974
    29   1 H    0.999 --     6 C    0.975
    30   1 H    0.998 --     6 C    0.973
    31   1 H    1.000 --     7 C    0.974
    32   1 H    0.998 --     7 C    0.973
    33   1 H    1.000 --     8 C    0.977
    34   1 H    0.996 --     8 C    0.970
    35   1 H    0.997 --     9 C    0.974
    36   1 H    0.993 --     9 C    0.964
    37   1 H    0.993 --    10 C    0.962
    38   1 H    0.993 --    10 C    0.960
    39   1 H    0.989 --    12 C    0.961
    40   1 H    0.989 --    13 C    0.962
    41   1 H    0.989 --    16 C    0.943
    42   1 H    0.991 --    16 C    0.962
    43   1 H    0.991 --    16 C    0.964
    44   1 H    0.991 --    17 C    0.963
    45   1 H    0.990 --    17 C    0.967
    46   1 H    0.989 --    17 C    0.975
 ---------------------------------------------------------------------------

molecular dipole:
                 x           y           z       tot (Debye)
 q only:       -4.830      -7.927     -14.404
   full:       -4.901      -7.994     -14.502      43.895

           -------------------------------------------------
          | TOTAL ENERGY              -52.421136373189 Eh   |
          | GRADIENT NORM               0.000367609116 Eh/α |
          | HOMO-LUMO GAP               2.397044904701 eV   |
           -------------------------------------------------

 * finished run on 2024/12/20 at 06:47:18.385
