   * xtb version 6.7.1 (edcfbbe) compiled by 'conda@3ef47c1a292c' on 2024-11-25

   ID    Z sym.   atoms
    1    6 C      1, 3-7, 9
    2    7 N      2
    3    8 O      8
    4    1 H      10-19

          program call               : xtb C0522.xyz --opt --namespace C0522 --charge +1
          :  Hamiltonian                  GFN2-xTB          :
 * total energy  :   -26.6767474 Eh     change       -0.3015188E-10 Eh
 * total energy  :   -26.6799209 Eh     change       -0.3173545E-02 Eh
 * total energy  :   -26.6805406 Eh     change       -0.6196454E-03 Eh
 * total energy  :   -26.6805822 Eh     change       -0.4166372E-04 Eh
 * total energy  :   -26.6805957 Eh     change       -0.1348586E-04 Eh
 * total energy  :   -26.6805978 Eh     change       -0.2062633E-05 Eh
   *** GEOMETRY OPTIMIZATION CONVERGED AFTER 6 ITERATIONS ***

 final structure:
================
19
 xtb: 6.7.1 (edcfbbe)
C            0.88876422348008       -0.03419038640571       -0.04060369242906
N            0.62985280621737        0.46094549301928       -1.37472250398121
C            0.33845198026756       -0.38148213157402       -2.36610679265091
C            0.11498232393640        0.08177011001891       -3.64785210142278
C            0.18907492148422        1.43553153503200       -3.94176479421818
C            0.50608878351264        2.31233487864859       -2.87154278766631
C            0.71744168336691        1.78073363921916       -1.60902274981738
O            0.58191830853931        3.61159525218519       -3.13992996907407
C           -0.04221342593286        1.99097454730794       -5.29098622322867
H            0.45260204246940       -1.02239709887764        0.08734130609414
H            0.46345613609779        0.63800767555675        0.70306556906302
H            1.96501072679353       -0.10424988072040        0.13059223765173
H            0.28401507899188       -1.43274157131271       -2.12986410848883
H           -0.12195135676301       -0.62429733424667       -4.42769081491049
H            0.96128553062270        2.41526956364614       -0.76815766762413
H            0.79935495288293        4.15653770378380       -2.37116174106401
H           -0.82321406068065        2.75002697441345       -5.24979801479899
H            0.85630931567365        2.50243371386108       -5.63758629494512
H           -0.31700997095986        1.21916731644487       -6.00216885648874

          :  Hamiltonian                  GFN2-xTB          :
         :: total energy             -26.680597770849 Eh    ::
         :: gradient norm              0.000504938645 Eh/a0 ::
         :: HOMO-LUMO gap              3.342413626801 eV    ::
         :: SCC energy               -27.081695143813 Eh    ::
         :: -> dispersion             -0.013027143407 Eh    ::
         :: repulsion energy           0.401097372965 Eh    ::

    * Orbital Energies and Occupations

         #    Occupation            Energy/Eh            Energy/eV
      -------------------------------------------------------------
         1        2.0000           -0.8878520             -24.1597
       ...           ...                  ...                  ...
        12        2.0000           -0.7106980             -19.3391
        13        2.0000           -0.7020763             -19.1045
        14        2.0000           -0.6907475             -18.7962
        15        2.0000           -0.6750573             -18.3692
        16        2.0000           -0.6692709             -18.2118
        17        2.0000           -0.6490387             -17.6612
        18        2.0000           -0.6471632             -17.6102
        19        2.0000           -0.6362608             -17.3135
        20        2.0000           -0.6335065             -17.2386
        21        2.0000           -0.6139530             -16.7065
        22        2.0000           -0.5998381             -16.3224
        23        2.0000           -0.5959458             -16.2165
        24        2.0000           -0.5704948             -15.5240 (HOMO)
        25                         -0.4476633             -12.1815 (LUMO)
        26                         -0.4107505             -11.1771
        27                         -0.2970721              -8.0837
        28                         -0.1704707              -4.6387
        29                         -0.0993490              -2.7034
        30                         -0.0676409              -1.8406
        31                         -0.0484575              -1.3186
        32                         -0.0251851              -0.6853
        33                         -0.0119598              -0.3254
        34                          0.0013760               0.0374
        35                          0.0212982               0.5796
       ...                                ...                  ...
        46                          0.4527077              12.3188
      -------------------------------------------------------------
                  HL-Gap            0.1228314 Eh            3.3424 eV

     #   Z          covCN         q      C6AA      α(0)
     1   6 C        3.711    -0.093    22.413     6.766
     2   7 N        2.746     0.107    19.409     6.543
     3   6 C        2.887     0.016    27.658     8.622
     4   6 C        2.918    -0.032    28.794     8.799
     5   6 C        2.968     0.049    26.905     8.508
     6   6 C        2.844     0.161    24.512     8.114
     7   6 C        2.888    -0.026    28.643     8.774
     8   8 O        1.661    -0.323    19.408     5.947
     9   6 C        3.759    -0.131    23.059     6.846
    10   1 H        0.925     0.106     1.728     2.055
    11   1 H        0.925     0.106     1.729     2.056
    12   1 H        0.924     0.110     1.692     2.034
    13   1 H        0.926     0.108     1.717     2.049
    14   1 H        0.926     0.107     1.722     2.052
    15   1 H        0.925     0.096     1.823     2.112
    16   1 H        0.805     0.334     0.627     1.243
    17   1 H        0.925     0.109     1.707     2.043
    18   1 H        0.924     0.110     1.700     2.039
    19   1 H        0.925     0.085     1.928     2.172

Wiberg/Mayer (AO) data.
largest (>0.10) Wiberg bond orders for each atom

     #   Z sym  total        # sym  WBO       # sym  WBO       # sym  WBO
 ---------------------------------------------------------------------------
     1   6 C    3.931 --     2 N    0.985    10 H    0.972    11 H    0.968
                            12 H    0.955
     2   7 N    3.757 --     3 C    1.334     7 C    1.290     1 C    0.985
     3   6 C    3.958 --     4 C    1.439     2 N    1.334    13 H    0.955
     4   6 C    3.984 --     3 C    1.439     5 C    1.418    14 H    0.957
     5   6 C    3.978 --     4 C    1.418     6 C    1.248     9 C    1.069
     6   6 C    3.954 --     7 C    1.403     5 C    1.248     8 O    1.159
     7   6 C    3.959 --     6 C    1.403     2 N    1.290    15 H    0.955
     8   8 O    2.224 --     6 C    1.159    16 H    0.866
     9   6 C    3.981 --     5 C    1.069    19 H    0.979    17 H    0.939
                            18 H    0.935
    10   1 H    0.988 --     1 C    0.972
    11   1 H    0.988 --     1 C    0.968
    12   1 H    0.986 --     1 C    0.955
    13   1 H    0.988 --     3 C    0.955
    14   1 H    0.988 --     4 C    0.957
    15   1 H    0.990 --     7 C    0.955
    16   1 H    0.888 --     8 O    0.866
    17   1 H    0.987 --     9 C    0.939
    18   1 H    0.987 --     9 C    0.935
    19   1 H    0.992 --     9 C    0.979
 ---------------------------------------------------------------------------

molecular dipole:
                 x           y           z       tot (Debye)
 q only:        1.030       1.964      -4.050
   full:        1.110       2.006      -3.741      11.151

           -------------------------------------------------
          | TOTAL ENERGY              -26.680597770849 Eh   |
          | GRADIENT NORM               0.000504938645 Eh/α |
          | HOMO-LUMO GAP               3.342413626801 eV   |
           -------------------------------------------------

 * finished run on 2024/12/20 at 06:47:24.197
