   * xtb version 6.7.1 (edcfbbe) compiled by 'conda@3ef47c1a292c' on 2024-11-25

   ID    Z sym.   atoms
    1   35 Br     1
    2    6 C      2-8, 10, 12, 14-26
    3    8 O      9
    4    7 N      11, 13
    5    1 H      27-44

          program call               : xtb C0537.xyz --opt --namespace C0537 --charge +1
          :  Hamiltonian                  GFN2-xTB          :
 * total energy  :   -69.8832542 Eh     change       -0.3189086E-08 Eh
 * total energy  :   -69.8921286 Eh     change       -0.8874432E-02 Eh
 * total energy  :   -69.8940110 Eh     change       -0.1882370E-02 Eh
 * total energy  :   -69.8944777 Eh     change       -0.4667746E-03 Eh
 * total energy  :   -69.8947868 Eh     change       -0.3090428E-03 Eh
 * total energy  :   -69.8949900 Eh     change       -0.2031746E-03 Eh
 * total energy  :   -69.8951107 Eh     change       -0.1206927E-03 Eh
 * total energy  :   -69.8951937 Eh     change       -0.8308099E-04 Eh
 * total energy  :   -69.8952594 Eh     change       -0.6566404E-04 Eh
 * total energy  :   -69.8953194 Eh     change       -0.5998051E-04 Eh
 * total energy  :   -69.8961778 Eh     change       -0.6219601E-05 Eh
 * total energy  :   -69.8961830 Eh     change       -0.5216934E-05 Eh
 * total energy  :   -69.8961932 Eh     change       -0.1024838E-04 Eh
 * total energy  :   -69.8962068 Eh     change       -0.1355987E-04 Eh
 * total energy  :   -69.8962207 Eh     change       -0.1389499E-04 Eh
 * total energy  :   -69.8962329 Eh     change       -0.1214843E-04 Eh
 * total energy  :   -69.8962428 Eh     change       -0.9909273E-05 Eh
 * total energy  :   -69.8962491 Eh     change       -0.6309177E-05 Eh
 * total energy  :   -69.8962539 Eh     change       -0.4841114E-05 Eh
   *** GEOMETRY OPTIMIZATION CONVERGED AFTER 52 ITERATIONS ***

 final structure:
================
44
 xtb: 6.7.1 (edcfbbe)
Br          -1.49596252845417       -0.88949586079934       -1.23597797461238
C            0.32984999280246       -0.58364358133890       -0.83502738011831
C            0.78448985280374        0.71267108066179       -0.62237388180195
C            2.11295592047678        0.91772278297690       -0.32268548304604
C            3.00776744734667       -0.15704109459570       -0.23000489549900
C            2.53196796524700       -1.45295749597994       -0.45700803246448
C            1.20235209206028       -1.66425346970684       -0.75527716238641
C            4.40090768773067        0.16146597081194        0.10675009262017
O            4.80144038343188        1.28218808325530        0.30032314100185
C            5.38272291418874       -1.02514805403648        0.26904282744682
N            5.03644011912963       -1.79898539175254        1.43526145354592
C            4.66502363736736       -1.28333841754190        2.60452241133444
N            4.38962211215085       -2.23532125631896        3.48722697137001
C            4.60309716042028       -3.45189738414163        2.87557961536166
C            5.01664433995858       -3.17304698861010        1.55684392459038
C            5.31842451191017       -4.19408705487477        0.66252947961005
C            5.19214564563197       -5.48750449801495        1.12360582617536
C            4.78111854962251       -5.76545223361033        2.43120029376465
C            4.48101006639036       -4.76167073617584        3.32745325270514
C            4.00326413825206       -1.99904991530366        4.86565693334262
C            5.12525507251545       -1.31992569795794        5.61747362494261
C            4.98570236730436       -0.01471006957091        6.06744665685940
C            6.02226818137213        0.59908099432817        6.75002030648277
C            7.20509141796124       -0.08400659338397        6.97535132698635
C            7.35142238680555       -1.38421703849370        6.51984828169659
C            6.31507767061818       -2.00184210809302        5.84306778788020
H            0.10197706364018        1.54465382995556       -0.69380294369750
H            2.49057244461634        1.91502791648668       -0.15514208437080
H            3.18583491491371       -2.31014876526075       -0.41351183093871
H            0.83495295090127       -2.66278815050911       -0.93298873339323
H            5.36631317744653       -1.66391824490092       -0.61441125534967
H            6.38739863627384       -0.60410354547251        0.38419905741901
H            4.60442037684025       -0.23052265600890        2.80958581247713
H            5.64580336187551       -3.99147529524049       -0.34440537454737
H            5.41852927189165       -6.30799148781929        0.46177558770384
H            4.70003787447324       -6.79384499390826        2.74476017981089
H            4.16914749947188       -4.98986831209284        4.33349301111650
H            3.10646612768570       -1.37404940703908        4.87918316364216
H            3.76505600659316       -2.96348371218756        5.31677927208110
H            4.06152667443515        0.51904834518109        5.89911843706987
H            5.90336580484244        1.61052213521885        7.10549889133283
H            8.01136798677579        0.39454311333995        7.50841594963800
H            8.27055655861563       -1.92049743503007        6.69703342622006
H            6.42796416366555       -3.01938730646607        5.49554003597389

          :  Hamiltonian                  GFN2-xTB          :
         :: total energy             -69.896253911028 Eh    ::
         :: gradient norm              0.000348916898 Eh/a0 ::
         :: HOMO-LUMO gap              2.296074780761 eV    ::
         :: SCC energy               -71.037666353305 Eh    ::
         :: -> dispersion             -0.051161543142 Eh    ::
         :: repulsion energy           1.141412442277 Eh    ::

    * Orbital Energies and Occupations

         #    Occupation            Energy/Eh            Energy/eV
      -------------------------------------------------------------
         1        2.0000           -0.9306549             -25.3244
       ...           ...                  ...                  ...
        52        2.0000           -0.5694366             -15.4952
        53        2.0000           -0.5593862             -15.2217
        54        2.0000           -0.5579519             -15.1826
        55        2.0000           -0.5553232             -15.1111
        56        2.0000           -0.5517552             -15.0140
        57        2.0000           -0.5417804             -14.7426
        58        2.0000           -0.5353254             -14.5669
        59        2.0000           -0.5311948             -14.4545
        60        2.0000           -0.5293110             -14.4033
        61        2.0000           -0.5157644             -14.0347
        62        2.0000           -0.5150783             -14.0160
        63        2.0000           -0.5069351             -13.7944
        64        2.0000           -0.5034428             -13.6994 (HOMO)
        65                         -0.4190636             -11.4033 (LUMO)
        66                         -0.4166700             -11.3382
        67                         -0.3692841             -10.0487
        68                         -0.3611116              -9.8263
        69                         -0.3582369              -9.7481
        70                         -0.3400414              -9.2530
        71                         -0.3336310              -9.0786
        72                         -0.3313792              -9.0173
        73                         -0.2993872              -8.1467
        74                         -0.2436753              -6.6307
        75                         -0.2258622              -6.1460
       ...                                ...                  ...
       127                          0.5531020              15.0507
      -------------------------------------------------------------
                  HL-Gap            0.0843792 Eh            2.2961 eV

     #   Z          covCN         q      C6AA      α(0)
     1  35 Br       1.069    -0.099   187.762    22.094
     2   6 C        2.915     0.099    25.799     8.329
     3   6 C        2.986    -0.027    28.663     8.782
     4   6 C        2.929    -0.012    28.311     8.726
     5   6 C        2.968    -0.023    28.580     8.769
     6   6 C        2.920    -0.030    28.746     8.792
     7   6 C        2.991    -0.032    28.783     8.801
     8   6 C        2.820     0.222    23.336     7.915
     9   8 O        0.857    -0.324    20.227     6.030
    10   6 C        3.741    -0.047    21.493     6.615
    11   7 N        2.828     0.034    20.646     6.748
    12   6 C        3.074     0.067    26.425     8.428
    13   7 N        2.828     0.036    20.604     6.742
    14   6 C        3.120     0.042    26.896     8.494
    15   6 C        3.117     0.039    26.968     8.506
    16   6 C        2.908    -0.033    28.829     8.804
    17   6 C        2.925    -0.017    28.438     8.745
    18   6 C        2.925    -0.017    28.442     8.746
    19   6 C        2.909    -0.030    28.755     8.793
    20   6 C        3.747    -0.023    21.052     6.544
    21   6 C        2.973    -0.005    28.141     8.702
    22   6 C        2.922    -0.036    28.901     8.816
    23   6 C        2.920    -0.021    28.537     8.760
    24   6 C        2.920    -0.020    28.512     8.756
    25   6 C        2.919    -0.023    28.570     8.765
    26   6 C        2.923    -0.037    28.916     8.818
    27   1 H        0.926     0.083     1.948     2.183
    28   1 H        0.926     0.088     1.899     2.155
    29   1 H        0.926     0.044     2.394     2.420
    30   1 H        0.926     0.073     2.051     2.240
    31   1 H        0.924     0.097     1.813     2.105
    32   1 H        0.924     0.105     1.742     2.064
    33   1 H        0.926     0.109     1.704     2.041
    34   1 H        0.926     0.069     2.097     2.265
    35   1 H        0.926     0.082     1.957     2.188
    36   1 H        0.926     0.082     1.954     2.186
    37   1 H        0.926     0.072     2.058     2.244
    38   1 H        0.924     0.080     1.979     2.200
    39   1 H        0.924     0.088     1.897     2.154
    40   1 H        0.926     0.041     2.438     2.442
    41   1 H        0.926     0.058     2.224     2.332
    42   1 H        0.926     0.059     2.210     2.325
    43   1 H        0.926     0.054     2.267     2.355
    44   1 H        0.926     0.033     2.542     2.493

Wiberg/Mayer (AO) data.
largest (>0.10) Wiberg bond orders for each atom

     #   Z sym  total        # sym  WBO       # sym  WBO       # sym  WBO
 ---------------------------------------------------------------------------
     1  35 Br   1.193 --     2 C    1.036
     2   6 C    3.949 --     3 C    1.385     7 C    1.378     1 Br   1.036
     3   6 C    3.986 --     4 C    1.473     2 C    1.385    27 H    0.963
     4   6 C    3.983 --     3 C    1.473     5 C    1.349    28 H    0.960
     5   6 C    3.987 --     6 C    1.357     4 C    1.349     8 C    1.065
     6   6 C    3.991 --     7 C    1.477     5 C    1.357    29 H    0.964
     7   6 C    3.988 --     6 C    1.477     2 C    1.378    30 H    0.965
     8   6 C    3.926 --     9 O    1.838     5 C    1.065    10 C    0.931
     9   8 O    2.092 --     8 C    1.838
    10   6 C    3.940 --    11 N    0.976    31 H    0.955    32 H    0.952
                             8 C    0.931
    11   7 N    3.679 --    12 C    1.359    15 C    1.125    10 C    0.976
                            13 N    0.101
    12   6 C    3.954 --    13 N    1.378    11 N    1.359    33 H    0.953
    13   7 N    3.688 --    12 C    1.378    14 C    1.132    20 C    0.956
                            11 N    0.101
    14   6 C    3.952 --    19 C    1.335    15 C    1.268    13 N    1.132
    15   6 C    3.950 --    16 C    1.337    14 C    1.268    11 N    1.125
    16   6 C    3.986 --    17 C    1.497    15 C    1.337    34 H    0.962
                            19 C    0.119
    17   6 C    3.985 --    16 C    1.497    18 C    1.374    35 H    0.966
    18   6 C    3.983 --    19 C    1.499    17 C    1.374    36 H    0.966
    19   6 C    3.985 --    18 C    1.499    14 C    1.335    37 H    0.961
                            16 C    0.119
    20   6 C    3.935 --    21 C    0.981    39 H    0.960    38 H    0.959
                            13 N    0.956
    21   6 C    3.976 --    22 C    1.418    26 C    1.411    20 C    0.981
                            24 C    0.109
    22   6 C    3.990 --    23 C    1.439    21 C    1.418    40 H    0.968
                            25 C    0.110
    23   6 C    3.990 --    24 C    1.443    22 C    1.439    41 H    0.969
                            26 C    0.112
    24   6 C    3.989 --    23 C    1.443    25 C    1.436    42 H    0.969
                            21 C    0.109
    25   6 C    3.991 --    26 C    1.447    24 C    1.436    43 H    0.969
                            22 C    0.110
    26   6 C    3.992 --    25 C    1.447    21 C    1.411    44 H    0.970
                            23 C    0.112
    27   1 H    0.992 --     3 C    0.963
    28   1 H    0.992 --     4 C    0.960
    29   1 H    0.998 --     6 C    0.964
    30   1 H    0.994 --     7 C    0.965
    31   1 H    0.990 --    10 C    0.955
    32   1 H    0.988 --    10 C    0.952
    33   1 H    0.987 --    12 C    0.953
    34   1 H    0.994 --    16 C    0.962
    35   1 H    0.993 --    17 C    0.966
    36   1 H    0.993 --    18 C    0.966
    37   1 H    0.994 --    19 C    0.961
    38   1 H    0.992 --    20 C    0.959
    39   1 H    0.992 --    20 C    0.960
    40   1 H    0.998 --    22 C    0.968
    41   1 H    0.996 --    23 C    0.969
    42   1 H    0.996 --    24 C    0.969
    43   1 H    0.997 --    25 C    0.969
    44   1 H    0.999 --    26 C    0.970
 ---------------------------------------------------------------------------

molecular dipole:
                 x           y           z       tot (Debye)
 q only:        8.618      -4.734       4.801
   full:        8.728      -4.718       4.715      27.921

           -------------------------------------------------
          | TOTAL ENERGY              -69.896253911028 Eh   |
          | GRADIENT NORM               0.000348916898 Eh/α |
          | HOMO-LUMO GAP               2.296074780761 eV   |
           -------------------------------------------------

 * finished run on 2024/12/20 at 06:47:55.210
