   * xtb version 6.7.1 (edcfbbe) compiled by 'conda@3ef47c1a292c' on 2024-11-25

   ID    Z sym.   atoms
    1    6 C      1, 3, 5, 7-16
    2    8 O      2, 4
    3    7 N      6
    4    1 H      17-36

          program call               : xtb C0533.xyz --opt --namespace C0533 --charge +1
          :  Hamiltonian                  GFN2-xTB          :
 * total energy  :   -48.6800043 Eh     change       -0.1334953E-08 Eh
 * total energy  :   -48.6899811 Eh     change       -0.9976835E-02 Eh
 * total energy  :   -48.6924752 Eh     change       -0.2494104E-02 Eh
 * total energy  :   -48.6930314 Eh     change       -0.5562274E-03 Eh
 * total energy  :   -48.6933148 Eh     change       -0.2833835E-03 Eh
 * total energy  :   -48.6935245 Eh     change       -0.2096975E-03 Eh
 * total energy  :   -48.6937224 Eh     change       -0.1978895E-03 Eh
 * total energy  :   -48.6939909 Eh     change       -0.2685479E-03 Eh
 * total energy  :   -48.6943137 Eh     change       -0.3227368E-03 Eh
 * total energy  :   -48.6946620 Eh     change       -0.3483454E-03 Eh
 * total energy  :   -48.6985579 Eh     change       -0.1043681E-04 Eh
 * total energy  :   -48.6985710 Eh     change       -0.1313332E-04 Eh
 * total energy  :   -48.6985844 Eh     change       -0.1345353E-04 Eh
 * total energy  :   -48.6985968 Eh     change       -0.1234166E-04 Eh
 * total energy  :   -48.6986081 Eh     change       -0.1131201E-04 Eh
 * total energy  :   -48.6986188 Eh     change       -0.1069358E-04 Eh
 * total energy  :   -48.6986274 Eh     change       -0.8648393E-05 Eh
 * total energy  :   -48.6986332 Eh     change       -0.5738894E-05 Eh
 * total energy  :   -48.6986368 Eh     change       -0.3630346E-05 Eh
   *** GEOMETRY OPTIMIZATION CONVERGED AFTER 61 ITERATIONS ***

 final structure:
================
36
 xtb: 6.7.1 (edcfbbe)
C            1.56218805085627        0.12576405770464        1.35814871171030
O            1.28121130148818        1.48632842705735        1.00996355546541
C            1.16797384639117        1.78677855293519       -0.26239751622076
O            1.28389875237540        1.03400847826752       -1.19036929120640
C            0.86913769392969        3.29444992233101       -0.38617058115916
N            0.67397951594007        3.80042393366753       -1.76378346149273
C           -0.50679549558476        3.10401111641147       -2.39709556675422
C           -0.83150363340721        3.59061226016632       -3.78259268373645
C           -0.26405157699652        2.97972745540467       -4.89736362091752
C           -0.57637458383643        3.41519016679468       -6.17080830408476
C           -1.46743222480501        4.46507713776497       -6.37120484539762
C           -2.04690031662378        5.05950538919575       -5.25501342856290
C           -1.73786263288044        4.62860931024405       -3.97904877973247
C           -1.82300664995098        4.91428444045884       -7.74912618461771
C            0.41669335250642        5.25047350805864       -1.68902952745907
C            1.89015624332169        3.57598951175539       -2.56821931985973
H            0.62486856913483       -0.42062884034962        1.46615229031068
H            2.08934618433222        0.15587889203774        2.30804484185472
H            2.17259047130455       -0.34515730058198        0.58731572362825
H           -0.02549059853502        3.49615074066575        0.20889477180170
H            1.70332471380662        3.82565213349484        0.08075861691170
H           -1.36447553595115        3.26132514121587       -1.73954590500047
H           -0.27114329198428        2.03937683423534       -2.42961513558139
H            0.41064373817275        2.14587067235622       -4.77075914267714
H           -0.13013955821246        2.92697927891328       -7.02359312103011
H           -2.75525763543305        5.86297483522441       -5.38710812782800
H           -2.22306192044510        5.09379415684870       -3.13278889674635
H           -0.98915465040030        4.77650899488195       -8.43265029620575
H           -2.66007864375628        4.32313969935791       -8.12127651577283
H           -2.12317971895666        5.95884240437348       -7.75548426136096
H            1.26459178613293        5.76131277520569       -1.23627509802679
H            0.26055128885730        5.64507057360836       -2.69150394453339
H           -0.47225750856585        5.44766067647144       -1.09257256857415
H            2.74019092120364        4.07451395474589       -2.10613489386823
H            2.09487096944334        2.50965375005738       -2.63933430803159
H            1.74242877714658        3.97677695904313       -3.56895318522440

          :  Hamiltonian                  GFN2-xTB          :
         :: total energy             -48.698636803392 Eh    ::
         :: gradient norm              0.000219781022 Eh/a0 ::
         :: HOMO-LUMO gap              3.490566555830 eV    ::
         :: SCC energy               -49.388524510572 Eh    ::
         :: -> dispersion             -0.031387485709 Eh    ::
         :: repulsion energy           0.689887707180 Eh    ::

    * Orbital Energies and Occupations

         #    Occupation            Energy/Eh            Energy/eV
      -------------------------------------------------------------
         1        2.0000           -0.8940523             -24.3284
       ...           ...                  ...                  ...
        32        2.0000           -0.6035313             -16.4229
        33        2.0000           -0.5992136             -16.3054
        34        2.0000           -0.5971766             -16.2500
        35        2.0000           -0.5913224             -16.0907
        36        2.0000           -0.5875977             -15.9893
        37        2.0000           -0.5781208             -15.7315
        38        2.0000           -0.5719519             -15.5636
        39        2.0000           -0.5668057             -15.4236
        40        2.0000           -0.5537970             -15.0696
        41        2.0000           -0.5414939             -14.7348
        42        2.0000           -0.5305883             -14.4380
        43        2.0000           -0.5194453             -14.1348
        44        2.0000           -0.5064166             -13.7803 (HOMO)
        45                         -0.3781406             -10.2897 (LUMO)
        46                         -0.3469554              -9.4411
        47                         -0.3371337              -9.1739
        48                         -0.2347766              -6.3886
        49                         -0.2060456              -5.6068
        50                         -0.1666681              -4.5353
        51                         -0.1433601              -3.9010
        52                         -0.1394261              -3.7940
        53                         -0.1046337              -2.8472
        54                         -0.0520184              -1.4155
        55                         -0.0300534              -0.8178
       ...                                ...                  ...
        84                          0.5365571              14.6005
      -------------------------------------------------------------
                  HL-Gap            0.1282760 Eh            3.4906 eV

     #   Z          covCN         q      C6AA      α(0)
     1   6 C        3.651     0.013    20.669     6.530
     2   8 O        1.705    -0.228    17.781     5.693
     3   6 C        2.714     0.360    20.889     7.482
     4   8 O        0.856    -0.391    21.507     6.218
     5   6 C        3.769    -0.068    21.839     6.660
     6   7 N        3.621     0.138    18.898     6.457
     7   6 C        3.761    -0.046    21.443     6.601
     8   6 C        2.968    -0.014    28.371     8.737
     9   6 C        2.921    -0.041    29.029     8.835
    10   6 C        2.924    -0.035    28.878     8.813
    11   6 C        2.966     0.034    27.243     8.561
    12   6 C        2.924    -0.036    28.897     8.816
    13   6 C        2.921    -0.042    29.052     8.839
    14   6 C        3.759    -0.120    22.854     6.816
    15   6 C        3.725    -0.096    22.436     6.763
    16   6 C        3.717    -0.100    22.529     6.780
    17   1 H        0.924     0.088     1.902     2.157
    18   1 H        0.925     0.098     1.802     2.099
    19   1 H        0.925     0.089     1.885     2.147
    20   1 H        0.924     0.110     1.701     2.039
    21   1 H        0.924     0.111     1.689     2.032
    22   1 H        0.924     0.077     2.010     2.217
    23   1 H        0.924     0.106     1.730     2.057
    24   1 H        0.926     0.046     2.377     2.411
    25   1 H        0.926     0.056     2.249     2.345
    26   1 H        0.926     0.054     2.268     2.355
    27   1 H        0.926     0.036     2.498     2.471
    28   1 H        0.925     0.060     2.194     2.317
    29   1 H        0.924     0.071     2.075     2.253
    30   1 H        0.925     0.059     2.206     2.322
    31   1 H        0.925     0.094     1.841     2.122
    32   1 H        0.925     0.109     1.706     2.043
    33   1 H        0.925     0.095     1.830     2.116
    34   1 H        0.925     0.090     1.880     2.144
    35   1 H        0.925     0.120     1.615     1.988
    36   1 H        0.925     0.105     1.744     2.065

Wiberg/Mayer (AO) data.
largest (>0.10) Wiberg bond orders for each atom

     #   Z sym  total        # sym  WBO       # sym  WBO       # sym  WBO
 ---------------------------------------------------------------------------
     1   6 C    3.889 --    18 H    0.975    19 H    0.975    17 H    0.971
                             2 O    0.928
     2   8 O    2.364 --     3 C    1.203     1 C    0.928     4 O    0.193
     3   6 C    3.937 --     4 O    1.737     2 O    1.203     5 C    0.939
     4   8 O    2.065 --     3 C    1.737     2 O    0.193
     5   6 C    3.946 --     6 N    0.959    20 H    0.952    21 H    0.950
                             3 C    0.939
     6   7 N    3.810 --     5 C    0.959    15 C    0.958    16 C    0.954
                             7 C    0.897
     7   6 C    3.916 --     8 C    1.007    22 H    0.967    23 H    0.957
                             6 N    0.897
     8   6 C    3.975 --    13 C    1.400     9 C    1.399     7 C    1.007
                            11 C    0.104
     9   6 C    3.991 --    10 C    1.457     8 C    1.399    24 H    0.967
                            12 C    0.104
    10   6 C    3.990 --     9 C    1.457    11 C    1.399    25 H    0.967
                            13 C    0.104
    11   6 C    3.986 --    12 C    1.400    10 C    1.399    14 C    1.037
                             8 C    0.104
    12   6 C    3.990 --    13 C    1.455    11 C    1.400    26 H    0.967
                             9 C    0.104
    13   6 C    3.991 --    12 C    1.455     8 C    1.400    27 H    0.968
                            10 C    0.104
    14   6 C    3.992 --    11 C    1.037    30 H    0.979    28 H    0.977
                            29 H    0.956
    15   6 C    3.926 --    33 H    0.975    31 H    0.975    32 H    0.968
                             6 N    0.958
    16   6 C    3.918 --    34 H    0.976    36 H    0.970    35 H    0.966
                             6 N    0.954
    17   1 H    0.992 --     1 C    0.971
    18   1 H    0.990 --     1 C    0.975
    19   1 H    0.992 --     1 C    0.975
    20   1 H    0.988 --     5 C    0.952
    21   1 H    0.987 --     5 C    0.950
    22   1 H    0.994 --     7 C    0.967
    23   1 H    0.988 --     7 C    0.957
    24   1 H    0.998 --     9 C    0.967
    25   1 H    0.997 --    10 C    0.967
    26   1 H    0.997 --    12 C    0.967
    27   1 H    0.998 --    13 C    0.968
    28   1 H    0.996 --    14 C    0.977
    29   1 H    0.994 --    14 C    0.956
    30   1 H    0.996 --    14 C    0.979
    31   1 H    0.991 --    15 C    0.975
    32   1 H    0.988 --    15 C    0.968
    33   1 H    0.991 --    15 C    0.975
    34   1 H    0.992 --    16 C    0.976
    35   1 H    0.986 --    16 C    0.966
    36   1 H    0.989 --    16 C    0.970
 ---------------------------------------------------------------------------

molecular dipole:
                 x           y           z       tot (Debye)
 q only:        1.002       7.140      -3.564
   full:        0.960       7.209      -3.334      20.336

           -------------------------------------------------
          | TOTAL ENERGY              -48.698636803392 Eh   |
          | GRADIENT NORM               0.000219781022 Eh/α |
          | HOMO-LUMO GAP               3.490566555830 eV   |
           -------------------------------------------------

 * finished run on 2024/12/20 at 06:47:47.821
