   * xtb version 6.7.1 (edcfbbe) compiled by 'conda@3ef47c1a292c' on 2024-11-25

   ID    Z sym.   atoms
    1    6 C      1-3, 6-14, 16-19, 21-24, 26, 28
    2    7 N      4, 15
    3    8 O      5, 20, 25, 27
    4    1 H      29-55

          program call               : xtb C0530.xyz --opt --namespace C0530 --charge +1
          :  Hamiltonian                  GFN2-xTB          :
 * total energy  :   -82.5516648 Eh     change       -0.7191261E-09 Eh
 * total energy  :   -82.5604389 Eh     change       -0.8774041E-02 Eh
 * total energy  :   -82.5629653 Eh     change       -0.2526469E-02 Eh
 * total energy  :   -82.5637272 Eh     change       -0.7619014E-03 Eh
 * total energy  :   -82.5646575 Eh     change       -0.9302533E-03 Eh
 * total energy  :   -82.5652619 Eh     change       -0.6044061E-03 Eh
 * total energy  :   -82.5658855 Eh     change       -0.6236364E-03 Eh
 * total energy  :   -82.5665534 Eh     change       -0.6678555E-03 Eh
 * total energy  :   -82.5671084 Eh     change       -0.5550054E-03 Eh
 * total energy  :   -82.5674312 Eh     change       -0.3228365E-03 Eh
 * total energy  :   -82.5694784 Eh     change        0.1335797E-04 Eh
 * total energy  :   -82.5695468 Eh     change       -0.6843409E-04 Eh
 * total energy  :   -82.5695655 Eh     change       -0.1866552E-04 Eh
 * total energy  :   -82.5696128 Eh     change       -0.4736469E-04 Eh
 * total energy  :   -82.5696305 Eh     change       -0.1770480E-04 Eh
 * total energy  :   -82.5696598 Eh     change       -0.2932063E-04 Eh
 * total energy  :   -82.5696714 Eh     change       -0.1151788E-04 Eh
 * total energy  :   -82.5696789 Eh     change       -0.7551701E-05 Eh
 * total energy  :   -82.5696820 Eh     change       -0.3126916E-05 Eh
   *** GEOMETRY OPTIMIZATION CONVERGED AFTER 45 ITERATIONS ***

 final structure:
================
55
 xtb: 6.7.1 (edcfbbe)
C            2.31037045656027       -0.94743154147845        0.60062476182244
C            1.04854803957511       -0.68284255288716       -0.23130756317550
C            1.12545881229751       -1.36739099103229       -1.54409255267841
N            0.70418754292315       -2.62051108615654       -1.75569441794160
O            0.11176153528513       -3.33595213641987       -0.75704364960593
C           -0.11404621672221       -4.71944617438400       -1.02685949124928
C           -1.14797303384634       -4.98083492145894       -2.09395587951078
C           -2.28463932430272       -4.18629203570051       -2.17434374579457
C           -3.23611197074787       -4.43255949002545       -3.14805619437827
C           -3.06286301817175       -5.47836038546034       -4.03922151263493
C           -1.93449807288648       -6.27719672206466       -3.95779601827372
C           -0.97518873130091       -6.02656902526147       -2.99218135570172
C            0.95935374902594       -2.98286386169011       -3.04132730224156
C            1.56247526788002       -1.90948800261055       -3.62193730219423
N            1.66648520493927       -0.92688616199329       -2.68641357084157
C            2.20066233626689        0.40014598920656       -2.95155430117990
C            1.18530083901664        1.22489656638701       -3.70565879198850
C            1.10163029483236        1.12693862686392       -5.07850415721949
C            0.15210832008248        1.84951379836297       -5.80391074190082
O            0.21409898981338        1.62593160322310       -7.13468185582922
C           -0.47640200344248        2.43017520710625       -8.07293560780255
C           -0.75218259321158        2.68417847244919       -5.12339416174748
C           -0.66304995543598        2.77318800516602       -3.71683626771545
C            0.30105606972209        2.05082974381277       -3.02530503708951
O           -1.57910748742771        3.56708489836171       -3.09907711214959
C           -1.48675787020612        3.78078551885290       -1.71068181389366
O           -1.70894954650560        3.32140011294043       -5.85688283275028
C           -2.12015212713470        4.63310737828671       -5.51220829116914
H            2.42152273843085       -2.00998042746839        0.79782504431889
H            2.23180702663858       -0.43107961021735        1.55223019120641
H            3.20097400449134       -0.59262515205318        0.08811385023723
H            0.17989311261994       -1.06865107963938        0.30417223962919
H            0.91759709171350        0.38864086322282       -0.37822166362497
H            0.83462752864937       -5.21764541975430       -1.26111116448903
H           -0.46704012076477       -5.08197364714559       -0.05655286780990
H           -2.42365036149153       -3.37976411865392       -1.46885702458070
H           -4.11716477230973       -3.81252823101401       -3.20453205917939
H           -3.80880899204398       -5.67420412931103       -4.79325958000713
H           -1.79889406174691       -7.09652191469870       -4.64623309780426
H           -0.09663099167166       -6.65275043464681       -2.92700281142280
H            0.69294502815629       -3.93359329442037       -3.45353338147285
H            1.91438810343946       -1.78646792644529       -4.62478043814904
H            2.46139742004631        0.86986623585566       -2.00357119678907
H            3.10549852928624        0.28010360910688       -3.55077369160136
H            1.78594342135201        0.51769090323816       -5.64619197252474
H           -1.55711225845911        2.31762603688555       -7.98368323222470
H           -0.20727617867907        3.48313487445193       -7.97185104238786
H           -0.14668697045521        2.06523611142769       -9.04513871114472
H            0.36508406401478        2.13414425470454       -1.95308921736652
H           -1.66195372493615        2.85803094676697       -1.14818271214809
H           -0.51918543218328        4.20820478336222       -1.43150873133922
H           -2.27419777257979        4.49460954187276       -1.47546697954930
H           -2.87129189700892        4.62435510861845       -4.72181658627467
H           -1.27333050044911        5.24921654703502       -5.20447524200965
H           -2.55561954093172        5.04258473653071       -6.42355115467165

          :  Hamiltonian                  GFN2-xTB          :
         :: total energy             -82.569682042678 Eh    ::
         :: gradient norm              0.000448781896 Eh/a0 ::
         :: HOMO-LUMO gap              2.070588953897 eV    ::
         :: SCC energy               -83.715624289834 Eh    ::
         :: -> dispersion             -0.055656034037 Eh    ::
         :: repulsion energy           1.145942247156 Eh    ::

    * Orbital Energies and Occupations

         #    Occupation            Energy/Eh            Energy/eV
      -------------------------------------------------------------
         1        2.0000           -0.8957523             -24.3747
       ...           ...                  ...                  ...
        62        2.0000           -0.5507644             -14.9871
        63        2.0000           -0.5499864             -14.9659
        64        2.0000           -0.5495374             -14.9537
        65        2.0000           -0.5365842             -14.6012
        66        2.0000           -0.5309685             -14.4484
        67        2.0000           -0.5281428             -14.3715
        68        2.0000           -0.5262451             -14.3199
        69        2.0000           -0.5233456             -14.2410
        70        2.0000           -0.5076703             -13.8144
        71        2.0000           -0.5054101             -13.7529
        72        2.0000           -0.5004886             -13.6190
        73        2.0000           -0.4716592             -12.8345
        74        2.0000           -0.4560188             -12.4089 (HOMO)
        75                         -0.3799261             -10.3383 (LUMO)
        76                         -0.3506038              -9.5404
        77                         -0.3308066              -9.0017
        78                         -0.3259681              -8.8700
        79                         -0.3222634              -8.7692
        80                         -0.3101243              -8.4389
        81                         -0.2370173              -6.4496
        82                         -0.1996746              -5.4334
        83                         -0.1948276              -5.3015
        84                         -0.1227285              -3.3396
        85                         -0.0975545              -2.6546
       ...                                ...                  ...
       139                          0.5607273              15.2582
      -------------------------------------------------------------
                  HL-Gap            0.0760927 Eh            2.0706 eV

     #   Z          covCN         q      C6AA      α(0)
     1   6 C        3.754    -0.114    22.739     6.800
     2   6 C        3.803    -0.066    21.770     6.643
     3   6 C        3.092     0.085    25.995     8.357
     4   7 N        2.914     0.180    18.245     6.344
     5   8 O        1.767    -0.207    17.437     5.639
     6   6 C        3.689     0.058    19.784     6.366
     7   6 C        2.969    -0.012    28.312     8.728
     8   6 C        2.923    -0.035    28.878     8.813
     9   6 C        2.919    -0.024    28.611     8.772
    10   6 C        2.920    -0.023    28.572     8.766
    11   6 C        2.919    -0.023    28.585     8.768
    12   6 C        2.922    -0.041    29.016     8.834
    13   6 C        3.023    -0.032    28.769     8.798
    14   6 C        3.072    -0.011    28.223     8.711
    15   7 N        2.873     0.043    20.497     6.724
    16   6 C        3.748    -0.024    21.074     6.548
    17   6 C        2.968    -0.015    28.373     8.737
    18   6 C        2.925    -0.083    30.070     8.993
    19   6 C        2.851     0.129    25.169     8.223
    20   8 O        1.707    -0.247    18.084     5.742
    21   6 C        3.635     0.026    20.518     6.518
    22   6 C        2.852     0.096    25.864     8.335
    23   6 C        2.859     0.119    25.371     8.256
    24   6 C        2.920    -0.095    30.381     9.039
    25   8 O        1.705    -0.254    18.207     5.761
    26   6 C        3.641     0.031    20.393     6.493
    27   8 O        1.703    -0.264    18.374     5.787
    28   6 C        3.637     0.030    20.434     6.503
    29   1 H        0.925     0.060     2.197     2.318
    30   1 H        0.925     0.075     2.030     2.228
    31   1 H        0.925     0.054     2.272     2.357
    32   1 H        0.924     0.091     1.868     2.138
    33   1 H        0.925     0.078     2.001     2.212
    34   1 H        0.924     0.057     2.239     2.340
    35   1 H        0.924     0.101     1.773     2.082
    36   1 H        0.926     0.039     2.461     2.453
    37   1 H        0.926     0.051     2.312     2.378
    38   1 H        0.926     0.055     2.262     2.352
    39   1 H        0.926     0.054     2.275     2.359
    40   1 H        0.926     0.037     2.483     2.464
    41   1 H        0.927     0.109     1.706     2.042
    42   1 H        0.927     0.110     1.700     2.039
    43   1 H        0.925     0.085     1.928     2.171
    44   1 H        0.924     0.090     1.879     2.143
    45   1 H        0.926     0.059     2.211     2.325
    46   1 H        0.924     0.066     2.130     2.282
    47   1 H        0.924     0.054     2.275     2.359
    48   1 H        0.925     0.071     2.077     2.254
    49   1 H        0.926     0.040     2.445     2.445
    50   1 H        0.924     0.041     2.438     2.442
    51   1 H        0.924     0.047     2.364     2.404
    52   1 H        0.925     0.076     2.023     2.224
    53   1 H        0.924     0.063     2.165     2.301
    54   1 H        0.924     0.045     2.388     2.416
    55   1 H        0.925     0.067     2.118     2.276

Wiberg/Mayer (AO) data.
largest (>0.10) Wiberg bond orders for each atom

     #   Z sym  total        # sym  WBO       # sym  WBO       # sym  WBO
 ---------------------------------------------------------------------------
     1   6 C    3.984 --    31 H    0.986    29 H    0.986     2 C    0.983
                            30 H    0.980
     2   6 C    3.979 --     3 C    1.024     1 C    0.983    33 H    0.959
                            32 H    0.959
     3   6 C    3.935 --    15 N    1.315     4 N    1.301     2 C    1.024
     4   7 N    3.708 --     3 C    1.301    13 C    1.204     5 O    1.003
     5   8 O    2.136 --     4 N    1.003     6 C    0.934
     6   6 C    3.901 --     7 C    0.995    34 H    0.965    35 H    0.942
                             5 O    0.934
     7   6 C    3.982 --     8 C    1.414    12 C    1.410     6 C    0.995
                            10 C    0.109
     8   6 C    3.992 --     9 C    1.444     7 C    1.414    36 H    0.969
                            11 C    0.111
     9   6 C    3.991 --     8 C    1.444    10 C    1.439    37 H    0.970
                            12 C    0.111
    10   6 C    3.990 --     9 C    1.439    11 C    1.439    38 H    0.969
                             7 C    0.109
    11   6 C    3.991 --    12 C    1.443    10 C    1.439    39 H    0.969
                             8 C    0.111
    12   6 C    3.991 --    11 C    1.443     7 C    1.410    40 H    0.968
                             9 C    0.111
    13   6 C    3.937 --    14 C    1.577     4 N    1.204    41 H    0.955
    14   6 C    3.947 --    13 C    1.577    15 N    1.227    42 H    0.958
    15   7 N    3.692 --     3 C    1.315    14 C    1.227    16 C    0.952
    16   6 C    3.935 --    17 C    0.984    43 H    0.964    44 H    0.959
                            15 N    0.952
    17   6 C    3.974 --    18 C    1.433    24 C    1.383    16 C    0.984
    18   6 C    3.980 --    17 C    1.433    19 C    1.338    45 H    0.964
    19   6 C    3.946 --    18 C    1.338    22 C    1.313    20 O    1.100
    20   8 O    2.264 --    19 C    1.100    21 C    0.966
    21   6 C    3.929 --    47 H    0.979    48 H    0.978    46 H    0.975
                            20 O    0.966
    22   6 C    3.940 --    19 C    1.313    23 C    1.292    27 O    1.065
    23   6 C    3.940 --    24 C    1.377    22 C    1.292    25 O    1.072
    24   6 C    3.977 --    17 C    1.383    23 C    1.377    49 H    0.961
    25   8 O    2.247 --    23 C    1.072    26 C    0.980
    26   6 C    3.940 --    25 O    0.980    52 H    0.977    51 H    0.976
                            50 H    0.976
    27   8 O    2.213 --    22 C    1.065    28 C    0.964
    28   6 C    3.934 --    54 H    0.982    55 H    0.978    53 H    0.975
                            27 O    0.964
    29   1 H    0.996 --     1 C    0.986
    30   1 H    0.993 --     1 C    0.980
    31   1 H    0.997 --     1 C    0.986
    32   1 H    0.992 --     2 C    0.959
    33   1 H    0.994 --     2 C    0.959
    34   1 H    0.996 --     6 C    0.965
    35   1 H    0.989 --     6 C    0.942
    36   1 H    0.998 --     8 C    0.969
    37   1 H    0.997 --     9 C    0.970
    38   1 H    0.996 --    10 C    0.969
    39   1 H    0.997 --    11 C    0.969
    40   1 H    0.999 --    12 C    0.968
    41   1 H    0.987 --    13 C    0.955
    42   1 H    0.988 --    14 C    0.958
    43   1 H    0.992 --    16 C    0.964
    44   1 H    0.991 --    16 C    0.959
    45   1 H    0.996 --    18 C    0.964
    46   1 H    0.994 --    21 C    0.975
    47   1 H    0.997 --    21 C    0.979
    48   1 H    0.994 --    21 C    0.978
    49   1 H    0.998 --    24 C    0.961
    50   1 H    0.998 --    26 C    0.976
    51   1 H    0.998 --    26 C    0.976
    52   1 H    0.994 --    26 C    0.977
    53   1 H    0.995 --    28 C    0.975
    54   1 H    0.998 --    28 C    0.982
    55   1 H    0.994 --    28 C    0.978
 ---------------------------------------------------------------------------

molecular dipole:
                 x           y           z       tot (Debye)
 q only:        1.175      -2.246      -4.537
   full:        1.227      -2.223      -4.336      12.771

           -------------------------------------------------
          | TOTAL ENERGY              -82.569682042678 Eh   |
          | GRADIENT NORM               0.000448781896 Eh/α |
          | HOMO-LUMO GAP               2.070588953897 eV   |
           -------------------------------------------------

 * finished run on 2024/12/20 at 06:47:37.670
