   * xtb version 6.7.1 (edcfbbe) compiled by 'conda@3ef47c1a292c' on 2024-11-25

   ID    Z sym.   atoms
    1    6 C      1-12, 14, 15, 17, 18, 20, 21
    2    7 N      13
    3    8 O      16, 19
    4    1 H      22-61

          program call               : xtb C0535.xyz --opt --namespace C0535 --charge +1
          :  Hamiltonian                  GFN2-xTB          :
 * total energy  :   -69.5978369 Eh     change       -0.8658674E-10 Eh
 * total energy  :   -69.6063867 Eh     change       -0.8549722E-02 Eh
 * total energy  :   -69.6086408 Eh     change       -0.2254173E-02 Eh
 * total energy  :   -69.6088966 Eh     change       -0.2557461E-03 Eh
 * total energy  :   -69.6092798 Eh     change       -0.3831913E-03 Eh
 * total energy  :   -69.6094787 Eh     change       -0.1989273E-03 Eh
 * total energy  :   -69.6098389 Eh     change       -0.3602292E-03 Eh
 * total energy  :   -69.6100509 Eh     change       -0.2119894E-03 Eh
 * total energy  :   -69.6101633 Eh     change       -0.1124020E-03 Eh
 * total energy  :   -69.6102478 Eh     change       -0.8452953E-04 Eh
 * total energy  :   -69.6124211 Eh     change       -0.3770774E-04 Eh
 * total energy  :   -69.6124355 Eh     change       -0.1447872E-04 Eh
 * total energy  :   -69.6124472 Eh     change       -0.1167979E-04 Eh
 * total energy  :   -69.6124567 Eh     change       -0.9529161E-05 Eh
 * total energy  :   -69.6124727 Eh     change       -0.1593812E-04 Eh
 * total energy  :   -69.6124853 Eh     change       -0.1260247E-04 Eh
 * total energy  :   -69.6124937 Eh     change       -0.8390368E-05 Eh
 * total energy  :   -69.6124995 Eh     change       -0.5795422E-05 Eh
 * total energy  :   -69.6125034 Eh     change       -0.3955327E-05 Eh
   *** GEOMETRY OPTIMIZATION CONVERGED AFTER 46 ITERATIONS ***

 final structure:
================
61
 xtb: 6.7.1 (edcfbbe)
C            1.73825642731589        0.85746565465199       -0.70260618499836
C            1.48466576316504        0.06316625926367       -1.97829462951854
C            1.64714829190816       -1.44641916162109       -1.79260294671409
C            0.68500084936792       -2.08093577600578       -0.78587172410311
C           -0.79994827268327       -1.88037498717484       -1.09487354911579
C           -1.25475251629596       -2.41569969688679       -2.45390616629719
C           -1.04599598620516       -3.91766512388825       -2.65725523436033
C           -1.77154341543731       -4.81101719307905       -1.64875792443587
C           -3.28924949598843       -4.62189421502098       -1.58748783267280
C           -4.02226361969877       -4.83430327789945       -2.91457119204952
C           -3.91234334157680       -6.26080111744665       -3.46565087524970
C           -4.69117373314472       -7.29109440108327       -2.63642863814393
N           -5.90956015279173       -7.85868307573283       -3.28860710071691
C           -5.60397644635289       -8.56784707846618       -4.56966218104581
C           -4.32367084481666       -9.40259065129414       -4.58365825234061
O           -4.31227501555178      -10.32012768668212       -3.50500332202768
C           -3.33456434931296      -11.33774319311287       -3.62589351833358
C           -3.67992421114583      -12.41040303203414       -4.66120110354233
O           -3.45241551610271      -11.90319800319012       -5.96092860090499
C           -6.52052336392393       -8.81956913442640       -2.34576353791301
C           -6.88850239972416       -6.78999845977287       -3.55930370187299
H            0.98516702182037        0.64298466373473        0.05140225564073
H            1.71033518539702        1.92415325115106       -0.91252034785469
H            2.71609986580183        0.61560121688458       -0.29202103909879
H            0.48454686474673        0.28739157945471       -2.35396128670801
H            2.19651630712296        0.38711092473075       -2.74135554463126
H            1.53007443848021       -1.93258041588802       -2.76379836636789
H            2.66678883886032       -1.64618254021854       -1.45384615130417
H            0.90382400046905       -3.14988955694040       -0.73087128014379
H            0.88288092394754       -1.66653452435126        0.20413320312920
H           -1.38213684758272       -2.35622493028365       -0.30215573301596
H           -1.02995768170951       -0.81426953980528       -1.05881100324223
H           -2.31255796867252       -2.17338612554564       -2.58223544499975
H           -0.71238508417992       -1.89083982981044       -3.24182814153448
H           -1.36190063555493       -4.17621109023664       -3.67125088985595
H            0.02026764411291       -4.13935891902550       -2.59441530504787
H           -1.53778953602474       -5.85388576418194       -1.87869176002540
H           -1.37331325393159       -4.61528921923082       -0.65263440474810
H           -3.68583313031097       -5.30208245575698       -0.82883083579144
H           -3.50318076464499       -3.60864665152376       -1.24712424587275
H           -5.07278226239938       -4.56605147254708       -2.77900544194308
H           -3.60898507169351       -4.14951435789585       -3.65442281840841
H           -4.24469343100931       -6.26455127624997       -4.50362812510656
H           -2.85846202064620       -6.53681428385755       -3.47820089587766
H           -4.05902129422205       -8.13725862293694       -2.36763435647062
H           -5.02152634663341       -6.81837510748256       -1.70936139783192
H           -6.45245394534330       -9.22019746046990       -4.78286499655120
H           -5.52498276158204       -7.83555462346873       -5.37393313558664
H           -4.29460483549186       -9.93983682479330       -5.53841798119235
H           -3.43065218367465       -8.76414158339007       -4.53603048625504
H           -2.36234924760465      -10.89725392814654       -3.87740614070028
H           -3.28367877554324      -11.79757870476096       -2.63737902702986
H           -3.04504820126035      -13.28141115096590       -4.46589166269404
H           -4.73181127290878      -12.70553431677931       -4.54276061354678
H           -3.44265382428374      -12.63029574363980       -6.59190971937730
H           -6.69010974026529       -8.34432265818073       -1.38167554288578
H           -7.47552223215829       -9.16735073403320       -2.73501833392816
H           -5.85730325548792       -9.67320708918412       -2.22120628122267
H           -7.20476774743443       -6.33398157001972       -2.62263818959045
H           -6.45432755374688       -6.02048279095128       -4.19308034068721
H           -7.76346883560606       -7.20202242252477       -4.05932997541909

          :  Hamiltonian                  GFN2-xTB          :
         :: total energy             -69.612503422916 Eh    ::
         :: gradient norm              0.000462498775 Eh/a0 ::
         :: HOMO-LUMO gap              6.704024638544 eV    ::
         :: SCC energy               -70.509183895489 Eh    ::
         :: -> dispersion             -0.049380660295 Eh    ::
         :: repulsion energy           0.896680472573 Eh    ::

    * Orbital Energies and Occupations

         #    Occupation            Energy/Eh            Energy/eV
      -------------------------------------------------------------
         1        2.0000           -0.8524384             -23.1960
       ...           ...                  ...                  ...
        52        2.0000           -0.5289921             -14.3946
        53        2.0000           -0.5263101             -14.3216
        54        2.0000           -0.5226835             -14.2229
        55        2.0000           -0.5179433             -14.0940
        56        2.0000           -0.5158101             -14.0359
        57        2.0000           -0.5116886             -13.9238
        58        2.0000           -0.5049683             -13.7409
        59        2.0000           -0.4950570             -13.4712
        60        2.0000           -0.4911533             -13.3650
        61        2.0000           -0.4874624             -13.2645
        62        2.0000           -0.4730236             -12.8716
        63        2.0000           -0.4690795             -12.7643
        64        2.0000           -0.4669269             -12.7057 (HOMO)
        65                         -0.2205586              -6.0017 (LUMO)
        66                         -0.1627991              -4.4300
        67                         -0.1429141              -3.8889
        68                         -0.1345722              -3.6619
        69                         -0.1134589              -3.0874
        70                         -0.0656999              -1.7878
        71                         -0.0572321              -1.5574
        72                         -0.0439366              -1.1956
        73                         -0.0392598              -1.0683
        74                         -0.0277845              -0.7561
        75                         -0.0215549              -0.5865
       ...                                ...                  ...
       124                          0.2552213               6.9449
      -------------------------------------------------------------
                  HL-Gap            0.2463684 Eh            6.7040 eV

     #   Z          covCN         q      C6AA      α(0)
     1   6 C        3.751    -0.103    22.521     6.768
     2   6 C        3.799    -0.052    21.517     6.605
     3   6 C        3.800    -0.058    21.613     6.619
     4   6 C        3.800    -0.058    21.615     6.619
     5   6 C        3.800    -0.058    21.615     6.620
     6   6 C        3.800    -0.059    21.631     6.622
     7   6 C        3.800    -0.059    21.643     6.624
     8   6 C        3.800    -0.061    21.669     6.628
     9   6 C        3.800    -0.063    21.718     6.635
    10   6 C        3.800    -0.068    21.800     6.648
    11   6 C        3.799    -0.072    21.877     6.660
    12   6 C        3.760    -0.044    21.408     6.596
    13   7 N        3.621     0.135    18.950     6.465
    14   6 C        3.759    -0.042    21.366     6.590
    15   6 C        3.695     0.062    19.704     6.351
    16   8 O        1.699    -0.324    19.419     5.950
    17   6 C        3.695     0.066    19.641     6.340
    18   6 C        3.672     0.069    19.649     6.354
    19   8 O        1.655    -0.446    21.758     6.297
    20   6 C        3.727    -0.103    22.579     6.784
    21   6 C        3.722    -0.094    22.419     6.762
    22   1 H        0.925     0.034     2.532     2.489
    23   1 H        0.925     0.034     2.532     2.489
    24   1 H        0.925     0.036     2.509     2.477
    25   1 H        0.924     0.029     2.598     2.520
    26   1 H        0.924     0.029     2.600     2.521
    27   1 H        0.924     0.026     2.639     2.541
    28   1 H        0.924     0.031     2.565     2.505
    29   1 H        0.924     0.026     2.647     2.544
    30   1 H        0.924     0.036     2.510     2.477
    31   1 H        0.924     0.025     2.658     2.550
    32   1 H        0.924     0.037     2.495     2.470
    33   1 H        0.924     0.024     2.672     2.556
    34   1 H        0.924     0.038     2.472     2.459
    35   1 H        0.924     0.022     2.700     2.570
    36   1 H        0.924     0.041     2.437     2.441
    37   1 H        0.924     0.021     2.712     2.575
    38   1 H        0.924     0.046     2.375     2.410
    39   1 H        0.924     0.023     2.693     2.567
    40   1 H        0.925     0.051     2.303     2.373
    41   1 H        0.924     0.030     2.581     2.512
    42   1 H        0.925     0.059     2.213     2.327
    43   1 H        0.925     0.045     2.384     2.414
    44   1 H        0.925     0.071     2.078     2.254
    45   1 H        0.925     0.096     1.820     2.109
    46   1 H        0.924     0.088     1.896     2.153
    47   1 H        0.924     0.096     1.823     2.111
    48   1 H        0.924     0.088     1.899     2.155
    49   1 H        0.924     0.096     1.826     2.113
    50   1 H        0.923     0.049     2.331     2.388
    51   1 H        0.924     0.053     2.284     2.364
    52   1 H        0.924     0.065     2.141     2.288
    53   1 H        0.924     0.040     2.442     2.444
    54   1 H        0.923     0.041     2.439     2.442
    55   1 H        0.805     0.303     0.712     1.326
    56   1 H        0.925     0.092     1.860     2.133
    57   1 H        0.925     0.093     1.854     2.129
    58   1 H        0.925     0.127     1.560     1.953
    59   1 H        0.925     0.098     1.801     2.099
    60   1 H        0.925     0.101     1.779     2.086
    61   1 H        0.925     0.092     1.856     2.131

Wiberg/Mayer (AO) data.
largest (>0.10) Wiberg bond orders for each atom

     #   Z sym  total        # sym  WBO       # sym  WBO       # sym  WBO
 ---------------------------------------------------------------------------
     1   6 C    3.997 --     2 C    1.020    24 H    0.988    23 H    0.987
                            22 H    0.986
     2   6 C    3.998 --     1 C    1.020     3 C    1.008    26 H    0.978
                            25 H    0.976
     3   6 C    3.997 --     2 C    1.008     4 C    1.008    28 H    0.977
                            27 H    0.976
     4   6 C    3.997 --     5 C    1.008     3 C    1.008    29 H    0.975
                            30 H    0.975
     5   6 C    3.997 --     4 C    1.008     6 C    1.008    31 H    0.975
                            32 H    0.974
     6   6 C    3.997 --     5 C    1.008     7 C    1.008    33 H    0.975
                            34 H    0.974
     7   6 C    3.997 --     6 C    1.008     8 C    1.008    35 H    0.975
                            36 H    0.974
     8   6 C    3.996 --     7 C    1.008     9 C    1.007    37 H    0.974
                            38 H    0.973
     9   6 C    3.995 --    10 C    1.008     8 C    1.007    39 H    0.974
                            40 H    0.972
    10   6 C    3.992 --     9 C    1.008    11 C    1.004    41 H    0.976
                            42 H    0.971
    11   6 C    3.986 --    10 C    1.004    12 C    1.002    43 H    0.967
                            44 H    0.967
    12   6 C    3.922 --    11 C    1.002    45 H    0.966    46 H    0.962
                            13 N    0.924
    13   7 N    3.811 --    21 C    0.961    20 C    0.955    14 C    0.934
                            12 C    0.924
    14   6 C    3.941 --    15 C    1.005    47 H    0.965    48 H    0.965
                            13 N    0.934
    15   6 C    3.949 --    14 C    1.005    16 O    0.984    50 H    0.962
                            49 H    0.949
    16   8 O    2.071 --    15 C    0.984    17 C    0.971
    17   6 C    3.946 --    18 C    0.996    16 O    0.971    52 H    0.968
                            51 H    0.967
    18   6 C    3.958 --    19 O    0.997    17 C    0.996    53 H    0.971
                            54 H    0.968
    19   8 O    1.955 --    18 C    0.997    55 H    0.893
    20   6 C    3.920 --    56 H    0.976    57 H    0.975    58 H    0.961
                            13 N    0.955
    21   6 C    3.931 --    61 H    0.976    59 H    0.974    60 H    0.971
                            13 N    0.961
    22   1 H    0.999 --     1 C    0.986
    23   1 H    0.999 --     1 C    0.987
    24   1 H    0.999 --     1 C    0.988
    25   1 H    0.999 --     2 C    0.976
    26   1 H    0.999 --     2 C    0.978
    27   1 H    0.999 --     3 C    0.976
    28   1 H    0.999 --     3 C    0.977
    29   1 H    0.999 --     4 C    0.975
    30   1 H    0.999 --     4 C    0.975
    31   1 H    0.999 --     5 C    0.975
    32   1 H    0.999 --     5 C    0.974
    33   1 H    0.999 --     6 C    0.975
    34   1 H    0.999 --     6 C    0.974
    35   1 H    0.999 --     7 C    0.975
    36   1 H    0.998 --     7 C    0.974
    37   1 H    1.000 --     8 C    0.974
    38   1 H    0.998 --     8 C    0.973
    39   1 H    0.999 --     9 C    0.974
    40   1 H    0.997 --     9 C    0.972
    41   1 H    0.999 --    10 C    0.976
    42   1 H    0.996 --    10 C    0.971
    43   1 H    0.998 --    11 C    0.967
    44   1 H    0.995 --    11 C    0.967
    45   1 H    0.991 --    12 C    0.966
    46   1 H    0.992 --    12 C    0.962
    47   1 H    0.991 --    14 C    0.965
    48   1 H    0.992 --    14 C    0.965
    49   1 H    0.991 --    15 C    0.949
    50   1 H    0.998 --    15 C    0.962
    51   1 H    0.997 --    17 C    0.967
    52   1 H    0.995 --    17 C    0.968
    53   1 H    0.998 --    18 C    0.971
    54   1 H    0.998 --    18 C    0.968
    55   1 H    0.908 --    19 O    0.893
    56   1 H    0.992 --    20 C    0.976
    57   1 H    0.991 --    20 C    0.975
    58   1 H    0.984 --    20 C    0.961
    59   1 H    0.990 --    21 C    0.974
    60   1 H    0.990 --    21 C    0.971
    61   1 H    0.991 --    21 C    0.976
 ---------------------------------------------------------------------------

molecular dipole:
                 x           y           z       tot (Debye)
 q only:      -10.159     -15.248      -6.484
   full:      -10.181     -15.566      -6.652      50.209

           -------------------------------------------------
          | TOTAL ENERGY              -69.612503422916 Eh   |
          | GRADIENT NORM               0.000462498775 Eh/α |
          | HOMO-LUMO GAP               6.704024638544 eV   |
           -------------------------------------------------

 * finished run on 2024/12/20 at 06:47:51.834
