   * xtb version 6.7.1 (edcfbbe) compiled by 'conda@3ef47c1a292c' on 2024-11-25

   ID    Z sym.   atoms
    1    6 C      1, 3-10
    2    7 N      2
    3    1 H      11-32

          program call               : xtb C0538.xyz --opt --namespace C0538 --charge +1
          :  Hamiltonian                  GFN2-xTB          :
 * total energy  :   -33.0108198 Eh     change       -0.4359180E-10 Eh
 * total energy  :   -33.0165788 Eh     change       -0.5759055E-02 Eh
 * total energy  :   -33.0178939 Eh     change       -0.1315108E-02 Eh
 * total energy  :   -33.0179578 Eh     change       -0.6387411E-04 Eh
 * total energy  :   -33.0180003 Eh     change       -0.4247254E-04 Eh
 * total energy  :   -33.0180154 Eh     change       -0.1516918E-04 Eh
 * total energy  :   -33.0180400 Eh     change       -0.2453170E-04 Eh
 * total energy  :   -33.0180490 Eh     change       -0.9053388E-05 Eh
 * total energy  :   -33.0180628 Eh     change       -0.1373703E-04 Eh
 * total energy  :   -33.0180613 Eh     change        0.1421524E-05 Eh
 * total energy  :   -33.0180699 Eh     change       -0.8511956E-05 Eh
 * total energy  :   -33.0180817 Eh     change       -0.1186093E-04 Eh
 * total energy  :   -33.0180900 Eh     change       -0.8237921E-05 Eh
 * total energy  :   -33.0181008 Eh     change       -0.1089197E-04 Eh
 * total energy  :   -33.0181064 Eh     change       -0.5527932E-05 Eh
 * total energy  :   -33.0181102 Eh     change       -0.3778505E-05 Eh
   *** GEOMETRY OPTIMIZATION CONVERGED AFTER 16 ITERATIONS ***

 final structure:
================
32
 xtb: 6.7.1 (edcfbbe)
C            1.13351868117053        0.12468777936670        0.16587326274153
N            0.56863787839545        0.40923034054156       -1.16600217878336
C            0.84236385660100       -0.72954732616170       -2.10629202334771
C            0.43419691549663       -2.14703555451582       -1.69111344931715
C           -1.02556428746540       -2.57327286620852       -1.89507148981172
C           -1.58983353451214       -2.32784961054176       -3.29572361784588
C           -0.81344018207159       -3.04706020675799       -4.39268495902813
C           -0.90086758093526        0.65883621252639       -1.07225324020302
C           -1.31918181915233        1.85122808479250       -0.22549710953540
C            1.24610347593973        1.59874380896519       -1.72028241114554
H            0.53583787340694       -0.62227131133964        0.68292726834259
H            1.15273988801464        1.03018865541804        0.76777161644373
H            2.15312376890288       -0.24312883627649        0.06549654510521
H            0.37192239597886       -0.48713539476137       -3.06008311412026
H            1.92383541740571       -0.73615910853019       -2.26039956135926
H            1.04644073957048       -2.80730366900298       -2.30815867861875
H            0.71998487581016       -2.34580738483082       -0.65834129630830
H           -1.06218610936360       -3.64685172833974       -1.70115144466564
H           -1.68439982606614       -2.10786332188572       -1.15978110011372
H           -2.61852386188924       -2.69095520770525       -3.30228100995772
H           -1.63398539448720       -1.25817976142617       -3.51555338713304
H           -0.74313571029985       -4.10883865752916       -4.17200653406146
H           -1.32539875050792       -2.93384860433154       -5.34423894008978
H            0.19305402261427       -2.65040147538366       -4.50489366864069
H           -1.27627527467918        0.79439999760674       -2.08841245241383
H           -1.35440459084491       -0.24007699470420       -0.65726480000650
H           -0.98974232484516        2.79843645063553       -0.64206219737590
H           -2.40612847827487        1.87209533324926       -0.20411930465194
H           -0.97780871668168        1.77037267288623        0.80226821747883
H            1.11106335853892        2.45358322188917       -1.06246652310072
H            2.31375106749803        1.41093893222877       -1.81921271218584
H            0.84071222673308        1.84055553012621       -2.70132970629117

          :  Hamiltonian                  GFN2-xTB          :
         :: total energy             -33.018110152758 Eh    ::
         :: gradient norm              0.000377011874 Eh/a0 ::
         :: HOMO-LUMO gap              8.335289503722 eV    ::
         :: SCC energy               -33.494943208421 Eh    ::
         :: -> dispersion             -0.022532306446 Eh    ::
         :: repulsion energy           0.476833055662 Eh    ::

    * Orbital Energies and Occupations

         #    Occupation            Energy/Eh            Energy/eV
      -------------------------------------------------------------
         1        2.0000           -0.8631472             -23.4874
       ...           ...                  ...                  ...
        19        2.0000           -0.6426985             -17.4887
        20        2.0000           -0.6371060             -17.3365
        21        2.0000           -0.6318369             -17.1932
        22        2.0000           -0.6264991             -17.0479
        23        2.0000           -0.6169186             -16.7872
        24        2.0000           -0.6085503             -16.5595
        25        2.0000           -0.6012316             -16.3603
        26        2.0000           -0.5920093             -16.1094
        27        2.0000           -0.5863305             -15.9549
        28        2.0000           -0.5743953             -15.6301
        29        2.0000           -0.5501529             -14.9704
        30        2.0000           -0.5439705             -14.8022
        31        2.0000           -0.5392371             -14.6734 (HOMO)
        32                         -0.2329209              -6.3381 (LUMO)
        33                         -0.1653331              -4.4989
        34                         -0.1551730              -4.2225
        35                         -0.1453153              -3.9542
        36                         -0.0790755              -2.1518
        37                         -0.0655937              -1.7849
        38                         -0.0467406              -1.2719
        39                         -0.0386945              -1.0529
        40                         -0.0287033              -0.7811
        41                         -0.0140012              -0.3810
        42                         -0.0040023              -0.1089
       ...                                ...                  ...
        62                          0.1946162               5.2958
      -------------------------------------------------------------
                  HL-Gap            0.3063163 Eh            8.3353 eV

     #   Z          covCN         q      C6AA      α(0)
     1   6 C        3.716    -0.092    22.393     6.760
     2   7 N        3.620     0.129    19.039     6.481
     3   6 C        3.761    -0.042    21.370     6.590
     4   6 C        3.799    -0.076    21.959     6.672
     5   6 C        3.800    -0.069    21.831     6.653
     6   6 C        3.799    -0.059    21.637     6.623
     7   6 C        3.752    -0.112    22.713     6.796
     8   6 C        3.757    -0.034    21.229     6.569
     9   6 C        3.751    -0.130    23.068     6.850
    10   6 C        3.726    -0.095    22.421     6.761
    11   1 H        0.925     0.099     1.793     2.094
    12   1 H        0.925     0.099     1.791     2.093
    13   1 H        0.925     0.096     1.823     2.111
    14   1 H        0.924     0.090     1.875     2.141
    15   1 H        0.924     0.079     1.990     2.206
    16   1 H        0.924     0.080     1.982     2.202
    17   1 H        0.925     0.055     2.260     2.351
    18   1 H        0.924     0.062     2.181     2.309
    19   1 H        0.924     0.031     2.568     2.506
    20   1 H        0.924     0.051     2.305     2.374
    21   1 H        0.924     0.021     2.717     2.578
    22   1 H        0.925     0.049     2.332     2.388
    23   1 H        0.925     0.051     2.312     2.378
    24   1 H        0.925     0.032     2.559     2.501
    25   1 H        0.924     0.083     1.945     2.181
    26   1 H        0.925     0.093     1.849     2.127
    27   1 H        0.925     0.066     2.127     2.281
    28   1 H        0.925     0.085     1.926     2.170
    29   1 H        0.925     0.066     2.129     2.282
    30   1 H        0.925     0.102     1.764     2.077
    31   1 H        0.925     0.095     1.833     2.117
    32   1 H        0.925     0.096     1.826     2.113

Wiberg/Mayer (AO) data.
largest (>0.10) Wiberg bond orders for each atom

     #   Z sym  total        # sym  WBO       # sym  WBO       # sym  WBO
 ---------------------------------------------------------------------------
     1   6 C    3.931 --    13 H    0.975    11 H    0.973    12 H    0.972
                             2 N    0.961
     2   7 N    3.809 --     1 C    0.961    10 C    0.960     8 C    0.926
                             3 C    0.920
     3   6 C    3.927 --     4 C    1.006    15 H    0.968    14 H    0.962
                             2 N    0.920
     4   6 C    3.983 --     3 C    1.006     5 C    1.005    17 H    0.969
                            16 H    0.963
     5   6 C    3.992 --     6 C    1.008     4 C    1.005    18 H    0.972
                            19 H    0.968
     6   6 C    3.996 --     7 C    1.020     5 C    1.008    20 H    0.975
                            21 H    0.974
     7   6 C    3.994 --     6 C    1.020    24 H    0.986    22 H    0.986
                            23 H    0.985
     8   6 C    3.932 --     9 C    1.022    25 H    0.967    26 H    0.957
                             2 N    0.926
     9   6 C    3.982 --     8 C    1.022    29 H    0.981    27 H    0.980
                            28 H    0.973
    10   6 C    3.930 --    32 H    0.976    31 H    0.975    30 H    0.970
                             2 N    0.960
    11   1 H    0.990 --     1 C    0.973
    12   1 H    0.990 --     1 C    0.972
    13   1 H    0.991 --     1 C    0.975
    14   1 H    0.992 --     3 C    0.962
    15   1 H    0.993 --     3 C    0.968
    16   1 H    0.993 --     4 C    0.963
    17   1 H    0.997 --     4 C    0.969
    18   1 H    0.996 --     5 C    0.972
    19   1 H    0.999 --     5 C    0.968
    20   1 H    0.997 --     6 C    0.975
    21   1 H    1.000 --     6 C    0.974
    22   1 H    0.998 --     7 C    0.986
    23   1 H    0.997 --     7 C    0.985
    24   1 H    0.999 --     7 C    0.986
    25   1 H    0.993 --     8 C    0.967
    26   1 H    0.991 --     8 C    0.957
    27   1 H    0.995 --     9 C    0.980
    28   1 H    0.992 --     9 C    0.973
    29   1 H    0.996 --     9 C    0.981
    30   1 H    0.989 --    10 C    0.970
    31   1 H    0.991 --    10 C    0.975
    32   1 H    0.991 --    10 C    0.976
 ---------------------------------------------------------------------------

molecular dipole:
                 x           y           z       tot (Debye)
 q only:        0.727       0.412      -2.285
   full:        0.793       0.451      -2.299       6.287

           -------------------------------------------------
          | TOTAL ENERGY              -33.018110152758 Eh   |
          | GRADIENT NORM               0.000377011874 Eh/α |
          | HOMO-LUMO GAP               8.335289503722 eV   |
           -------------------------------------------------

 * finished run on 2024/12/20 at 06:47:55.949
