   * xtb version 6.7.1 (edcfbbe) compiled by 'conda@3ef47c1a292c' on 2024-11-25

   ID    Z sym.   atoms
    1    6 C      1-16, 18, 19, 21, 23-31
    2    7 N      17
    3    8 O      20, 22
    4    1 H      32-89

          program call               : xtb C0531.xyz --opt --namespace C0531 --charge +1
          :  Hamiltonian                  GFN2-xTB          :
 * total energy  :  -100.2090741 Eh     change       -0.1514920E-08 Eh
 * total energy  :  -100.2215515 Eh     change       -0.1247735E-01 Eh
 * total energy  :  -100.2249823 Eh     change       -0.3430847E-02 Eh
 * total energy  :  -100.2255950 Eh     change       -0.6126849E-03 Eh
 * total energy  :  -100.2261583 Eh     change       -0.5633365E-03 Eh
 * total energy  :  -100.2265990 Eh     change       -0.4406608E-03 Eh
 * total energy  :  -100.2271074 Eh     change       -0.5084399E-03 Eh
 * total energy  :  -100.2276955 Eh     change       -0.5880990E-03 Eh
 * total energy  :  -100.2282853 Eh     change       -0.5897651E-03 Eh
 * total energy  :  -100.2288875 Eh     change       -0.6021814E-03 Eh
 * total energy  :  -100.2389107 Eh     change       -0.6390789E-04 Eh
 * total energy  :  -100.2389607 Eh     change       -0.4999321E-04 Eh
 * total energy  :  -100.2389839 Eh     change       -0.2320430E-04 Eh
 * total energy  :  -100.2390079 Eh     change       -0.2399143E-04 Eh
 * total energy  :  -100.2390341 Eh     change       -0.2621252E-04 Eh
 * total energy  :  -100.2390522 Eh     change       -0.1808454E-04 Eh
 * total energy  :  -100.2390717 Eh     change       -0.1948082E-04 Eh
 * total energy  :  -100.2390809 Eh     change       -0.9220826E-05 Eh
 * total energy  :  -100.2390848 Eh     change       -0.3899864E-05 Eh
   *** GEOMETRY OPTIMIZATION CONVERGED AFTER 68 ITERATIONS ***

 final structure:
================
89
 xtb: 6.7.1 (edcfbbe)
C            1.24804944213866       -0.72120366058358        0.06759003879526
C            1.23589737354730        0.79783987528406        0.18837834084144
C            1.67672247856726        1.50882070844388       -1.09200730096536
C            0.78009102316721        1.26733808628608       -2.30858143655348
C           -0.68688272579671        1.66044629293035       -2.12132355968114
C           -0.91830286887605        3.11620117119807       -1.71243318992377
C           -0.39336242893443        4.15639555528006       -2.70324821114927
C           -1.04983247911756        4.12543378992240       -4.08485883527081
C           -2.56818951352812        4.32519428076194       -4.08850030291237
C           -3.05627749033009        5.57513926958485       -3.35313951521101
C           -2.52842805316806        6.89811511828397       -3.91033003796603
C           -3.08202243249058        7.28466564718649       -5.28333445427378
C           -4.58961690020246        7.54674170777986       -5.24992107045506
C           -5.07167622269479        8.47793596809273       -6.36395408943569
C           -4.83946447493514        7.98357582223561       -7.79777497547346
C           -5.61305260901786        6.77983993370642       -8.35947293259663
N           -7.11054614459606        6.87333014791815       -8.48832111844446
C           -7.51974669091191        8.28481732012449       -8.76772036996408
C           -6.97663542836816        8.89811771850325      -10.06439607480934
O           -7.97487077948080        8.90708823445908      -11.07790675249767
C           -7.64767814049883        8.37606415984304      -12.28302587500101
O           -6.61213263683832        7.79606764259392      -12.46406444952950
C           -8.72985510296843        8.60938383787928      -13.28304652106912
C           -7.66123433641444        6.01098651065145       -9.60967293261692
C           -6.69843362612814        5.18969364715227      -10.46900464398069
C           -7.48592546716707        4.17684574921942      -11.31242429428186
C           -8.35697546376844        4.82310230369135      -12.38232322906850
C           -7.72396902130689        6.50915678259083       -7.14898116237225
C           -8.20836292245081        5.07832047609645       -6.87469827357562
C           -7.21815598279556        3.91594590736384       -7.00221168590779
C           -6.18879190678528        3.85221228503099       -5.88050338029971
H            0.51277531059150       -1.06374552104999       -0.65611422575066
H            1.01478781623141       -1.17697729956004        1.02720735896767
H            2.22944970484060       -1.06973382439950       -0.24673857195749
H            0.23715033968572        1.13201023299709        0.47483011594921
H            1.91788954267158        1.09209891100823        0.98998325557779
H            1.73521860760276        2.58111336690341       -0.89347953548391
H            2.68552599755517        1.17302656176468       -1.34566307457161
H            1.19725474322654        1.81991820505765       -3.15360339003846
H            0.81608056655418        0.20893871639848       -2.57404575154775
H           -1.21711880073049        1.45725039574321       -3.05499250464480
H           -1.13280233295548        1.01994300343140       -1.35781055213843
H           -1.99056009760729        3.26420519457160       -1.56473751129741
H           -0.43796402069990        3.29458867996482       -0.74885503423629
H           -0.52621509650084        5.14732434362190       -2.26364031024381
H            0.68001581277153        4.01226067701369       -2.83690530947402
H           -0.58247960117363        4.89757370044517       -4.70084991420498
H           -0.83503366071161        3.16749815134370       -4.56254188221940
H           -2.90377769170092        4.35504726944843       -5.12897009992098
H           -3.04252768916668        3.45695487938786       -3.62697313866688
H           -4.14895381582280        5.58396386490396       -3.36575692680469
H           -2.75478936190218        5.50465713762898       -2.30792886734460
H           -2.77643347602744        7.69430398526732       -3.20414216935170
H           -1.44137256903992        6.85118176949282       -3.97386949624082
H           -2.57306281661368        8.19632256005493       -5.60470652378965
H           -2.84589154528926        6.50119434718256       -6.00541618313326
H           -5.12811127865375        6.59876651785443       -5.27533587321397
H           -4.83524468593745        8.02641101258337       -4.30006099056671
H           -6.11974430934675        8.73286396255734       -6.18781374252886
H           -4.51152322352156        9.41121633573200       -6.27175407987970
H           -4.95353268051939        8.83363900597297       -8.47029411873762
H           -3.79129443139802        7.68343862344336       -7.86379675199844
H           -5.20477150139347        6.61947666430591       -9.35564068139310
H           -5.39898149412698        5.89382809279090       -7.76387239860176
H           -8.61075743720743        8.31874197911653       -8.82971166923235
H           -7.21244368851395        8.89920308088978       -7.92338735245371
H           -6.70714809705546        9.94295384027303       -9.88226941698232
H           -6.10337848588926        8.36672772954333      -10.45645454894110
H           -9.67090939935335        8.82698069715393      -12.78798688674454
H           -8.44904856535821        9.46749391982849      -13.89257389766576
H           -8.82253009260226        7.75006346439056      -13.94137695445333
H           -8.37594270504200        5.31933877065364       -9.17320881276361
H           -8.21841528233982        6.66194329844793      -10.27946542498164
H           -6.13929230985127        5.82994162861955      -11.15323364195549
H           -5.99503779130463        4.62738370480641       -9.85477155640955
H           -6.76161828835486        3.52645371933013      -11.80382594839163
H           -8.09932517005019        3.55051564054169      -10.66050818812358
H           -7.75798706260574        5.48930533205686      -12.99766261394469
H           -8.78080722821849        4.05630179750152      -13.02427399069820
H           -9.18093249070166        5.38586355952217      -11.94881258613052
H           -6.99088418552012        6.77386378777889       -6.39119388699364
H           -8.59768225690892        7.14801146973377       -7.00584041163052
H           -8.55169288050727        5.10713612970522       -5.83670767522360
H           -9.09691750471468        4.85741158490917       -7.46958299034887
H           -7.80472324095851        2.99613071204894       -6.96870191171130
H           -6.71366941310737        3.93164077442771       -7.96770864484189
H           -6.67992608821650        3.83084947764120       -4.91100864855320
H           -5.59506416098725        2.94724446894672       -5.97580449071140
H           -5.50464690385993        4.69652761884182       -5.89798667546376

          :  Hamiltonian                  GFN2-xTB          :
         :: total energy            -100.239084773475 Eh    ::
         :: gradient norm              0.000462055575 Eh/a0 ::
         :: HOMO-LUMO gap              2.957371374882 eV    ::
         :: SCC energy              -101.611209520206 Eh    ::
         :: -> dispersion             -0.082193547142 Eh    ::
         :: repulsion energy           1.372124746732 Eh    ::

    * Orbital Energies and Occupations

         #    Occupation            Energy/Eh            Energy/eV
      -------------------------------------------------------------
         1        2.0000           -0.8664099             -23.5762
       ...           ...                  ...                  ...
        81        2.0000           -0.5156121             -14.0305
        82        2.0000           -0.5088605             -13.8468
        83        2.0000           -0.5054651             -13.7544
        84        2.0000           -0.4997509             -13.5989
        85        2.0000           -0.4940555             -13.4439
        86        2.0000           -0.4905797             -13.3494
        87        2.0000           -0.4865720             -13.2403
        88        2.0000           -0.4767589             -12.9733
        89        2.0000           -0.4749365             -12.9237
        90        2.0000           -0.4723353             -12.8529
        91        2.0000           -0.4616867             -12.5631
        92        2.0000           -0.4566917             -12.4272
        93        2.0000           -0.4551085             -12.3841 (HOMO)
        94                         -0.3464271              -9.4268 (LUMO)
        95                         -0.2430400              -6.6135
        96                         -0.1880677              -5.1176
        97                         -0.1631361              -4.4392
        98                         -0.1609535              -4.3798
        99                         -0.1231984              -3.3524
       100                         -0.0764069              -2.0791
       101                         -0.0740840              -2.0159
       102                         -0.0550654              -1.4984
       103                         -0.0512663              -1.3950
       104                         -0.0442919              -1.2052
       ...                                ...                  ...
       182                          0.5434706              14.7886
      -------------------------------------------------------------
                  HL-Gap            0.1086814 Eh            2.9574 eV

     #   Z          covCN         q      C6AA      α(0)
     1   6 C        3.751    -0.102    22.503     6.765
     2   6 C        3.799    -0.052    21.511     6.604
     3   6 C        3.800    -0.057    21.608     6.618
     4   6 C        3.800    -0.057    21.594     6.616
     5   6 C        3.800    -0.056    21.578     6.614
     6   6 C        3.800    -0.057    21.605     6.618
     7   6 C        3.800    -0.058    21.623     6.621
     8   6 C        3.800    -0.057    21.601     6.617
     9   6 C        3.800    -0.055    21.566     6.612
    10   6 C        3.800    -0.060    21.658     6.626
    11   6 C        3.801    -0.062    21.686     6.630
    12   6 C        3.800    -0.061    21.678     6.629
    13   6 C        3.801    -0.063    21.718     6.635
    14   6 C        3.799    -0.067    21.795     6.647
    15   6 C        3.798    -0.081    22.048     6.686
    16   6 C        3.745    -0.042    21.397     6.598
    17   7 N        3.611     0.097    19.560     6.569
    18   6 C        3.760    -0.039    21.324     6.583
    19   6 C        3.694     0.063    19.687     6.348
    20   8 O        1.704    -0.280    18.642     5.829
    21   6 C        2.709     0.364    20.820     7.469
    22   8 O        0.856    -0.402    21.730     6.250
    23   6 C        3.754    -0.154    23.548     6.920
    24   6 C        3.747    -0.042    21.394     6.597
    25   6 C        3.799    -0.071    21.859     6.657
    26   6 C        3.801    -0.060    21.647     6.624
    27   6 C        3.751    -0.114    22.750     6.802
    28   6 C        3.751    -0.043    21.399     6.597
    29   6 C        3.798    -0.070    21.849     6.655
    30   6 C        3.799    -0.064    21.726     6.637
    31   6 C        3.751    -0.111    22.691     6.793
    32   1 H        0.925     0.033     2.541     2.493
    33   1 H        0.925     0.032     2.558     2.501
    34   1 H        0.925     0.034     2.526     2.485
    35   1 H        0.924     0.030     2.587     2.515
    36   1 H        0.924     0.028     2.618     2.530
    37   1 H        0.924     0.028     2.609     2.526
    38   1 H        0.924     0.030     2.589     2.516
    39   1 H        0.924     0.027     2.635     2.539
    40   1 H        0.924     0.032     2.562     2.503
    41   1 H        0.924     0.023     2.681     2.561
    42   1 H        0.924     0.032     2.560     2.502
    43   1 H        0.924     0.025     2.653     2.547
    44   1 H        0.924     0.034     2.524     2.484
    45   1 H        0.924     0.028     2.614     2.528
    46   1 H        0.924     0.036     2.507     2.476
    47   1 H        0.924     0.025     2.656     2.549
    48   1 H        0.924     0.033     2.545     2.495
    49   1 H        0.924     0.016     2.797     2.615
    50   1 H        0.924     0.033     2.549     2.497
    51   1 H        0.924     0.022     2.707     2.573
    52   1 H        0.925     0.043     2.414     2.430
    53   1 H        0.924     0.032     2.558     2.501
    54   1 H        0.925     0.045     2.380     2.412
    55   1 H        0.924     0.034     2.529     2.487
    56   1 H        0.924     0.031     2.578     2.511
    57   1 H        0.924     0.027     2.633     2.538
    58   1 H        0.924     0.047     2.355     2.400
    59   1 H        0.924     0.024     2.673     2.557
    60   1 H        0.924     0.056     2.251     2.346
    61   1 H        0.925     0.048     2.348     2.396
    62   1 H        0.924     0.080     1.976     2.199
    63   1 H        0.925     0.087     1.907     2.159
    64   1 H        0.925     0.093     1.849     2.126
    65   1 H        0.924     0.095     1.827     2.114
    66   1 H        0.925     0.094     1.845     2.124
    67   1 H        0.924     0.078     1.996     2.209
    68   1 H        0.924     0.089     1.890     2.150
    69   1 H        0.925     0.084     1.938     2.177
    70   1 H        0.925     0.105     1.741     2.063
    71   1 H        0.925     0.096     1.824     2.112
    72   1 H        0.925     0.090     1.875     2.141
    73   1 H        0.925     0.085     1.933     2.174
    74   1 H        0.924     0.070     2.087     2.259
    75   1 H        0.925     0.047     2.360     2.402
    76   1 H        0.924     0.058     2.219     2.330
    77   1 H        0.924     0.039     2.467     2.456
    78   1 H        0.925     0.053     2.286     2.365
    79   1 H        0.925     0.054     2.267     2.354
    80   1 H        0.925     0.028     2.612     2.528
    81   1 H        0.925     0.098     1.802     2.099
    82   1 H        0.924     0.071     2.070     2.250
    83   1 H        0.924     0.075     2.032     2.229
    84   1 H        0.924     0.049     2.329     2.387
    85   1 H        0.924     0.055     2.262     2.352
    86   1 H        0.925     0.039     2.460     2.453
    87   1 H        0.925     0.047     2.355     2.400
    88   1 H        0.925     0.053     2.278     2.360
    89   1 H        0.925     0.034     2.532     2.489

Wiberg/Mayer (AO) data.
largest (>0.10) Wiberg bond orders for each atom

     #   Z sym  total        # sym  WBO       # sym  WBO       # sym  WBO
 ---------------------------------------------------------------------------
     1   6 C    3.997 --     2 C    1.020    34 H    0.988    33 H    0.987
                            32 H    0.986
     2   6 C    3.998 --     1 C    1.020     3 C    1.008    36 H    0.978
                            35 H    0.976
     3   6 C    3.997 --     2 C    1.008     4 C    1.008    38 H    0.977
                            37 H    0.976
     4   6 C    3.998 --     5 C    1.008     3 C    1.008    40 H    0.976
                            39 H    0.975
     5   6 C    3.998 --     6 C    1.008     4 C    1.008    41 H    0.976
                            42 H    0.975
     6   6 C    3.997 --     7 C    1.008     5 C    1.008    43 H    0.975
                            44 H    0.974
     7   6 C    3.997 --     6 C    1.008     8 C    1.008    45 H    0.975
                            46 H    0.974
     8   6 C    3.997 --     7 C    1.008     9 C    1.007    47 H    0.976
                            48 H    0.975
     9   6 C    3.998 --    10 C    1.008     8 C    1.007    50 H    0.976
                            49 H    0.975
    10   6 C    3.997 --    11 C    1.008     9 C    1.008    51 H    0.976
                            52 H    0.973
    11   6 C    3.995 --    10 C    1.008    12 C    1.006    53 H    0.976
                            54 H    0.972
    12   6 C    3.996 --    13 C    1.006    11 C    1.006    55 H    0.976
                            56 H    0.975
    13   6 C    3.994 --    12 C    1.006    14 C    1.006    58 H    0.973
                            57 H    0.963
    14   6 C    3.992 --    13 C    1.006    15 C    1.004    60 H    0.971
                            59 H    0.967
    15   6 C    3.984 --    14 C    1.004    16 C    1.004    61 H    0.972
                            62 H    0.960
    16   6 C    3.929 --    15 C    1.004    64 H    0.961    63 H    0.960
                            17 N    0.927
    17   7 N    3.793 --    18 C    0.949    16 C    0.927    28 C    0.921
                            24 C    0.915
    18   6 C    3.945 --    19 C    0.999    65 H    0.963    66 H    0.959
                            17 N    0.949
    19   6 C    3.935 --    18 C    0.999    67 H    0.962    20 O    0.958
                            68 H    0.951
    20   8 O    2.275 --    21 C    1.082    19 C    0.958    22 O    0.162
    21   6 C    3.909 --    22 O    1.762    20 O    1.082    23 C    1.009
    22   8 O    2.057 --    21 C    1.762    20 O    0.162
    23   6 C    3.985 --    21 C    1.009    69 H    0.977    71 H    0.965
                            70 H    0.940
    24   6 C    3.922 --    25 C    1.008    73 H    0.964    72 H    0.955
                            17 N    0.915
    25   6 C    3.987 --    24 C    1.008    26 C    0.995    75 H    0.968
                            74 H    0.967
    26   6 C    3.992 --    27 C    1.021    25 C    0.995    77 H    0.977
                            76 H    0.974
    27   6 C    3.994 --    26 C    1.021    80 H    0.987    79 H    0.985
                            78 H    0.984
    28   6 C    3.929 --    29 C    1.006    82 H    0.970    81 H    0.958
                            17 N    0.921
    29   6 C    3.985 --    28 C    1.006    30 C    1.005    84 H    0.966
                            83 H    0.959
    30   6 C    3.993 --    31 C    1.020    29 C    1.005    85 H    0.974
                            86 H    0.969
    31   6 C    3.993 --    30 C    1.020    87 H    0.986    88 H    0.984
                            89 H    0.973
    32   1 H    0.999 --     1 C    0.986
    33   1 H    0.999 --     1 C    0.987
    34   1 H    0.999 --     1 C    0.988
    35   1 H    0.999 --     2 C    0.976
    36   1 H    0.999 --     2 C    0.978
    37   1 H    0.999 --     3 C    0.976
    38   1 H    0.999 --     3 C    0.977
    39   1 H    0.999 --     4 C    0.975
    40   1 H    0.999 --     4 C    0.976
    41   1 H    0.999 --     5 C    0.976
    42   1 H    0.999 --     5 C    0.975
    43   1 H    0.999 --     6 C    0.975
    44   1 H    0.999 --     6 C    0.974
    45   1 H    0.999 --     7 C    0.975
    46   1 H    0.999 --     7 C    0.974
    47   1 H    0.999 --     8 C    0.976
    48   1 H    0.999 --     8 C    0.975
    49   1 H    1.000 --     9 C    0.975
    50   1 H    0.999 --     9 C    0.976
    51   1 H    1.000 --    10 C    0.976
    52   1 H    0.998 --    10 C    0.973
    53   1 H    0.999 --    11 C    0.976
    54   1 H    0.998 --    11 C    0.972
    55   1 H    0.999 --    12 C    0.976
    56   1 H    0.999 --    12 C    0.975
    57   1 H    0.999 --    13 C    0.963
    58   1 H    0.998 --    13 C    0.973
    59   1 H    0.999 --    14 C    0.967
    60   1 H    0.996 --    14 C    0.971
    61   1 H    0.998 --    15 C    0.972
    62   1 H    0.993 --    15 C    0.960
    63   1 H    0.992 --    16 C    0.960
    64   1 H    0.991 --    16 C    0.961
    65   1 H    0.991 --    18 C    0.963
    66   1 H    0.990 --    18 C    0.959
    67   1 H    0.994 --    19 C    0.962
    68   1 H    0.992 --    19 C    0.951
    69   1 H    0.993 --    23 C    0.977
    70   1 H    0.989 --    23 C    0.940
    71   1 H    0.990 --    23 C    0.965
    72   1 H    0.992 --    24 C    0.955
    73   1 H    0.993 --    24 C    0.964
    74   1 H    0.995 --    25 C    0.967
    75   1 H    0.998 --    25 C    0.968
    76   1 H    0.996 --    26 C    0.974
    77   1 H    0.998 --    26 C    0.977
    78   1 H    0.997 --    27 C    0.984
    79   1 H    0.997 --    27 C    0.985
    80   1 H    0.999 --    27 C    0.987
    81   1 H    0.990 --    28 C    0.958
    82   1 H    0.995 --    28 C    0.970
    83   1 H    0.994 --    29 C    0.959
    84   1 H    0.997 --    29 C    0.966
    85   1 H    0.997 --    30 C    0.974
    86   1 H    0.998 --    30 C    0.969
    87   1 H    0.998 --    31 C    0.986
    88   1 H    0.997 --    31 C    0.984
    89   1 H    0.999 --    31 C    0.973
 ---------------------------------------------------------------------------

molecular dipole:
                 x           y           z       tot (Debye)
 q only:      -13.395      12.839     -15.730
   full:      -13.561      13.070     -15.739      62.386

           -------------------------------------------------
          | TOTAL ENERGY             -100.239084773475 Eh   |
          | GRADIENT NORM               0.000462055575 Eh/α |
          | HOMO-LUMO GAP               2.957371374882 eV   |
           -------------------------------------------------

 * finished run on 2024/12/20 at 06:47:45.207
