   * xtb version 6.7.1 (edcfbbe) compiled by 'conda@3ef47c1a292c' on 2024-11-25

   ID    Z sym.   atoms
    1    6 C      1-8, 10-18
    2    7 N      9
    3    1 H      19-42

          program call               : xtb C0534.xyz --opt --namespace C0534 --charge +1
          :  Hamiltonian                  GFN2-xTB          :
 * total energy  :   -51.1767235 Eh     change       -0.2548177E-08 Eh
 * total energy  :   -51.1810350 Eh     change       -0.4311525E-02 Eh
 * total energy  :   -51.1818588 Eh     change       -0.8237677E-03 Eh
 * total energy  :   -51.1819610 Eh     change       -0.1022424E-03 Eh
 * total energy  :   -51.1820531 Eh     change       -0.9210300E-04 Eh
 * total energy  :   -51.1820944 Eh     change       -0.4131687E-04 Eh
 * total energy  :   -51.1821421 Eh     change       -0.4772385E-04 Eh
 * total energy  :   -51.1821842 Eh     change       -0.4206521E-04 Eh
 * total energy  :   -51.1822276 Eh     change       -0.4337186E-04 Eh
 * total energy  :   -51.1822734 Eh     change       -0.4584479E-04 Eh
 * total energy  :   -51.1823322 Eh     change       -0.5878931E-04 Eh
 * total energy  :   -51.1823752 Eh     change       -0.4294755E-04 Eh
 * total energy  :   -51.1823911 Eh     change       -0.1598606E-04 Eh
 * total energy  :   -51.1823992 Eh     change       -0.8032361E-05 Eh
 * total energy  :   -51.1824088 Eh     change       -0.9631801E-05 Eh
 * total energy  :   -51.1824155 Eh     change       -0.6704913E-05 Eh
 * total energy  :   -51.1824207 Eh     change       -0.5161841E-05 Eh
 * total energy  :   -51.1824246 Eh     change       -0.3940871E-05 Eh
   *** GEOMETRY OPTIMIZATION CONVERGED AFTER 18 ITERATIONS ***

 final structure:
================
42
 xtb: 6.7.1 (edcfbbe)
C            1.17970833507861       -0.15852535219233        0.23246725715683
C            0.69463922078037        1.11942732539961       -0.44133204490415
C            1.09860880411105        1.21738001982439       -1.91345976141895
C            0.52566124402315        0.12006012060646       -2.81335986427992
C           -1.00262324277516        0.04312818280640       -2.84581598090903
C           -1.71020406506993        1.33578553964272       -3.26041554579319
C           -1.26750413356789        1.93115315360566       -4.59797891424884
C           -1.59042386300887        1.06361784503603       -5.82354537655979
N           -3.02630532996657        0.83788144498061       -5.94741976019997
C           -3.76423227815229        1.90485127631729       -6.23159293536762
C           -5.15032313890359        1.87994110108574       -6.25298688503486
C           -5.79517620115081        0.70472014426051       -5.94798369105504
C           -5.04139986470255       -0.45101619555920       -5.68324712070736
C           -3.61313662057210       -0.38006653794650       -5.71565625522485
C           -2.88727496963475       -1.57128365531216       -5.53276091385303
C           -3.53533916954071       -2.75308733199395       -5.27591444404386
C           -4.93345686324759       -2.81296092422726       -5.18935249596984
C           -5.67197132248759       -1.68338336412420       -5.40180335864017
H            0.68398275293045       -1.03589495522670       -0.17589434256137
H            0.97133480323205       -0.12131160730738        1.29867420450770
H            2.25270411722888       -0.27444700239389        0.09911203678287
H           -0.39005348372179        1.19526830058083       -0.34200277573295
H            1.12648240355480        1.97594923625877        0.08031891432716
H            0.80267069985096        2.19780517918670       -2.29376295214467
H            2.18771517861307        1.16372395467479       -1.97640848113632
H            0.91138136444916        0.26840058939432       -3.82546704772197
H            0.90077229037605       -0.84605579973634       -2.47327998950403
H           -1.29625985302874       -0.77372468692880       -3.50932025263167
H           -1.36330382324411       -0.22253207842413       -1.85153521659518
H           -2.78945167080249        1.15345940693651       -3.27695008668368
H           -1.52900665201317        2.09037105379070       -2.49477407094338
H           -1.73597729017601        2.91090286080258       -4.71101536004218
H           -0.18927363576489        2.08665139108893       -4.58800480775269
H           -1.24492755539377        1.57342236589573       -6.72666221793084
H           -1.06110042958429        0.11995977885285       -5.74486631253668
H           -3.23268119564803        2.82158608801214       -6.44116926544697
H           -5.69414841188643        2.77881301397100       -6.49133341378388
H           -6.87273270085384        0.65160074345577       -5.92041498307128
H           -1.81396047509288       -1.59268241630804       -5.61633474954573
H           -2.95741540128948       -3.65470965085048       -5.14506411844883
H           -5.41586303524971       -3.75295756560623       -4.97452330907195
H           -6.74998453769468       -1.71062099233281       -5.36999331127480

          :  Hamiltonian                  GFN2-xTB          :
         :: total energy             -51.182424618289 Eh    ::
         :: gradient norm              0.000350334186 Eh/a0 ::
         :: HOMO-LUMO gap              1.058532265116 eV    ::
         :: SCC energy               -52.043438998648 Eh    ::
         :: -> dispersion             -0.039256014996 Eh    ::
         :: repulsion energy           0.861014380358 Eh    ::

    * Orbital Energies and Occupations

         #    Occupation            Energy/Eh            Energy/eV
      -------------------------------------------------------------
         1        2.0000           -0.8586385             -23.3647
       ...           ...                  ...                  ...
        36        2.0000           -0.5782555             -15.7351
        37        2.0000           -0.5765921             -15.6899
        38        2.0000           -0.5758073             -15.6685
        39        2.0000           -0.5670983             -15.4315
        40        2.0000           -0.5574514             -15.1690
        41        2.0000           -0.5557094             -15.1216
        42        2.0000           -0.5525882             -15.0367
        43        2.0000           -0.5376634             -14.6306
        44        2.0000           -0.5309112             -14.4468
        45        2.0000           -0.5262887             -14.3210
        46        2.0000           -0.5055871             -13.7577
        47        2.0000           -0.5016839             -13.6515
        48        2.0000           -0.4971757             -13.5288 (HOMO)
        49                         -0.4582754             -12.4703 (LUMO)
        50                         -0.4056542             -11.0384
        51                         -0.3726970             -10.1416
        52                         -0.3216732              -8.7532
        53                         -0.2387834              -6.4976
        54                         -0.1677277              -4.5641
        55                         -0.0755392              -2.0555
        56                         -0.0667902              -1.8175
        57                         -0.0519833              -1.4145
        58                         -0.0317106              -0.8629
        59                         -0.0255712              -0.6958
       ...                                ...                  ...
        96                          0.5219220              14.2022
      -------------------------------------------------------------
                  HL-Gap            0.0389003 Eh            1.0585 eV

     #   Z          covCN         q      C6AA      α(0)
     1   6 C        3.751    -0.105    22.568     6.775
     2   6 C        3.799    -0.054    21.552     6.610
     3   6 C        3.800    -0.061    21.676     6.629
     4   6 C        3.800    -0.061    21.672     6.628
     5   6 C        3.800    -0.062    21.688     6.631
     6   6 C        3.800    -0.062    21.693     6.631
     7   6 C        3.800    -0.069    21.820     6.651
     8   6 C        3.762    -0.031    21.180     6.560
     9   7 N        2.745     0.082    19.827     6.613
    10   6 C        2.896     0.039    27.118     8.538
    11   6 C        2.910    -0.024    28.613     8.771
    12   6 C        2.925     0.004    27.940     8.668
    13   6 C        2.986     0.027    27.390     8.585
    14   6 C        2.936     0.070    26.434     8.432
    15   6 C        2.913    -0.035    28.861     8.809
    16   6 C        2.918    -0.004    28.118     8.696
    17   6 C        2.913    -0.009    28.252     8.716
    18   6 C        2.920    -0.019    28.476     8.751
    19   1 H        0.925     0.032     2.556     2.500
    20   1 H        0.925     0.039     2.456     2.451
    21   1 H        0.925     0.040     2.450     2.448
    22   1 H        0.924     0.028     2.618     2.530
    23   1 H        0.924     0.036     2.500     2.473
    24   1 H        0.924     0.027     2.634     2.538
    25   1 H        0.924     0.040     2.444     2.445
    26   1 H        0.924     0.023     2.687     2.564
    27   1 H        0.924     0.045     2.378     2.411
    28   1 H        0.924     0.018     2.772     2.603
    29   1 H        0.924     0.049     2.336     2.390
    30   1 H        0.924     0.019     2.754     2.595
    31   1 H        0.925     0.061     2.188     2.313
    32   1 H        0.924     0.048     2.348     2.396
    33   1 H        0.925     0.079     1.987     2.205
    34   1 H        0.924     0.082     1.963     2.191
    35   1 H        0.925     0.092     1.864     2.135
    36   1 H        0.926     0.102     1.769     2.080
    37   1 H        0.926     0.097     1.815     2.107
    38   1 H        0.926     0.095     1.830     2.115
    39   1 H        0.926     0.073     2.048     2.238
    40   1 H        0.926     0.085     1.932     2.173
    41   1 H        0.926     0.085     1.927     2.171
    42   1 H        0.926     0.081     1.969     2.194

Wiberg/Mayer (AO) data.
largest (>0.10) Wiberg bond orders for each atom

     #   Z sym  total        # sym  WBO       # sym  WBO       # sym  WBO
 ---------------------------------------------------------------------------
     1   6 C    3.996 --     2 C    1.020    21 H    0.987    20 H    0.987
                            19 H    0.986
     2   6 C    3.997 --     1 C    1.020     3 C    1.008    23 H    0.978
                            22 H    0.976
     3   6 C    3.996 --     2 C    1.008     4 C    1.007    25 H    0.976
                            24 H    0.976
     4   6 C    3.996 --     3 C    1.007     5 C    1.007    26 H    0.975
                            27 H    0.974
     5   6 C    3.995 --     4 C    1.007     6 C    1.006    29 H    0.973
                            28 H    0.972
     6   6 C    3.993 --     7 C    1.008     5 C    1.006    30 H    0.977
                            31 H    0.970
     7   6 C    3.982 --     6 C    1.008     8 C    0.980    32 H    0.972
                            33 H    0.962
     8   6 C    3.936 --     7 C    0.980     9 N    0.961    34 H    0.960
                            35 H    0.957
     9   7 N    3.742 --    10 C    1.386    14 C    1.191     8 C    0.961
    10   6 C    3.960 --    11 C    1.392     9 N    1.386    36 H    0.953
    11   6 C    3.985 --    12 C    1.485    10 C    1.392    37 H    0.961
    12   6 C    3.973 --    11 C    1.485    13 C    1.313    38 H    0.961
    13   6 C    3.990 --    12 C    1.313    18 C    1.271    14 C    1.221
    14   6 C    3.963 --    15 C    1.306    13 C    1.221     9 N    1.191
    15   6 C    3.988 --    16 C    1.530    14 C    1.306    39 H    0.951
                            18 C    0.112
    16   6 C    3.982 --    15 C    1.530    17 C    1.322    40 H    0.965
    17   6 C    3.984 --    18 C    1.555    16 C    1.322    41 H    0.964
    18   6 C    3.984 --    17 C    1.555    13 C    1.271    42 H    0.963
                            15 C    0.112
    19   1 H    0.999 --     1 C    0.986
    20   1 H    0.998 --     1 C    0.987
    21   1 H    0.998 --     1 C    0.987
    22   1 H    0.999 --     2 C    0.976
    23   1 H    0.999 --     2 C    0.978
    24   1 H    0.999 --     3 C    0.976
    25   1 H    0.998 --     3 C    0.976
    26   1 H    0.999 --     4 C    0.975
    27   1 H    0.998 --     4 C    0.974
    28   1 H    1.000 --     5 C    0.972
    29   1 H    0.998 --     5 C    0.973
    30   1 H    1.000 --     6 C    0.977
    31   1 H    0.996 --     6 C    0.970
    32   1 H    0.998 --     7 C    0.972
    33   1 H    0.993 --     7 C    0.962
    34   1 H    0.993 --     8 C    0.960
    35   1 H    0.991 --     8 C    0.957
    36   1 H    0.989 --    10 C    0.953
    37   1 H    0.990 --    11 C    0.961
    38   1 H    0.990 --    12 C    0.961
    39   1 H    0.994 --    15 C    0.951
    40   1 H    0.992 --    16 C    0.965
    41   1 H    0.992 --    17 C    0.964
    42   1 H    0.993 --    18 C    0.963
 ---------------------------------------------------------------------------

molecular dipole:
                 x           y           z       tot (Debye)
 q only:       -6.565       0.448     -10.405
   full:       -6.619       0.531     -10.529      31.640

           -------------------------------------------------
          | TOTAL ENERGY              -51.182424618289 Eh   |
          | GRADIENT NORM               0.000350334186 Eh/α |
          | HOMO-LUMO GAP               1.058532265116 eV   |
           -------------------------------------------------

 * finished run on 2024/12/20 at 06:47:49.027
