   * xtb version 6.7.1 (edcfbbe) compiled by 'conda@3ef47c1a292c' on 2024-11-25

   ID    Z sym.   atoms
    1    6 C      1-3, 5-19
    2    7 N      4
    3    1 H      20-37

          program call               : xtb C0532.xyz --opt --namespace C0532 --charge +1
          :  Hamiltonian                  GFN2-xTB          :
 * total energy  :   -50.0766826 Eh     change       -0.1329710E-09 Eh
 * total energy  :   -50.1054675 Eh     change       -0.2878483E-01 Eh
 * total energy  :   -50.1096235 Eh     change       -0.4156068E-02 Eh
 * total energy  :   -50.1097263 Eh     change       -0.1027514E-03 Eh
 * total energy  :   -50.1103535 Eh     change       -0.6271768E-03 Eh
 * total energy  :   -50.1104563 Eh     change       -0.1028668E-03 Eh
 * total energy  :   -50.1104990 Eh     change       -0.4272376E-04 Eh
 * total energy  :   -50.1105555 Eh     change       -0.5650074E-04 Eh
 * total energy  :   -50.1105786 Eh     change       -0.2301326E-04 Eh
 * total energy  :   -50.1106154 Eh     change       -0.3678971E-04 Eh
 * total energy  :   -50.1106249 Eh     change       -0.9566625E-05 Eh
 * total energy  :   -50.1106221 Eh     change        0.2854248E-05 Eh
 * total energy  :   -50.1106313 Eh     change       -0.9244615E-05 Eh
 * total energy  :   -50.1106356 Eh     change       -0.4261836E-05 Eh
   *** GEOMETRY OPTIMIZATION CONVERGED AFTER 14 ITERATIONS ***

 final structure:
================
37
 xtb: 6.7.1 (edcfbbe)
C            0.76712524124070       -0.04005034982962        0.07585385205722
C           -0.42962061934785       -0.05192724331296        0.07157227561303
C           -1.87925519664990       -0.06749342465387        0.05970011541907
N           -2.45265995686773       -0.48367318791938        1.37455169351346
C           -2.05513355760888        0.51424046835602        2.42164940449106
C           -2.52664218717492        1.84798206358718        2.11259851065918
C           -2.90889288293462        2.96360876765566        1.86157094019168
C           -3.30082030955090        4.29312998202275        1.59833572880099
C           -2.50015556949089        5.32081563142461        2.05521316475321
C           -2.85538099538218        6.65196112187094        1.82043003459820
C           -3.99788959745045        6.95074123298822        1.12806798448206
C           -4.83971401555803        5.92837553671203        0.64214624938664
C           -4.49692683600572        4.57175029796430        0.87924932306455
C           -5.34924060615310        3.56113155252312        0.39389456574702
C           -6.48690984747101        3.87378673872306       -0.29742540069229
C           -6.82465310126676        5.21422665958556       -0.53605279965923
C           -6.02005808692720        6.21803136080336       -0.07500527396087
C           -3.91983437205855       -0.52778708324926        1.27183981589802
C           -1.94178368419979       -1.81309943773325        1.74501893115829
H            1.81746864336328       -0.02200824972249        0.06124423270300
H           -2.24557669811346        0.93902530262940       -0.16886912722206
H           -2.22697987648580       -0.75989251220596       -0.71234816391103
H           -2.46523908484340        0.18483899068188        3.38134330815826
H           -0.96232529389285        0.51966660105560        2.48526887063271
H           -1.59740400947991        5.09058097466278        2.60130583893774
H           -2.21744962304210        7.43927922902998        2.19082413513045
H           -4.27351683146785        7.97807055872839        0.94314794310361
H           -5.09309821416766        2.52716379263905        0.58466101643139
H           -7.13428564333849        3.09067555894750       -0.66300586749787
H           -7.72553529931913        5.44352762749944       -1.08385541671304
H           -6.27483229648087        7.25220965053924       -0.25165120202715
H           -4.22618915145089       -1.22314858258042        0.49234545897825
H           -4.35025916550219       -0.84974028128158        2.21891020235206
H           -4.30280915980663        0.46504426204532        1.03795475057623
H           -2.24635472673668       -2.55027189059609        1.00351897196329
H           -0.85362522283577       -1.79425222203801        1.78984622540746
H           -2.33432216554194       -2.11017949755511        2.71596970747558

          :  Hamiltonian                  GFN2-xTB          :
         :: total energy             -50.110635571499 Eh    ::
         :: gradient norm              0.000405143486 Eh/a0 ::
         :: HOMO-LUMO gap              2.839691007563 eV    ::
         :: SCC energy               -51.117713296542 Eh    ::
         :: -> dispersion             -0.036541278353 Eh    ::
         :: repulsion energy           1.007077725043 Eh    ::

    * Orbital Energies and Occupations

         #    Occupation            Energy/Eh            Energy/eV
      -------------------------------------------------------------
         1        2.0000           -0.8634086             -23.4945
       ...           ...                  ...                  ...
        35        2.0000           -0.5704880             -15.5238
        36        2.0000           -0.5672314             -15.4352
        37        2.0000           -0.5641427             -15.3511
        38        2.0000           -0.5602306             -15.2447
        39        2.0000           -0.5519208             -15.0185
        40        2.0000           -0.5414225             -14.7329
        41        2.0000           -0.5391398             -14.6707
        42        2.0000           -0.5333384             -14.5129
        43        2.0000           -0.5123701             -13.9423
        44        2.0000           -0.5086682             -13.8416
        45        2.0000           -0.5063523             -13.7785
        46        2.0000           -0.4931227             -13.4186
        47        2.0000           -0.4698377             -12.7849 (HOMO)
        48                         -0.3654810              -9.9452 (LUMO)
        49                         -0.3240256              -8.8172
        50                         -0.3200943              -8.7102
        51                         -0.3090855              -8.4106
        52                         -0.2998630              -8.1597
        53                         -0.2982866              -8.1168
        54                         -0.2528428              -6.8802
        55                         -0.2199359              -5.9848
        56                         -0.1941397              -5.2828
        57                         -0.1461282              -3.9764
        58                         -0.1401137              -3.8127
       ...                                ...                  ...
        94                          1.2825061              34.8988
      -------------------------------------------------------------
                  HL-Gap            0.1043567 Eh            2.8397 eV

     #   Z          covCN         q      C6AA      α(0)
     1   6 C        1.909    -0.072    33.059     9.286
     2   6 C        1.963    -0.027    31.799     9.106
     3   6 C        3.766    -0.017    20.914     6.518
     4   7 N        3.626     0.136    18.928     6.462
     5   6 C        3.764    -0.013    20.846     6.508
     6   6 C        1.963    -0.078    33.204     9.305
     7   6 C        1.984    -0.011    31.348     9.042
     8   6 C        2.969     0.023    27.494     8.601
     9   6 C        2.930    -0.022    28.562     8.765
    10   6 C        2.914    -0.025    28.635     8.775
    11   6 C        2.919    -0.024    28.611     8.771
    12   6 C        2.986     0.019    27.577     8.614
    13   6 C        2.989     0.014    27.693     8.632
    14   6 C        2.917    -0.036    28.891     8.814
    15   6 C        2.916    -0.025    28.636     8.775
    16   6 C        2.916    -0.024    28.605     8.770
    17   6 C        2.919    -0.028    28.705     8.786
    18   6 C        3.720    -0.087    22.285     6.742
    19   6 C        3.719    -0.091    22.353     6.753
    20   1 H        0.928     0.125     1.574     1.962
    21   1 H        0.924     0.110     1.696     2.037
    22   1 H        0.924     0.099     1.791     2.093
    23   1 H        0.924     0.092     1.862     2.134
    24   1 H        0.924     0.098     1.806     2.101
    25   1 H        0.926     0.041     2.430     2.438
    26   1 H        0.926     0.050     2.322     2.383
    27   1 H        0.926     0.052     2.295     2.369
    28   1 H        0.925     0.007     2.936     2.679
    29   1 H        0.926     0.039     2.463     2.454
    30   1 H        0.926     0.049     2.338     2.391
    31   1 H        0.926     0.050     2.323     2.383
    32   1 H        0.925     0.092     1.863     2.134
    33   1 H        0.925     0.096     1.825     2.112
    34   1 H        0.925     0.100     1.787     2.090
    35   1 H        0.925     0.096     1.825     2.113
    36   1 H        0.925     0.101     1.779     2.086
    37   1 H        0.925     0.095     1.835     2.119

Wiberg/Mayer (AO) data.
largest (>0.10) Wiberg bond orders for each atom

     #   Z sym  total        # sym  WBO       # sym  WBO       # sym  WBO
 ---------------------------------------------------------------------------
     1   6 C    3.964 --     2 C    2.897    20 H    0.961
     2   6 C    3.978 --     1 C    2.897     3 C    1.049
     3   6 C    3.938 --     2 C    1.049    22 H    0.948    21 H    0.942
                             4 N    0.920
     4   7 N    3.809 --    19 C    0.962    18 C    0.961     3 C    0.920
                             5 C    0.906
     5   6 C    3.932 --     6 C    1.052    23 H    0.950    24 H    0.947
                             4 N    0.906
     6   6 C    3.933 --     7 C    2.704     5 C    1.052
     7   6 C    3.972 --     6 C    2.704     8 C    1.124
     8   6 C    3.985 --     9 C    1.447    13 C    1.213     7 C    1.124
                            11 C    0.104
     9   6 C    3.987 --     8 C    1.447    10 C    1.347    25 H    0.970
    10   6 C    3.991 --    11 C    1.536     9 C    1.347    26 H    0.968
    11   6 C    3.957 --    10 C    1.536    12 C    1.281    27 H    0.967
                             8 C    0.104
    12   6 C    3.990 --    11 C    1.281    17 C    1.278    13 C    1.255
    13   6 C    3.987 --    14 C    1.293    12 C    1.255     8 C    1.213
    14   6 C    3.992 --    15 C    1.549    13 C    1.293    28 H    0.963
                            17 C    0.118
    15   6 C    3.991 --    14 C    1.549    16 C    1.324    29 H    0.971
    16   6 C    3.991 --    17 C    1.557    15 C    1.324    30 H    0.970
    17   6 C    3.987 --    16 C    1.557    12 C    1.278    31 H    0.967
                            14 C    0.118
    18   6 C    3.929 --    32 H    0.976    33 H    0.975    34 H    0.967
                             4 N    0.961
    19   6 C    3.930 --    37 H    0.975    35 H    0.975    36 H    0.971
                             4 N    0.962
    20   1 H    0.984 --     1 C    0.961
    21   1 H    0.988 --     3 C    0.942
    22   1 H    0.990 --     3 C    0.948
    23   1 H    0.986 --     5 C    0.950
    24   1 H    0.989 --     5 C    0.947
    25   1 H    0.998 --     9 C    0.970
    26   1 H    0.995 --    10 C    0.968
    27   1 H    0.997 --    11 C    0.967
    28   1 H    0.999 --    14 C    0.963
    29   1 H    0.998 --    15 C    0.971
    30   1 H    0.997 --    16 C    0.970
    31   1 H    0.997 --    17 C    0.967
    32   1 H    0.992 --    18 C    0.976
    33   1 H    0.990 --    18 C    0.975
    34   1 H    0.990 --    18 C    0.967
    35   1 H    0.990 --    19 C    0.975
    36   1 H    0.990 --    19 C    0.971
    37   1 H    0.991 --    19 C    0.975
 ---------------------------------------------------------------------------

molecular dipole:
                 x           y           z       tot (Debye)
 q only:       -4.917       0.640       2.243
   full:       -4.915       0.506       2.286      13.838

           -------------------------------------------------
          | TOTAL ENERGY              -50.110635571499 Eh   |
          | GRADIENT NORM               0.000405143486 Eh/α |
          | HOMO-LUMO GAP               2.839691007563 eV   |
           -------------------------------------------------

 * finished run on 2024/12/20 at 06:47:46.034
