   * xtb version 6.7.1 (edcfbbe) compiled by 'conda@3ef47c1a292c' on 2024-11-25

   ID    Z sym.   atoms
    1    9 F      1, 13, 14
    2    6 C      2-5, 7-12
    3    7 N      6
    4    1 H      15-33

          program call               : xtb C0536.xyz --opt --namespace C0536 --charge +1
          :  Hamiltonian                  GFN2-xTB          :
 * total energy  :   -47.8481641 Eh     change       -0.2945200E-10 Eh
 * total energy  :   -47.8549457 Eh     change       -0.6781544E-02 Eh
 * total energy  :   -47.8565887 Eh     change       -0.1643044E-02 Eh
 * total energy  :   -47.8566875 Eh     change       -0.9875295E-04 Eh
 * total energy  :   -47.8567874 Eh     change       -0.9988895E-04 Eh
 * total energy  :   -47.8568405 Eh     change       -0.5313077E-04 Eh
 * total energy  :   -47.8569182 Eh     change       -0.7774968E-04 Eh
 * total energy  :   -47.8569963 Eh     change       -0.7803313E-04 Eh
 * total energy  :   -47.8570700 Eh     change       -0.7368719E-04 Eh
 * total energy  :   -47.8571421 Eh     change       -0.7216725E-04 Eh
 * total energy  :   -47.8580426 Eh     change       -0.1157901E-04 Eh
 * total energy  :   -47.8580532 Eh     change       -0.1057258E-04 Eh
 * total energy  :   -47.8580627 Eh     change       -0.9535862E-05 Eh
 * total energy  :   -47.8580712 Eh     change       -0.8523180E-05 Eh
 * total energy  :   -47.8580788 Eh     change       -0.7560405E-05 Eh
 * total energy  :   -47.8580855 Eh     change       -0.6713251E-05 Eh
 * total energy  :   -47.8580916 Eh     change       -0.6065391E-05 Eh
 * total energy  :   -47.8580972 Eh     change       -0.5593043E-05 Eh
 * total energy  :   -47.8581007 Eh     change       -0.3572910E-05 Eh
   *** GEOMETRY OPTIMIZATION CONVERGED AFTER 44 ITERATIONS ***

 final structure:
================
33
 xtb: 6.7.1 (edcfbbe)
F            0.74344027077274       -0.74123911072594        0.42263396875538
C            1.79765940696793       -0.11842009876150       -0.11368001284922
C            2.49027824003372        0.81274735518487        0.87172731697531
C            2.58640043702921        0.23285082450129        2.29017627477759
C            3.15938508503434       -1.18206127130056        2.44629737068215
N            4.64438234970082       -1.33731907085087        2.56247763147739
C            5.31850777668545       -0.72257316835201        1.40666141018291
C            5.12067992904096       -0.73074534944177        3.83837274195869
C            6.58725507659287       -1.02180609863992        4.13671338854234
C            6.82812155626221       -2.52559819731503        4.19539659863117
C            6.37360091020232       -3.16154415571130        2.88661516992465
C            4.92030004546724       -2.80804217068148        2.58995105067509
F            2.63566356698208       -1.09925296493166       -0.52959070641144
F            1.39104818409652        0.52106634830126       -1.20196630601630
H            3.45532852295707        1.07409693536611        0.43760778038630
H            1.89068368680647        1.72461865484345        0.91597299445283
H            3.12007550415274        0.94791895052312        2.91535249903137
H            1.56694104447655        0.17907450670156        2.67893588587995
H            2.73120451230719       -1.60886149739835        3.35607600263811
H            2.83184561124204       -1.80662672880451        1.61460204684365
H            4.85850470888937       -1.06926825125862        0.48356225397270
H            5.25354941603027        0.36053442389855        1.46957904478449
H            6.36895977877047       -0.99787506184953        1.38924752266140
H            4.50955868990111       -1.13960537898553        4.64617082020089
H            4.96017103624091        0.34688164698077        3.79510933869004
H            6.82635569228945       -0.56578740162970        5.09758057435076
H            7.23765268944729       -0.56209397650336        3.39237641151053
H            7.88408519657934       -2.72959518629279        4.36266090305685
H            6.27118751126811       -2.95568316158755        5.02947931785585
H            7.03099192484281       -2.85782256887666        2.07163999265355
H            6.43736069989411       -4.24766129650331        2.95563229045553
H            4.62219053557244       -3.22601034650775        1.62654969742773
H            4.28968040346317       -3.24545713339764        3.36704872583852

          :  Hamiltonian                  GFN2-xTB          :
         :: total energy             -47.858100724547 Eh    ::
         :: gradient norm              0.000164502859 Eh/a0 ::
         :: HOMO-LUMO gap              9.154817448653 eV    ::
         :: SCC energy               -48.339699402902 Eh    ::
         :: -> dispersion             -0.026600794463 Eh    ::
         :: repulsion energy           0.481598678355 Eh    ::

    * Orbital Energies and Occupations

         #    Occupation            Energy/Eh            Energy/eV
      -------------------------------------------------------------
         1        2.0000           -0.9965076             -27.1164
       ...           ...                  ...                  ...
        30        2.0000           -0.6487874             -17.6544
        31        2.0000           -0.6471712             -17.6104
        32        2.0000           -0.6453017             -17.5596
        33        2.0000           -0.6439302             -17.5222
        34        2.0000           -0.6402333             -17.4216
        35        2.0000           -0.6352079             -17.2849
        36        2.0000           -0.6264443             -17.0464
        37        2.0000           -0.6114749             -16.6391
        38        2.0000           -0.6110320             -16.6270
        39        2.0000           -0.6044620             -16.4482
        40        2.0000           -0.5893418             -16.0368
        41        2.0000           -0.5875758             -15.9888
        42        2.0000           -0.5789396             -15.7537 (HOMO)
        43                         -0.2425062              -6.5989 (LUMO)
        44                         -0.1746924              -4.7536
        45                         -0.1692479              -4.6055
        46                         -0.1488641              -4.0508
        47                         -0.1213225              -3.3014
        48                         -0.0983512              -2.6763
        49                         -0.0949198              -2.5829
        50                         -0.0807958              -2.1986
        51                         -0.0747607              -2.0343
        52                         -0.0641616              -1.7459
        53                         -0.0526431              -1.4325
       ...                                ...                  ...
        75                          0.1699781               4.6253
      -------------------------------------------------------------
                  HL-Gap            0.3364334 Eh            9.1548 eV

     #   Z          covCN         q      C6AA      α(0)
     1   9 F        0.790    -0.198    11.211     3.955
     2   6 C        3.329     0.486    17.387     6.620
     3   6 C        3.802    -0.101    22.418     6.741
     4   6 C        3.799    -0.075    21.930     6.668
     5   6 C        3.762    -0.044    21.405     6.595
     6   7 N        3.620     0.121    19.167     6.502
     7   6 C        3.711    -0.096    22.473     6.775
     8   6 C        3.761    -0.034    21.226     6.568
     9   6 C        3.805    -0.073    21.895     6.661
    10   6 C        3.807    -0.073    21.888     6.660
    11   6 C        3.805    -0.073    21.886     6.660
    12   6 C        3.769    -0.036    21.261     6.571
    13   9 F        0.790    -0.222    11.467     4.000
    14   9 F        0.791    -0.182    11.054     3.927
    15   1 H        0.925     0.086     1.922     2.168
    16   1 H        0.924     0.104     1.751     2.069
    17   1 H        0.925     0.074     2.040     2.234
    18   1 H        0.924     0.096     1.824     2.112
    19   1 H        0.924     0.087     1.907     2.160
    20   1 H        0.924     0.101     1.780     2.087
    21   1 H        0.925     0.104     1.748     2.068
    22   1 H        0.925     0.092     1.861     2.133
    23   1 H        0.925     0.105     1.738     2.062
    24   1 H        0.924     0.084     1.935     2.175
    25   1 H        0.924     0.079     1.985     2.203
    26   1 H        0.925     0.079     1.991     2.207
    27   1 H        0.925     0.063     2.167     2.302
    28   1 H        0.925     0.073     2.057     2.243
    29   1 H        0.924     0.058     2.221     2.330
    30   1 H        0.924     0.062     2.172     2.305
    31   1 H        0.925     0.081     1.966     2.193
    32   1 H        0.924     0.087     1.911     2.162
    33   1 H        0.924     0.085     1.931     2.173

Wiberg/Mayer (AO) data.
largest (>0.10) Wiberg bond orders for each atom

     #   Z sym  total        # sym  WBO       # sym  WBO       # sym  WBO
 ---------------------------------------------------------------------------
     1   9 F    1.083 --     2 C    0.956
     2   6 C    3.834 --    14 F    0.974     3 C    0.957     1 F    0.956
                            13 F    0.924
     3   6 C    3.979 --     4 C    1.007    15 H    0.964    16 H    0.962
                             2 C    0.957
     4   6 C    3.985 --     5 C    1.009     3 C    1.007    17 H    0.965
                            18 H    0.964
     5   6 C    3.937 --     4 C    1.009    19 H    0.966    20 H    0.961
                             6 N    0.933
     6   7 N    3.806 --     7 C    0.960     5 C    0.933     8 C    0.931
                            12 C    0.925
     7   6 C    3.927 --    22 H    0.973    21 H    0.972    23 H    0.965
                             6 N    0.960
     8   6 C    3.934 --     9 C    1.007    24 H    0.967    25 H    0.965
                             6 N    0.931
     9   6 C    3.986 --    10 C    1.009     8 C    1.007    27 H    0.971
                            26 H    0.966
    10   6 C    3.991 --     9 C    1.009    11 C    1.009    29 H    0.975
                            28 H    0.972
    11   6 C    3.986 --    10 C    1.009    12 C    1.008    30 H    0.969
                            31 H    0.964
    12   6 C    3.930 --    11 C    1.008    32 H    0.968    33 H    0.967
                             6 N    0.925
    13   9 F    1.055 --     2 C    0.924
    14   9 F    1.101 --     2 C    0.974
    15   1 H    0.993 --     3 C    0.964
    16   1 H    0.989 --     3 C    0.962
    17   1 H    0.994 --     4 C    0.965
    18   1 H    0.990 --     4 C    0.964
    19   1 H    0.992 --     5 C    0.966
    20   1 H    0.990 --     5 C    0.961
    21   1 H    0.989 --     7 C    0.972
    22   1 H    0.992 --     7 C    0.973
    23   1 H    0.989 --     7 C    0.965
    24   1 H    0.993 --     8 C    0.967
    25   1 H    0.994 --     8 C    0.965
    26   1 H    0.993 --     9 C    0.966
    27   1 H    0.996 --     9 C    0.971
    28   1 H    0.994 --    10 C    0.972
    29   1 H    0.997 --    10 C    0.975
    30   1 H    0.996 --    11 C    0.969
    31   1 H    0.993 --    11 C    0.964
    32   1 H    0.992 --    12 C    0.968
    33   1 H    0.993 --    12 C    0.967
 ---------------------------------------------------------------------------

molecular dipole:
                 x           y           z       tot (Debye)
 q only:        9.535      -1.944       5.800
   full:        9.411      -1.858       5.764      28.445

           -------------------------------------------------
          | TOTAL ENERGY              -47.858100724547 Eh   |
          | GRADIENT NORM               0.000164502859 Eh/α |
          | HOMO-LUMO GAP               9.154817448653 eV   |
           -------------------------------------------------

 * finished run on 2024/12/20 at 06:47:52.751
