   * xtb version 6.7.1 (edcfbbe) compiled by 'conda@3ef47c1a292c' on 2024-11-25

   ID    Z sym.   atoms
    1    6 C      1-11, 13-17
    2    7 N      12
    3    1 H      18-45

          program call               : xtb C0539.xyz --opt --namespace C0539 --charge +1
          :  Hamiltonian                  GFN2-xTB          :
 * total energy  :   -51.0709070 Eh     change       -0.2033360E-09 Eh
 * total energy  :   -51.0736081 Eh     change       -0.2701182E-02 Eh
 * total energy  :   -51.0740589 Eh     change       -0.4507567E-03 Eh
 * total energy  :   -51.0741539 Eh     change       -0.9497924E-04 Eh
 * total energy  :   -51.0742559 Eh     change       -0.1019926E-03 Eh
 * total energy  :   -51.0743385 Eh     change       -0.8266676E-04 Eh
 * total energy  :   -51.0744288 Eh     change       -0.9024841E-04 Eh
 * total energy  :   -51.0745206 Eh     change       -0.9180953E-04 Eh
 * total energy  :   -51.0745619 Eh     change       -0.4130507E-04 Eh
 * total energy  :   -51.0745792 Eh     change       -0.1733816E-04 Eh
 * total energy  :   -51.0745912 Eh     change       -0.1196098E-04 Eh
 * total energy  :   -51.0746023 Eh     change       -0.1107593E-04 Eh
 * total energy  :   -51.0746097 Eh     change       -0.7377633E-05 Eh
 * total energy  :   -51.0746168 Eh     change       -0.7134511E-05 Eh
 * total energy  :   -51.0746236 Eh     change       -0.6827973E-05 Eh
 * total energy  :   -51.0746276 Eh     change       -0.4008552E-05 Eh
   *** GEOMETRY OPTIMIZATION CONVERGED AFTER 16 ITERATIONS ***

 final structure:
================
45
 xtb: 6.7.1 (edcfbbe)
C            1.08207009276118       -0.40206918946842       -0.34741509597346
C            0.88374764149840       -1.27081415983056        0.88892816051780
C            1.29083671947175       -0.57469076406814        2.18853388743475
C            0.49369130820473        0.68810107759098        2.52180900523281
C           -1.01377826323204        0.47978268914381        2.68073588178699
C           -1.41926895921851       -0.51730187954540        3.76844588641921
C           -0.91049915238581       -0.18513628123930        5.17278225246935
C           -1.31010601557215        1.19668563203726        5.69658462272197
C           -2.81798881855650        1.45654662970516        5.74618703692957
C           -3.60394173871366        0.51971113555136        6.66200622342894
C           -3.27991360780929        0.68661532839945        8.15555002327325
N           -3.69623417675129        1.99581308320673        8.62039190774756
C           -4.96894552375382        2.19160316794284        8.98545649278133
C           -5.42456076955864        3.44037778829213        9.35135114296763
C           -4.54534314885995        4.51691572680140        9.33247679942402
C           -3.22992876260398        4.29445696661590        8.94947051569519
C           -2.83539354452528        3.01894320009492        8.59724273298950
H            0.41023508061295        0.45266423085251       -0.34184938692285
H            0.88383302534990       -0.97936330643120       -1.24724589015469
H            2.10545926061402       -0.03645719896183       -0.39522834896579
H           -0.15835481589949       -1.59092907568052        0.94635518089713
H            1.49307566687138       -2.17176008571345        0.78603313410947
H            1.20338193624094       -1.28873115114312        3.01050288063389
H            2.34480063145740       -0.29522411240920        2.11559054573724
H            0.90199875013561        1.11719470259820        3.44008339866195
H            0.65037527560566        1.42474726128489        1.73216785346077
H           -1.47453024739281        1.45021248855146        2.88306457887164
H           -1.42553780028321        0.12779690062972        1.73377146211462
H           -2.50973993992875       -0.59068436544094        3.77985120032721
H           -1.04040638535671       -1.50505209601705        3.50287420802145
H           -1.26294434196285       -0.95815784763352        5.86059472173562
H            0.17898203198192       -0.23662702203980        5.17486434102150
H           -0.86729034697145        1.32239264105274        6.68901210669337
H           -0.86436120891382        1.95741215628457        5.05519147780031
H           -2.99237445074421        2.49704343672418        6.04039587800939
H           -3.21985715036728        1.34697180080114        4.73920858350242
H           -4.67348613707902        0.68278992834332        6.51173851271692
H           -3.38702037531319       -0.51353050442824        6.39458327249439
H           -3.80670712845846       -0.07705740371163        8.73039186972133
H           -2.20809281822258        0.57056357433160        8.31758073933857
H           -5.62089405836698        1.33030689938855        8.98359210699715
H           -6.45381808938224        3.56753176634939        9.64616642565587
H           -4.87794377722796        5.50368917320247        9.61339192598341
H           -2.51282028683354        5.09915173599873        8.92354894286279
H           -1.81837558056434        2.80611532198425        8.30300080282762

          :  Hamiltonian                  GFN2-xTB          :
         :: total energy             -51.074627626190 Eh    ::
         :: gradient norm              0.000454127852 Eh/a0 ::
         :: HOMO-LUMO gap              0.488429415865 eV    ::
         :: SCC energy               -51.886386899860 Eh    ::
         :: -> dispersion             -0.037304311047 Eh    ::
         :: repulsion energy           0.811759273670 Eh    ::

    * Orbital Energies and Occupations

         #    Occupation            Energy/Eh            Energy/eV
      -------------------------------------------------------------
         1        2.0000           -0.8797564             -23.9394
       ...           ...                  ...                  ...
        36        2.0000           -0.5607396             -15.2585
        37        2.0000           -0.5535171             -15.0620
        38        2.0000           -0.5469321             -14.8828
        39        2.0000           -0.5436108             -14.7924
        40        2.0000           -0.5318935             -14.4736
        41        2.0000           -0.5274444             -14.3525
        42        2.0000           -0.5192474             -14.1294
        43        2.0000           -0.5086059             -13.8399
        44        2.0000           -0.5034472             -13.6995
        45        2.0000           -0.4994730             -13.5914
        46        2.0000           -0.4830729             -13.1451
        47        2.0000           -0.4793685             -13.0443
        48        1.9998           -0.4763276             -12.9615 (HOMO)
        49        0.0002           -0.4583781             -12.4731 (LUMO)
        50                         -0.4282885             -11.6543
        51                         -0.3077062              -8.3731
        52                         -0.1678760              -4.5681
        53                         -0.0834363              -2.2704
        54                         -0.0653136              -1.7773
        55                         -0.0478314              -1.3016
        56                         -0.0379265              -1.0320
        57                         -0.0284342              -0.7737
        58                         -0.0145521              -0.3960
        59                         -0.0116839              -0.3179
       ...                                ...                  ...
        96                          0.4483318              12.1997
      -------------------------------------------------------------
                  HL-Gap            0.0179495 Eh            0.4884 eV

     #   Z          covCN         q      C6AA      α(0)
     1   6 C        3.751    -0.103    22.533     6.769
     2   6 C        3.799    -0.053    21.529     6.606
     3   6 C        3.800    -0.058    21.624     6.621
     4   6 C        3.800    -0.058    21.621     6.620
     5   6 C        3.800    -0.059    21.629     6.622
     6   6 C        3.800    -0.061    21.666     6.627
     7   6 C        3.800    -0.061    21.682     6.630
     8   6 C        3.800    -0.061    21.681     6.630
     9   6 C        3.800    -0.066    21.768     6.643
    10   6 C        3.801    -0.069    21.819     6.650
    11   6 C        3.760    -0.037    21.281     6.577
    12   7 N        2.750     0.116    19.261     6.518
    13   6 C        2.893     0.032    27.277     8.563
    14   6 C        2.916    -0.010    28.269     8.719
    15   6 C        2.925     0.013    27.719     8.634
    16   6 C        2.915    -0.011    28.287     8.721
    17   6 C        2.892     0.034    27.237     8.557
    18   1 H        0.925     0.033     2.541     2.493
    19   1 H        0.925     0.036     2.506     2.476
    20   1 H        0.925     0.036     2.499     2.472
    21   1 H        0.924     0.029     2.594     2.519
    22   1 H        0.924     0.031     2.568     2.506
    23   1 H        0.924     0.027     2.632     2.537
    24   1 H        0.924     0.033     2.543     2.494
    25   1 H        0.924     0.024     2.675     2.558
    26   1 H        0.924     0.037     2.483     2.464
    27   1 H        0.924     0.022     2.700     2.569
    28   1 H        0.924     0.040     2.443     2.444
    29   1 H        0.924     0.024     2.670     2.555
    30   1 H        0.924     0.044     2.395     2.420
    31   1 H        0.924     0.025     2.663     2.552
    32   1 H        0.924     0.047     2.354     2.399
    33   1 H        0.924     0.016     2.794     2.614
    34   1 H        0.924     0.052     2.300     2.372
    35   1 H        0.924     0.021     2.716     2.577
    36   1 H        0.925     0.068     2.103     2.268
    37   1 H        0.924     0.051     2.310     2.377
    38   1 H        0.925     0.086     1.921     2.167
    39   1 H        0.924     0.089     1.891     2.151
    40   1 H        0.925     0.097     1.816     2.108
    41   1 H        0.926     0.109     1.709     2.044
    42   1 H        0.926     0.108     1.716     2.048
    43   1 H        0.926     0.107     1.724     2.053
    44   1 H        0.926     0.107     1.719     2.050
    45   1 H        0.926     0.112     1.675     2.024

Wiberg/Mayer (AO) data.
largest (>0.10) Wiberg bond orders for each atom

     #   Z sym  total        # sym  WBO       # sym  WBO       # sym  WBO
 ---------------------------------------------------------------------------
     1   6 C    3.997 --     2 C    1.020    20 H    0.987    19 H    0.987
                            18 H    0.986
     2   6 C    3.998 --     1 C    1.020     3 C    1.008    22 H    0.978
                            21 H    0.976
     3   6 C    3.997 --     2 C    1.008     4 C    1.008    24 H    0.977
                            23 H    0.976
     4   6 C    3.997 --     5 C    1.008     3 C    1.008    25 H    0.975
                            26 H    0.975
     5   6 C    3.997 --     4 C    1.008     6 C    1.007    27 H    0.975
                            28 H    0.974
     6   6 C    3.996 --     5 C    1.007     7 C    1.007    29 H    0.975
                            30 H    0.974
     7   6 C    3.995 --     6 C    1.007     8 C    1.006    31 H    0.975
                            32 H    0.973
     8   6 C    3.995 --     9 C    1.007     7 C    1.006    34 H    0.972
                            33 H    0.972
     9   6 C    3.992 --    10 C    1.010     8 C    1.007    35 H    0.971
                            36 H    0.965
    10   6 C    3.980 --     9 C    1.010    37 H    0.974    11 C    0.970
                            38 H    0.959
    11   6 C    3.932 --    10 C    0.970    12 N    0.965    39 H    0.963
                            40 H    0.959
    12   7 N    3.769 --    17 C    1.328    13 C    1.324    11 C    0.965
    13   6 C    3.959 --    14 C    1.468    12 N    1.324    41 H    0.954
    14   6 C    3.981 --    13 C    1.468    15 C    1.416    42 H    0.959
    15   6 C    3.969 --    16 C    1.428    14 C    1.416    43 H    0.961
    16   6 C    3.981 --    17 C    1.455    15 C    1.428    44 H    0.959
    17   6 C    3.957 --    16 C    1.455    12 N    1.328    45 H    0.951
    18   1 H    0.999 --     1 C    0.986
    19   1 H    0.999 --     1 C    0.987
    20   1 H    0.999 --     1 C    0.987
    21   1 H    0.999 --     2 C    0.976
    22   1 H    0.999 --     2 C    0.978
    23   1 H    0.999 --     3 C    0.976
    24   1 H    0.999 --     3 C    0.977
    25   1 H    0.999 --     4 C    0.975
    26   1 H    0.999 --     4 C    0.975
    27   1 H    0.999 --     5 C    0.975
    28   1 H    0.998 --     5 C    0.974
    29   1 H    0.999 --     6 C    0.975
    30   1 H    0.998 --     6 C    0.974
    31   1 H    0.999 --     7 C    0.975
    32   1 H    0.998 --     7 C    0.973
    33   1 H    1.000 --     8 C    0.972
    34   1 H    0.997 --     8 C    0.972
    35   1 H    1.000 --     9 C    0.971
    36   1 H    0.994 --     9 C    0.965
    37   1 H    0.997 --    10 C    0.974
    38   1 H    0.991 --    10 C    0.959
    39   1 H    0.992 --    11 C    0.963
    40   1 H    0.990 --    11 C    0.959
    41   1 H    0.988 --    13 C    0.954
    42   1 H    0.988 --    14 C    0.959
    43   1 H    0.989 --    15 C    0.961
    44   1 H    0.988 --    16 C    0.959
    45   1 H    0.987 --    17 C    0.951
 ---------------------------------------------------------------------------

molecular dipole:
                 x           y           z       tot (Debye)
 q only:       -6.997       4.491      15.674
   full:       -7.044       4.507      15.796      45.429

           -------------------------------------------------
          | TOTAL ENERGY              -51.074627626190 Eh   |
          | GRADIENT NORM               0.000454127852 Eh/α |
          | HOMO-LUMO GAP               0.488429415865 eV   |
           -------------------------------------------------

 * finished run on 2024/12/20 at 06:47:57.217
