   * xtb version 6.7.1 (edcfbbe) compiled by 'conda@3ef47c1a292c' on 2024-11-25

   ID    Z sym.   atoms
    1    6 C      1, 2, 4-19
    2    7 N      3
    3    1 H      20-43

          program call               : xtb C0543.xyz --opt --namespace C0543 --charge +1
          :  Hamiltonian                  GFN2-xTB          :
 * total energy  :   -53.2698087 Eh     change       -0.2247944E-09 Eh
 * total energy  :   -53.2782774 Eh     change       -0.8468707E-02 Eh
 * total energy  :   -53.2811036 Eh     change       -0.2826194E-02 Eh
 * total energy  :   -53.2815025 Eh     change       -0.3989606E-03 Eh
 * total energy  :   -53.2816305 Eh     change       -0.1279529E-03 Eh
 * total energy  :   -53.2816758 Eh     change       -0.4531225E-04 Eh
 * total energy  :   -53.2817305 Eh     change       -0.5465705E-04 Eh
 * total energy  :   -53.2817605 Eh     change       -0.3005036E-04 Eh
 * total energy  :   -53.2818152 Eh     change       -0.5473367E-04 Eh
 * total energy  :   -53.2817913 Eh     change        0.2396956E-04 Eh
 * total energy  :   -53.2914938 Eh     change       -0.5070941E-04 Eh
 * total energy  :   -53.2915431 Eh     change       -0.4927128E-04 Eh
 * total energy  :   -53.2915833 Eh     change       -0.4016570E-04 Eh
 * total energy  :   -53.2916103 Eh     change       -0.2704593E-04 Eh
 * total energy  :   -53.2916271 Eh     change       -0.1682588E-04 Eh
 * total energy  :   -53.2916397 Eh     change       -0.1254674E-04 Eh
 * total energy  :   -53.2916514 Eh     change       -0.1166353E-04 Eh
 * total energy  :   -53.2916597 Eh     change       -0.8369807E-05 Eh
 * total energy  :   -53.2916644 Eh     change       -0.4676313E-05 Eh
   *** GEOMETRY OPTIMIZATION CONVERGED AFTER 85 ITERATIONS ***

 final structure:
================
43
 xtb: 6.7.1 (edcfbbe)
C            1.01131369577989        0.15812800476653       -0.19057879150505
C            0.55496228383015       -0.66621944395474        1.00564868195205
N            0.91528963408491       -0.12278191576675        2.34427160321267
C            0.28727220934976        1.23202718840873        2.55952130558572
C           -1.21864881026270        1.24353519405963        2.64179418676313
C           -2.00301574029171        1.34626906477652        1.49699298479416
C           -3.38343979224047        1.39011896713568        1.59129137402860
C           -3.99890628285894        1.34177631709951        2.83004989886663
C           -3.22737619349535        1.25991590091477        3.97723551033693
C           -1.84801924367210        1.21350408848655        3.88397901946508
C            0.36821487791133       -1.02994281463452        3.41295054071084
C            0.90236636858323       -2.43615549711507        3.47083837720967
C            0.35521863369592       -3.44331370640458        2.68169365997222
C            0.82784991480861       -4.74120500622177        2.77462930194939
C            1.83818385185397       -5.05233297970304        3.66892416047548
C            2.36548727754692       -4.06360900565147        4.48325294997212
C            1.89848340945225       -2.76479036119418        4.38715020188735
C            2.39445138054974        0.06211465216522        2.49184869177338
C            3.29223440333513       -1.04634623366453        1.95874121779363
H            0.50819017716496        1.11833560307997       -0.25477459066835
H            0.75915041369750       -0.39889603176210       -1.08974442046589
H            2.08256163878497        0.33035347101682       -0.20152312583302
H           -0.53338250311852       -0.75676219294065        0.98080500683194
H            0.98534319577145       -1.66597378262839        0.94089277011195
H            0.69471877741384        1.62724304734822        3.49291126152722
H            0.61498175917557        1.87930079961256        1.74555970950000
H           -1.54430806508553        1.41752117080188        0.52238978145019
H           -3.97629860755143        1.47364643830590        0.69398259729622
H           -5.07406427278959        1.38286645774190        2.90219410601273
H           -3.69793160233254        1.24173237302997        4.94742683412103
H           -1.25810167995611        1.17072123216721        4.78820183214648
H            0.56601062088624       -0.54187947658057        4.36959951686088
H           -0.71394560597263       -1.06728271919425        3.26615516812211
H           -0.45921816365942       -3.22340708960405        2.00683967665922
H            0.39651566716703       -5.51177377715796        2.15524461382935
H            2.20199480861223       -6.06474035042552        3.74306253923160
H            3.13642125202915       -4.30338671872516        5.19845224062888
H            2.30928823113430       -2.00352891110729        5.03481429312267
H            2.65872188234227        0.99278145145194        1.98535422085117
H            2.59210750653670        0.19586838898732        3.55710023573586
H            3.25181128136758       -1.13517418664642        0.87803020311457
H            4.31474448690327       -0.78860959050811        2.22561106418061
H            3.06929692352327       -2.01161801978855        2.39916959039631

          :  Hamiltonian                  GFN2-xTB          :
         :: total energy             -53.291664402614 Eh    ::
         :: gradient norm              0.000382604855 Eh/a0 ::
         :: HOMO-LUMO gap              4.493728248754 eV    ::
         :: SCC energy               -54.213692901908 Eh    ::
         :: -> dispersion             -0.044518941240 Eh    ::
         :: repulsion energy           0.922028499294 Eh    ::

    * Orbital Energies and Occupations

         #    Occupation            Energy/Eh            Energy/eV
      -------------------------------------------------------------
         1        2.0000           -0.8426605             -22.9300
       ...           ...                  ...                  ...
        38        2.0000           -0.5957830             -16.2121
        39        2.0000           -0.5946258             -16.1806
        40        2.0000           -0.5883332             -16.0094
        41        2.0000           -0.5881610             -16.0047
        42        2.0000           -0.5818908             -15.8341
        43        2.0000           -0.5441653             -14.8075
        44        2.0000           -0.5434264             -14.7874
        45        2.0000           -0.5391483             -14.6710
        46        2.0000           -0.5386146             -14.6565
        47        2.0000           -0.5264608             -14.3257
        48        2.0000           -0.5243116             -14.2672
        49        2.0000           -0.5238051             -14.2535
        50        2.0000           -0.5213143             -14.1857 (HOMO)
        51                         -0.3561728              -9.6920 (LUMO)
        52                         -0.3495772              -9.5125
        53                         -0.3425747              -9.3219
        54                         -0.3424112              -9.3175
        55                         -0.2364223              -6.4334
        56                         -0.2202497              -5.9933
        57                         -0.1973003              -5.3688
        58                         -0.1523786              -4.1464
        59                         -0.1400215              -3.8102
        60                         -0.1364288              -3.7124
        61                         -0.0504392              -1.3725
       ...                                ...                  ...
       100                          0.5435157              14.7898
      -------------------------------------------------------------
                  HL-Gap            0.1651415 Eh            4.4937 eV

     #   Z          covCN         q      C6AA      α(0)
     1   6 C        3.751    -0.124    22.937     6.830
     2   6 C        3.750    -0.027    21.124     6.555
     3   7 N        3.616     0.100    19.506     6.560
     4   6 C        3.767    -0.037    21.278     6.574
     5   6 C        2.966    -0.007    28.194     8.710
     6   6 C        2.923    -0.039    28.962     8.825
     7   6 C        2.919    -0.023    28.580     8.767
     8   6 C        2.920    -0.019    28.472     8.750
     9   6 C        2.918    -0.022    28.552     8.762
    10   6 C        2.924    -0.037    28.932     8.821
    11   6 C        3.762    -0.034    21.231     6.568
    12   6 C        2.966    -0.004    28.130     8.700
    13   6 C        2.923    -0.040    28.984     8.829
    14   6 C        2.919    -0.023    28.573     8.766
    15   6 C        2.920    -0.019    28.493     8.753
    16   6 C        2.918    -0.023    28.584     8.767
    17   6 C        2.924    -0.036    28.889     8.814
    18   6 C        3.753    -0.025    21.071     6.546
    19   6 C        3.751    -0.129    23.032     6.844
    20   1 H        0.925     0.061     2.186     2.312
    21   1 H        0.925     0.077     2.005     2.214
    22   1 H        0.925     0.064     2.152     2.294
    23   1 H        0.924     0.081     1.967     2.193
    24   1 H        0.924     0.090     1.882     2.145
    25   1 H        0.924     0.076     2.026     2.226
    26   1 H        0.924     0.084     1.941     2.178
    27   1 H        0.926     0.041     2.432     2.439
    28   1 H        0.926     0.057     2.235     2.338
    29   1 H        0.926     0.061     2.190     2.314
    30   1 H        0.926     0.058     2.222     2.331
    31   1 H        0.926     0.039     2.467     2.456
    32   1 H        0.924     0.077     2.006     2.215
    33   1 H        0.924     0.081     1.964     2.191
    34   1 H        0.926     0.038     2.478     2.462
    35   1 H        0.926     0.057     2.237     2.339
    36   1 H        0.926     0.061     2.193     2.316
    37   1 H        0.926     0.058     2.224     2.332
    38   1 H        0.926     0.040     2.445     2.445
    39   1 H        0.924     0.079     1.988     2.205
    40   1 H        0.924     0.077     2.009     2.217
    41   1 H        0.925     0.065     2.140     2.288
    42   1 H        0.925     0.078     2.001     2.212
    43   1 H        0.925     0.068     2.111     2.272

Wiberg/Mayer (AO) data.
largest (>0.10) Wiberg bond orders for each atom

     #   Z sym  total        # sym  WBO       # sym  WBO       # sym  WBO
 ---------------------------------------------------------------------------
     1   6 C    3.984 --     2 C    1.021    22 H    0.978    20 H    0.976
                            21 H    0.975
     2   6 C    3.936 --     1 C    1.021    23 H    0.964    24 H    0.960
                             3 N    0.936
     3   7 N    3.796 --     2 C    0.936    18 C    0.931    11 C    0.919
                             4 C    0.916
     4   6 C    3.934 --     5 C    1.005    25 H    0.967    26 H    0.960
                             3 N    0.916
     5   6 C    3.979 --     6 C    1.410    10 C    1.404     4 C    1.005
                             8 C    0.109
     6   6 C    3.991 --     7 C    1.443     5 C    1.410    27 H    0.964
                             9 C    0.109
     7   6 C    3.990 --     6 C    1.443     8 C    1.440    28 H    0.969
                            10 C    0.110
     8   6 C    3.988 --     7 C    1.440     9 C    1.436    29 H    0.969
                             5 C    0.109
     9   6 C    3.990 --    10 C    1.448     8 C    1.436    30 H    0.969
                             6 C    0.109
    10   6 C    3.991 --     9 C    1.448     5 C    1.404    31 H    0.968
                             7 C    0.110
    11   6 C    3.934 --    12 C    1.005    32 H    0.965    33 H    0.959
                             3 N    0.919
    12   6 C    3.980 --    13 C    1.409    17 C    1.402    11 C    1.005
                            15 C    0.110
    13   6 C    3.991 --    14 C    1.443    12 C    1.409    34 H    0.967
                            16 C    0.109
    14   6 C    3.990 --    13 C    1.443    15 C    1.439    35 H    0.969
                            17 C    0.109
    15   6 C    3.989 --    14 C    1.439    16 C    1.436    36 H    0.969
                            12 C    0.110
    16   6 C    3.990 --    17 C    1.446    15 C    1.436    37 H    0.969
                            13 C    0.109
    17   6 C    3.991 --    16 C    1.446    12 C    1.402    38 H    0.968
                            14 C    0.109
    18   6 C    3.938 --    19 C    1.021    40 H    0.968    39 H    0.967
                             3 N    0.931
    19   6 C    3.981 --    18 C    1.021    41 H    0.979    42 H    0.974
                            43 H    0.973
    20   1 H    0.996 --     1 C    0.976
    21   1 H    0.994 --     1 C    0.975
    22   1 H    0.996 --     1 C    0.978
    23   1 H    0.993 --     2 C    0.964
    24   1 H    0.992 --     2 C    0.960
    25   1 H    0.994 --     4 C    0.967
    26   1 H    0.992 --     4 C    0.960
    27   1 H    0.998 --     6 C    0.964
    28   1 H    0.996 --     7 C    0.969
    29   1 H    0.996 --     8 C    0.969
    30   1 H    0.996 --     9 C    0.969
    31   1 H    0.998 --    10 C    0.968
    32   1 H    0.993 --    11 C    0.965
    33   1 H    0.993 --    11 C    0.959
    34   1 H    0.999 --    13 C    0.967
    35   1 H    0.996 --    14 C    0.969
    36   1 H    0.996 --    15 C    0.969
    37   1 H    0.996 --    16 C    0.969
    38   1 H    0.998 --    17 C    0.968
    39   1 H    0.994 --    18 C    0.967
    40   1 H    0.994 --    18 C    0.968
    41   1 H    0.996 --    19 C    0.979
    42   1 H    0.994 --    19 C    0.974
    43   1 H    0.995 --    19 C    0.973
 ---------------------------------------------------------------------------

molecular dipole:
                 x           y           z       tot (Debye)
 q only:        1.330      -0.950       4.380
   full:        1.310      -0.825       4.465      12.012

           -------------------------------------------------
          | TOTAL ENERGY              -53.291664402614 Eh   |
          | GRADIENT NORM               0.000382604855 Eh/α |
          | HOMO-LUMO GAP               4.493728248754 eV   |
           -------------------------------------------------

 * finished run on 2024/12/20 at 06:48:01.387
