   * xtb version 6.7.1 (edcfbbe) compiled by 'conda@3ef47c1a292c' on 2024-11-25

   ID    Z sym.   atoms
    1    6 C      1-14, 16-27
    2   15 P      15
    3    1 H      28-83

          program call               : xtb C0549.xyz --opt --namespace C0549 --charge +1
          :  Hamiltonian                  GFN2-xTB          :
 * total energy  :   -86.3964075 Eh     change       -0.1792984E-09 Eh
 * total energy  :   -86.4024621 Eh     change       -0.6054577E-02 Eh
 * total energy  :   -86.4040825 Eh     change       -0.1620413E-02 Eh
 * total energy  :   -86.4043396 Eh     change       -0.2570838E-03 Eh
 * total energy  :   -86.4045253 Eh     change       -0.1856507E-03 Eh
 * total energy  :   -86.4046820 Eh     change       -0.1567363E-03 Eh
 * total energy  :   -86.4049068 Eh     change       -0.2248407E-03 Eh
 * total energy  :   -86.4051856 Eh     change       -0.2788033E-03 Eh
 * total energy  :   -86.4054858 Eh     change       -0.3001693E-03 Eh
 * total energy  :   -86.4057666 Eh     change       -0.2807511E-03 Eh
 * total energy  :   -86.4084664 Eh     change       -0.7564545E-05 Eh
 * total energy  :   -86.4084744 Eh     change       -0.8012971E-05 Eh
 * total energy  :   -86.4084835 Eh     change       -0.9098597E-05 Eh
 * total energy  :   -86.4084932 Eh     change       -0.9663255E-05 Eh
 * total energy  :   -86.4085028 Eh     change       -0.9660468E-05 Eh
 * total energy  :   -86.4085123 Eh     change       -0.9419934E-05 Eh
 * total energy  :   -86.4085219 Eh     change       -0.9609508E-05 Eh
 * total energy  :   -86.4085324 Eh     change       -0.1052396E-04 Eh
 * total energy  :   -86.4085344 Eh     change       -0.2048740E-05 Eh
   *** GEOMETRY OPTIMIZATION CONVERGED AFTER 94 ITERATIONS ***

 final structure:
================
83
 xtb: 6.7.1 (edcfbbe)
C            0.76303841163586        0.87668067214433        0.51737992737298
C            0.56167663802120        0.65005871239506       -0.97601728685172
C            0.84704264612314       -0.78818443122459       -1.41044512734995
C           -0.07488486524799       -1.84310481911295       -0.79500047128602
C           -1.56298115569013       -1.66277415645311       -1.10287470363903
C           -1.91587211406205       -1.62718085121706       -2.59112362695189
C           -1.47074873493965       -2.85429832111954       -3.38808879655412
C           -2.08097912271771       -4.17816910942491       -2.92427028567564
C           -3.60407172195968       -4.26679681973220       -3.04477281879305
C           -4.16108112917636       -4.01261919713085       -4.44843065808163
C           -3.52206481964792       -4.85201888381324       -5.55660298950944
C           -3.77329083186082       -6.35674264977500       -5.42821947987982
C           -5.13915124363277       -6.80785201201058       -5.94530096211130
C           -5.29157130436396       -6.72257347585103       -7.46985236768326
P           -4.70256195172278       -8.17731730625816       -8.41583786835573
C           -5.53396925735653       -9.67190392830539       -7.75362533130766
C           -7.01042798193129       -9.54047158004521       -7.37038550255026
C           -7.95640124549000       -9.23664346117653       -8.53189666173309
C           -8.07969113684502      -10.38401856177011       -9.52776734753801
C           -5.10310262028950       -8.02280103686774      -10.20708036006878
C           -5.55869452988460       -6.64190360811322      -10.68424041326132
C           -4.41932713551801       -5.62619400049531      -10.78759149351379
C           -3.58380889356963       -5.80547463661208      -12.05002081091792
C           -2.92795493806861       -8.63830794144895       -8.26812768090578
C           -1.90347409913726       -7.81502690840852       -9.05260920413302
C           -1.47260254292061       -6.51517640432909       -8.37008087899943
C           -0.45419386459532       -6.74505904956895       -7.25921610390313
H            0.03709737983584        0.31679719201684        1.10131439299869
H            0.64726136585420        1.93106869790335        0.75714275082842
H            1.76122536383166        0.56540349725117        0.81781146900940
H           -0.45710106755568        0.92719148890765       -1.25238858179051
H            1.23758070900516        1.30970150829233       -1.52600787876294
H            0.78454740725968       -0.84320263148117       -2.49949515617842
H            1.87508984522283       -1.03619507171031       -1.13365363788470
H            0.24993133588336       -2.82598177099135       -1.14444176018622
H            0.05016851482904       -1.83666652031561        0.28917820789135
H           -2.11235432137981       -2.47387806751424       -0.61921898899688
H           -1.91187866693755       -0.73236038756188       -0.65129503643901
H           -2.99761692300792       -1.50679646326394       -2.68451494653645
H           -1.45780157996158       -0.74604575965455       -3.04443234286474
H           -1.71703332298753       -2.68625059369877       -4.43925592991462
H           -0.38460405220688       -2.94281782127859       -3.32701454198609
H           -1.62446634378312       -4.98989796523855       -3.49684284862258
H           -1.81621740233984       -4.34484552180342       -1.87924199027148
H           -3.91613086301784       -5.25522658414759       -2.69776861089016
H           -4.05951646430616       -3.54108961666823       -2.36971696363204
H           -5.23926444066533       -4.19040203292427       -4.42816950890124
H           -4.01609023037827       -2.96099383529905       -4.69970133195811
H           -3.89754169877866       -4.48764968151248       -6.51667476065665
H           -2.44659353271385       -4.67768664130494       -5.55043260512810
H           -2.99344269705951       -6.89918289700783       -5.96068783817503
H           -3.69696284892091       -6.63481017274130       -4.37737395795379
H           -5.32606640245095       -7.82844340358330       -5.60514817906022
H           -5.90543735511524       -6.17212830094987       -5.49832535570421
H           -6.35311356052850       -6.64805433141229       -7.72766236481286
H           -4.80007293836675       -5.82800435160767       -7.85461901126356
H           -5.40464083354370      -10.45767229452680       -8.50350712709296
H           -4.96079383550276       -9.97284279184342       -6.87022741225373
H           -7.31430111853166      -10.48587379837417       -6.91549070410362
H           -7.12559269886402       -8.76722915373218       -6.60938733706835
H           -8.94518293519432       -9.04109852036690       -8.11361899904304
H           -7.63705856179088       -8.32427715474988       -9.04321251504754
H           -8.43549054323008      -11.28019285815631       -9.02618461764679
H           -8.79370805934541      -10.12796408643797      -10.30574438434899
H           -7.13140924834845      -10.61948016383664      -10.00701879190140
H           -4.21476706819332       -8.33517718380375      -10.76157398850321
H           -5.88441188844198       -8.75713253305981      -10.41227670383473
H           -6.00899906250643       -6.75986147076714      -11.67179807094011
H           -6.33851029449869       -6.25925001559978      -10.02322589402888
H           -4.84434123679873       -4.62151626956443      -10.79691889139852
H           -3.77497325234698       -5.70630170327827       -9.90826693350640
H           -4.19663609322378       -5.64930959531536      -12.93387305946977
H           -2.77333509290200       -5.08213134106913      -12.06914934525019
H           -3.14877689362526       -6.80065116889383      -12.11298889483467
H           -2.67247153850759       -8.66596939338129       -7.20689297550410
H           -2.90942049578365       -9.67299247094945       -8.63240808799993
H           -1.01610119626638       -8.43587346071935       -9.19260334005387
H           -2.29280022035584       -7.59063719522242      -10.04612666823523
H           -1.01952555262807       -5.86554413089835       -9.12055439158859
H           -2.34592082684527       -5.99607970082314       -7.97136058881829
H            0.45605922205536       -7.17790201085296       -7.66599207491452
H           -0.19627599299669       -5.80189688662977       -6.78549306194140
H           -0.83191034682914       -7.41617084172400       -6.49088852804329

          :  Hamiltonian                  GFN2-xTB          :
         :: total energy             -86.408534448811 Eh    ::
         :: gradient norm              0.000184131904 Eh/a0 ::
         :: HOMO-LUMO gap              4.346866329210 eV    ::
         :: SCC energy               -87.684983083635 Eh    ::
         :: -> dispersion             -0.077042726919 Eh    ::
         :: repulsion energy           1.276448634825 Eh    ::

    * Orbital Energies and Occupations

         #    Occupation            Energy/Eh            Energy/eV
      -------------------------------------------------------------
         1        2.0000           -0.8397131             -22.8498
       ...           ...                  ...                  ...
        70        2.0000           -0.5238706             -14.2552
        71        2.0000           -0.5187494             -14.1159
        72        2.0000           -0.5127278             -13.9520
        73        2.0000           -0.5071571             -13.8004
        74        2.0000           -0.5002847             -13.6134
        75        2.0000           -0.4963597             -13.5066
        76        2.0000           -0.4910874             -13.3632
        77        2.0000           -0.4826244             -13.1329
        78        2.0000           -0.4799187             -13.0593
        79        2.0000           -0.4759383             -12.9509
        80        2.0000           -0.4652297             -12.6595
        81        2.0000           -0.4602826             -12.5249
        82        2.0000           -0.4584887             -12.4761 (HOMO)
        83                         -0.2987443              -8.1292 (LUMO)
        84                         -0.2820724              -7.6756
        85                         -0.2637900              -7.1781
        86                         -0.1946980              -5.2980
        87                         -0.1137903              -3.0964
        88                         -0.0734068              -1.9975
        89                         -0.0539227              -1.4673
        90                         -0.0479734              -1.3054
        91                         -0.0450102              -1.2248
        92                         -0.0398652              -1.0848
        93                         -0.0350139              -0.9528
       ...                                ...                  ...
       169                          0.8154214              22.1887
      -------------------------------------------------------------
                  HL-Gap            0.1597444 Eh            4.3469 eV

     #   Z          covCN         q      C6AA      α(0)
     1   6 C        3.751    -0.102    22.512     6.766
     2   6 C        3.799    -0.052    21.511     6.604
     3   6 C        3.800    -0.057    21.599     6.617
     4   6 C        3.800    -0.057    21.602     6.618
     5   6 C        3.800    -0.057    21.598     6.617
     6   6 C        3.800    -0.057    21.602     6.617
     7   6 C        3.800    -0.057    21.603     6.618
     8   6 C        3.800    -0.058    21.623     6.621
     9   6 C        3.800    -0.059    21.633     6.622
    10   6 C        3.800    -0.060    21.654     6.625
    11   6 C        3.800    -0.060    21.664     6.627
    12   6 C        3.801    -0.068    21.802     6.648
    13   6 C        3.842    -0.062    21.660     6.621
    14   6 C        3.750    -0.067    21.846     6.666
    15  15 P        3.875     0.180   152.469    22.181
    16   6 C        3.749    -0.079    22.066     6.700
    17   6 C        3.836    -0.066    21.732     6.632
    18   6 C        3.799    -0.060    21.659     6.626
    19   6 C        3.751    -0.111    22.681     6.792
    20   6 C        3.750    -0.078    22.048     6.697
    21   6 C        3.838    -0.065    21.709     6.628
    22   6 C        3.800    -0.061    21.670     6.628
    23   6 C        3.752    -0.110    22.670     6.790
    24   6 C        3.749    -0.074    21.974     6.686
    25   6 C        3.831    -0.065    21.729     6.632
    26   6 C        3.800    -0.059    21.639     6.623
    27   6 C        3.752    -0.109    22.653     6.787
    28   1 H        0.925     0.034     2.524     2.484
    29   1 H        0.925     0.033     2.545     2.495
    30   1 H        0.925     0.034     2.526     2.485
    31   1 H        0.924     0.030     2.582     2.513
    32   1 H        0.924     0.027     2.627     2.535
    33   1 H        0.924     0.026     2.639     2.541
    34   1 H        0.924     0.029     2.599     2.521
    35   1 H        0.924     0.026     2.649     2.545
    36   1 H        0.924     0.034     2.532     2.488
    37   1 H        0.924     0.026     2.641     2.541
    38   1 H        0.924     0.034     2.528     2.486
    39   1 H        0.924     0.026     2.637     2.539
    40   1 H        0.924     0.033     2.539     2.492
    41   1 H        0.924     0.023     2.687     2.563
    42   1 H        0.924     0.034     2.530     2.487
    43   1 H        0.924     0.022     2.707     2.573
    44   1 H        0.924     0.039     2.464     2.455
    45   1 H        0.924     0.024     2.681     2.560
    46   1 H        0.924     0.041     2.436     2.441
    47   1 H        0.924     0.026     2.647     2.544
    48   1 H        0.924     0.041     2.429     2.437
    49   1 H        0.924     0.020     2.735     2.586
    50   1 H        0.925     0.048     2.344     2.394
    51   1 H        0.925     0.036     2.503     2.474
    52   1 H        0.925     0.056     2.241     2.341
    53   1 H        0.924     0.046     2.371     2.408
    54   1 H        0.924     0.065     2.141     2.288
    55   1 H        0.929     0.089     1.887     2.148
    56   1 H        0.926     0.096     1.826     2.113
    57   1 H        0.927     0.086     1.920     2.167
    58   1 H        0.927     0.081     1.970     2.195
    59   1 H        0.924     0.066     2.133     2.284
    60   1 H        0.924     0.051     2.302     2.373
    61   1 H        0.924     0.055     2.262     2.352
    62   1 H        0.924     0.033     2.547     2.496
    63   1 H        0.925     0.052     2.298     2.371
    64   1 H        0.925     0.051     2.303     2.373
    65   1 H        0.925     0.029     2.600     2.522
    66   1 H        0.926     0.089     1.891     2.151
    67   1 H        0.927     0.093     1.852     2.128
    68   1 H        0.924     0.068     2.109     2.271
    69   1 H        0.924     0.046     2.377     2.411
    70   1 H        0.924     0.051     2.308     2.376
    71   1 H        0.924     0.037     2.488     2.467
    72   1 H        0.925     0.050     2.316     2.380
    73   1 H        0.925     0.051     2.312     2.378
    74   1 H        0.925     0.032     2.552     2.498
    75   1 H        0.926     0.091     1.869     2.138
    76   1 H        0.929     0.082     1.954     2.186
    77   1 H        0.924     0.065     2.145     2.290
    78   1 H        0.924     0.053     2.285     2.364
    79   1 H        0.924     0.050     2.319     2.381
    80   1 H        0.924     0.038     2.475     2.460
    81   1 H        0.925     0.048     2.347     2.396
    82   1 H        0.925     0.050     2.324     2.384
    83   1 H        0.925     0.033     2.542     2.493

Wiberg/Mayer (AO) data.
largest (>0.10) Wiberg bond orders for each atom

     #   Z sym  total        # sym  WBO       # sym  WBO       # sym  WBO
 ---------------------------------------------------------------------------
     1   6 C    3.997 --     2 C    1.020    30 H    0.988    29 H    0.987
                            28 H    0.986
     2   6 C    3.998 --     1 C    1.020     3 C    1.008    32 H    0.978
                            31 H    0.976
     3   6 C    3.998 --     2 C    1.008     4 C    1.008    34 H    0.977
                            33 H    0.975
     4   6 C    3.997 --     5 C    1.008     3 C    1.008    35 H    0.975
                            36 H    0.975
     5   6 C    3.997 --     4 C    1.008     6 C    1.008    37 H    0.975
                            38 H    0.975
     6   6 C    3.997 --     7 C    1.008     5 C    1.008    39 H    0.975
                            40 H    0.975
     7   6 C    3.998 --     6 C    1.008     8 C    1.008    41 H    0.975
                            42 H    0.974
     8   6 C    3.997 --     7 C    1.008     9 C    1.008    43 H    0.975
                            44 H    0.974
     9   6 C    3.996 --     8 C    1.008    10 C    1.007    45 H    0.974
                            46 H    0.974
    10   6 C    3.996 --    11 C    1.007     9 C    1.007    47 H    0.976
                            48 H    0.975
    11   6 C    3.996 --    10 C    1.007    12 C    1.007    50 H    0.971
                            49 H    0.971
    12   6 C    3.993 --    11 C    1.007    13 C    1.007    52 H    0.969
                            51 H    0.963
    13   6 C    3.987 --    12 C    1.007    14 C    0.984    54 H    0.967
                            53 H    0.965
    14   6 C    3.983 --    15 P    1.000    13 C    0.984    56 H    0.928
                            55 H    0.925
    15  15 P    4.545 --    16 C    1.010    24 C    1.001    14 C    1.000
                            20 C    0.993
    16   6 C    3.989 --    15 P    1.010    17 C    0.991    58 H    0.935
                            57 H    0.933
    17   6 C    3.986 --    18 C    1.007    16 C    0.991    60 H    0.969
                            59 H    0.968
    18   6 C    3.995 --    19 C    1.021    17 C    1.007    61 H    0.975
                            62 H    0.963
    19   6 C    3.994 --    18 C    1.021    63 H    0.985    64 H    0.985
                            65 H    0.981
    20   6 C    3.985 --    15 P    0.993    21 C    0.992    67 H    0.932
                            66 H    0.931
    21   6 C    3.989 --    22 C    1.007    20 C    0.992    69 H    0.968
                            68 H    0.968
    22   6 C    3.995 --    23 C    1.021    21 C    1.007    70 H    0.976
                            71 H    0.961
    23   6 C    3.994 --    22 C    1.021    72 H    0.986    73 H    0.985
                            74 H    0.982
    24   6 C    3.986 --    15 P    1.001    25 C    0.992    75 H    0.931
                            76 H    0.929
    25   6 C    3.986 --    26 C    1.006    24 C    0.992    77 H    0.968
                            78 H    0.962
    26   6 C    3.995 --    27 C    1.020    25 C    1.006    79 H    0.976
                            80 H    0.965
    27   6 C    3.993 --    26 C    1.020    81 H    0.986    82 H    0.985
                            83 H    0.982
    28   1 H    0.999 --     1 C    0.986
    29   1 H    0.999 --     1 C    0.987
    30   1 H    0.999 --     1 C    0.988
    31   1 H    0.999 --     2 C    0.976
    32   1 H    0.999 --     2 C    0.978
    33   1 H    0.999 --     3 C    0.975
    34   1 H    0.999 --     3 C    0.977
    35   1 H    0.999 --     4 C    0.975
    36   1 H    0.999 --     4 C    0.975
    37   1 H    0.999 --     5 C    0.975
    38   1 H    0.999 --     5 C    0.975
    39   1 H    0.999 --     6 C    0.975
    40   1 H    0.999 --     6 C    0.975
    41   1 H    0.999 --     7 C    0.975
    42   1 H    0.999 --     7 C    0.974
    43   1 H    1.000 --     8 C    0.975
    44   1 H    0.998 --     8 C    0.974
    45   1 H    0.999 --     9 C    0.974
    46   1 H    0.998 --     9 C    0.974
    47   1 H    0.999 --    10 C    0.976
    48   1 H    0.998 --    10 C    0.975
    49   1 H    1.000 --    11 C    0.971
    50   1 H    0.998 --    11 C    0.971
    51   1 H    0.999 --    12 C    0.963
    52   1 H    0.997 --    12 C    0.969
    53   1 H    0.998 --    13 C    0.965
    54   1 H    0.995 --    13 C    0.967
    55   1 H    0.992 --    14 C    0.925
    56   1 H    0.991 --    14 C    0.928
    57   1 H    0.993 --    16 C    0.933
    58   1 H    0.993 --    16 C    0.935
    59   1 H    0.995 --    17 C    0.968
    60   1 H    0.997 --    17 C    0.969
    61   1 H    0.997 --    18 C    0.975
    62   1 H    0.999 --    18 C    0.963
    63   1 H    0.997 --    19 C    0.985
    64   1 H    0.997 --    19 C    0.985
    65   1 H    0.999 --    19 C    0.981
    66   1 H    0.992 --    20 C    0.931
    67   1 H    0.991 --    20 C    0.932
    68   1 H    0.995 --    21 C    0.968
    69   1 H    0.998 --    21 C    0.968
    70   1 H    0.997 --    22 C    0.976
    71   1 H    0.999 --    22 C    0.961
    72   1 H    0.997 --    23 C    0.986
    73   1 H    0.997 --    23 C    0.985
    74   1 H    0.999 --    23 C    0.982
    75   1 H    0.991 --    24 C    0.931
    76   1 H    0.993 --    24 C    0.929
    77   1 H    0.995 --    25 C    0.968
    78   1 H    0.997 --    25 C    0.962
    79   1 H    0.997 --    26 C    0.976
    80   1 H    0.999 --    26 C    0.965
    81   1 H    0.997 --    27 C    0.986
    82   1 H    0.997 --    27 C    0.985
    83   1 H    0.999 --    27 C    0.982
 ---------------------------------------------------------------------------

molecular dipole:
                 x           y           z       tot (Debye)
 q only:       -8.699     -14.737     -15.620
   full:       -8.754     -14.938     -15.658      59.335

           -------------------------------------------------
          | TOTAL ENERGY              -86.408534448811 Eh   |
          | GRADIENT NORM               0.000184131904 Eh/α |
          | HOMO-LUMO GAP               4.346866329210 eV   |
           -------------------------------------------------

 * finished run on 2024/12/20 at 06:48:21.549
