   * xtb version 6.7.1 (edcfbbe) compiled by 'conda@3ef47c1a292c' on 2024-11-25

   ID    Z sym.   atoms
    1   17 Cl     1
    2    6 C      2-7, 9, 10, 12
    3    7 N      8, 11
    4    1 H      13-22

          program call               : xtb C0547.xyz --opt --namespace C0547 --charge +1
          :  Hamiltonian                  GFN2-xTB          :
 * total energy  :   -34.4061457 Eh     change       -0.8848673E-09 Eh
 * total energy  :   -34.4091030 Eh     change       -0.2957299E-02 Eh
 * total energy  :   -34.4095378 Eh     change       -0.4348188E-03 Eh
 * total energy  :   -34.4095703 Eh     change       -0.3256484E-04 Eh
 * total energy  :   -34.4095817 Eh     change       -0.1132704E-04 Eh
 * total energy  :   -34.4095843 Eh     change       -0.2605459E-05 Eh
   *** GEOMETRY OPTIMIZATION CONVERGED AFTER 6 ITERATIONS ***

 final structure:
================
22
 xtb: 6.7.1 (edcfbbe)
Cl           1.00936540947452       -0.12320780026270       -0.01816700071564
C            2.72317209227244       -0.11769244223529       -0.00974521869992
C            3.39937194665958        1.11499770140336       -0.00600588340810
C            4.77323270887063        1.18688892724846        0.00081408557481
C            5.47755982896755       -0.01465816656394        0.00390144062012
C            4.79504460215529       -1.24822919562890        0.00006914801294
C            3.40881259469288       -1.32157969230577       -0.00678763142935
N            5.75876771080433       -2.23330440054439        0.00447612644424
C            5.50297375002467       -3.64771504309980        0.00252448246985
C            6.94625743958606       -1.63581346488307        0.01057931955144
N            6.82352510927940       -0.31128963264215        0.01046944972840
C            7.91485724731529        0.62837260573422        0.01625912577584
H            2.81624536608442        2.02166179625821       -0.00859894684239
H            5.27199463794306        2.14198677975646        0.00359003599945
H            2.88254564417514       -2.26097667714914       -0.00970822527959
H            4.92444104385162       -3.92307172463464        0.88530929750209
H            4.93373913583764       -3.92230061760003       -0.88652773257162
H            6.44331824320113       -4.19391590079909        0.00721977479239
H            7.88752631297032       -2.15414947684489        0.01506607759284
H            8.53046354618286        0.49060386636316        0.90578830267138
H            8.53911664115749        0.49148985691811       -0.86735777306140
H            7.52059898849365        1.64072270151185        0.01484174527223

          :  Hamiltonian                  GFN2-xTB          :
         :: total energy             -34.409584278976 Eh    ::
         :: gradient norm              0.000291822523 Eh/a0 ::
         :: HOMO-LUMO gap              2.768165076950 eV    ::
         :: SCC energy               -34.909009595433 Eh    ::
         :: -> dispersion             -0.020125209128 Eh    ::
         :: repulsion energy           0.499425316456 Eh    ::

    * Orbital Energies and Occupations

         #    Occupation            Energy/Eh            Energy/eV
      -------------------------------------------------------------
         1        2.0000           -1.1701781             -31.8422
       ...           ...                  ...                  ...
        19        2.0000           -0.6533023             -17.7773
        20        2.0000           -0.6530985             -17.7717
        21        2.0000           -0.6529223             -17.7669
        22        2.0000           -0.6370065             -17.3338
        23        2.0000           -0.6343711             -17.2621
        24        2.0000           -0.6334406             -17.2368
        25        2.0000           -0.6092631             -16.5789
        26        2.0000           -0.6031376             -16.4122
        27        2.0000           -0.5920067             -16.1093
        28        2.0000           -0.5886022             -16.0167
        29        2.0000           -0.5615006             -15.2792
        30        2.0000           -0.5387096             -14.6590
        31        2.0000           -0.5287917             -14.3892 (HOMO)
        32                         -0.4270635             -11.6210 (LUMO)
        33                         -0.3785801             -10.3017
        34                         -0.3692477             -10.0477
        35                         -0.2561723              -6.9708
        36                         -0.2533304              -6.8935
        37                         -0.1858219              -5.0565
        38                         -0.1388658              -3.7787
        39                         -0.1069284              -2.9097
        40                         -0.0992261              -2.7001
        41                         -0.0991760              -2.6987
        42                         -0.0863612              -2.3500
       ...                                ...                  ...
        63                          0.5168347              14.0638
      -------------------------------------------------------------
                  HL-Gap            0.1017282 Eh            2.7682 eV

     #   Z          covCN         q      C6AA      α(0)
     1  17 Cl       0.975    -0.087   101.879    15.442
     2   6 C        2.890     0.111    25.546     8.287
     3   6 C        2.962    -0.028    28.710     8.789
     4   6 C        2.908    -0.028    28.711     8.786
     5   6 C        3.116     0.034    27.071     8.522
     6   6 C        3.124     0.040    26.924     8.497
     7   6 C        2.950    -0.048    29.193     8.862
     8   7 N        2.824     0.052    20.327     6.696
     9   6 C        3.691    -0.082    22.263     6.752
    10   6 C        3.075     0.057    26.643     8.463
    11   7 N        2.825     0.052    20.339     6.698
    12   6 C        3.691    -0.083    22.272     6.753
    13   1 H        0.926     0.103     1.758     2.073
    14   1 H        0.926     0.086     1.922     2.168
    15   1 H        0.926     0.095     1.829     2.115
    16   1 H        0.924     0.105     1.740     2.063
    17   1 H        0.924     0.105     1.740     2.063
    18   1 H        0.925     0.098     1.804     2.100
    19   1 H        0.926     0.113     1.669     2.021
    20   1 H        0.924     0.100     1.782     2.087
    21   1 H        0.924     0.100     1.782     2.087
    22   1 H        0.925     0.105     1.740     2.063

Wiberg/Mayer (AO) data.
largest (>0.10) Wiberg bond orders for each atom

     #   Z sym  total        # sym  WBO       # sym  WBO       # sym  WBO
 ---------------------------------------------------------------------------
     1  17 Cl   1.205 --     2 C    1.043
     2   6 C    3.936 --     7 C    1.437     3 C    1.323     1 Cl   1.043
     3   6 C    3.982 --     4 C    1.516     2 C    1.323    13 H    0.960
     4   6 C    3.985 --     3 C    1.516     5 C    1.323    14 H    0.959
                             7 C    0.111
     5   6 C    3.954 --     4 C    1.323     6 C    1.266    11 N    1.138
     6   6 C    3.957 --     7 C    1.344     5 C    1.266     8 N    1.134
     7   6 C    3.982 --     2 C    1.437     6 C    1.344    15 H    0.959
                             4 C    0.111
     8   7 N    3.694 --    10 C    1.365     6 C    1.134     9 C    0.990
                            11 N    0.103
     9   6 C    3.934 --     8 N    0.990    18 H    0.976    16 H    0.962
                            17 H    0.962
    10   6 C    3.943 --    11 N    1.368     8 N    1.365    19 H    0.952
    11   7 N    3.692 --    10 C    1.368     5 C    1.138    12 C    0.988
                             8 N    0.103
    12   6 C    3.934 --    11 N    0.988    22 H    0.973    20 H    0.965
                            21 H    0.965
    13   1 H    0.989 --     3 C    0.960
    14   1 H    0.992 --     4 C    0.959
    15   1 H    0.990 --     7 C    0.959
    16   1 H    0.988 --     9 C    0.962
    17   1 H    0.988 --     9 C    0.962
    18   1 H    0.990 --     9 C    0.976
    19   1 H    0.986 --    10 C    0.952
    20   1 H    0.989 --    12 C    0.965
    21   1 H    0.989 --    12 C    0.965
    22   1 H    0.989 --    12 C    0.973
 ---------------------------------------------------------------------------

molecular dipole:
                 x           y           z       tot (Debye)
 q only:       11.752      -2.012       0.013
   full:       11.506      -2.085       0.012      29.722

           -------------------------------------------------
          | TOTAL ENERGY              -34.409584278976 Eh   |
          | GRADIENT NORM               0.000291822523 Eh/α |
          | HOMO-LUMO GAP               2.768165076950 eV   |
           -------------------------------------------------

 * finished run on 2024/12/20 at 06:48:09.351
