   * xtb version 6.7.1 (edcfbbe) compiled by 'conda@3ef47c1a292c' on 2024-11-25

   ID    Z sym.   atoms
    1    6 C      1, 2, 4-9, 11
    2    7 N      3
    3    8 O      10
    4    1 H      12-23

          program call               : xtb C0541.xyz --opt --namespace C0541 --charge +1
          :  Hamiltonian                  GFN2-xTB          :
 * total energy  :   -31.9479832 Eh     change       -0.6425154E-09 Eh
 * total energy  :   -31.9512982 Eh     change       -0.3315005E-02 Eh
 * total energy  :   -31.9519175 Eh     change       -0.6193152E-03 Eh
 * total energy  :   -31.9519692 Eh     change       -0.5171097E-04 Eh
 * total energy  :   -31.9519830 Eh     change       -0.1381296E-04 Eh
 * total energy  :   -31.9519835 Eh     change       -0.4986963E-06 Eh
   *** GEOMETRY OPTIMIZATION CONVERGED AFTER 6 ITERATIONS ***

 final structure:
================
23
 xtb: 6.7.1 (edcfbbe)
C            0.93532857202200        0.09660093249420       -0.03490977783941
C            0.40793214412706       -1.32517049274426       -0.09697651932347
N            0.88459587143567       -2.22242978756588        0.95998261063731
C            1.63174965353844       -1.79203433052419        1.97917208026997
C            2.06155077753827       -2.65995777329712        2.96671270788091
C            1.70891832911910       -3.99552762779115        2.89503697608971
C            0.92373752930577       -4.43744726452488        1.82464563318554
C            0.53149575954144       -3.51426368352132        0.87472389890121
C            0.55583725501733       -5.91323963269611        1.78139156644100
O            0.95402224137837       -6.62785666220355        2.65839461344687
C           -0.28684063230111       -6.36852354597590        0.63397391765868
H            0.59716705847475        0.62018663580371        0.85581963135155
H            0.54556711571309        0.63541688767089       -0.89480198669314
H            2.02065258313410        0.12743057443391       -0.09385923927361
H           -0.68541910569720       -1.30963037203693       -0.04314515281421
H            0.68973540531381       -1.77304497274116       -1.05446155015720
H            1.89007437768996       -0.74599403647838        2.00936145160275
H            2.66485166078830       -2.28531105045111        3.77827509629811
H            2.01997149521158       -4.71387958467648        3.64058364126280
H           -0.07497589673488       -3.79433473519120        0.02563405221733
H           -1.24249081959285       -5.84764801807836        0.63114828836381
H            0.21939873953328       -6.18174860263327       -0.31112142463931
H           -0.46822011455628       -7.43585285727146        0.73116948513279

          :  Hamiltonian                  GFN2-xTB          :
         :: total energy             -31.951983528002 Eh    ::
         :: gradient norm              0.000207105579 Eh/a0 ::
         :: HOMO-LUMO gap              2.170453687374 eV    ::
         :: SCC energy               -32.445172621714 Eh    ::
         :: -> dispersion             -0.016956674111 Eh    ::
         :: repulsion energy           0.493189093712 Eh    ::

    * Orbital Energies and Occupations

         #    Occupation            Energy/Eh            Energy/eV
      -------------------------------------------------------------
         1        2.0000           -0.8890236             -24.1916
       ...           ...                  ...                  ...
        17        2.0000           -0.6839878             -18.6123
        18        2.0000           -0.6735790             -18.3290
        19        2.0000           -0.6513487             -17.7241
        20        2.0000           -0.6458555             -17.5746
        21        2.0000           -0.6413939             -17.4532
        22        2.0000           -0.6347450             -17.2723
        23        2.0000           -0.6250464             -17.0084
        24        2.0000           -0.6204234             -16.8826
        25        2.0000           -0.6166574             -16.7801
        26        2.0000           -0.6117833             -16.6475
        27        2.0000           -0.6052914             -16.4708
        28        2.0000           -0.6007588             -16.3475
        29        2.0000           -0.5473492             -14.8941 (HOMO)
        30                         -0.4675865             -12.7237 (LUMO)
        31                         -0.4535709             -12.3423
        32                         -0.3787861             -10.3073
        33                         -0.2958074              -8.0493
        34                         -0.1994699              -5.4279
        35                         -0.1002649              -2.7283
        36                         -0.0797041              -2.1689
        37                         -0.0638530              -1.7375
        38                         -0.0440301              -1.1981
        39                         -0.0232418              -0.6324
        40                         -0.0183500              -0.4993
       ...                                ...                  ...
        56                          0.5327804              14.4977
      -------------------------------------------------------------
                  HL-Gap            0.0797627 Eh            2.1705 eV

     #   Z          covCN         q      C6AA      α(0)
     1   6 C        3.751    -0.131    23.080     6.851
     2   6 C        3.755    -0.031    21.186     6.563
     3   7 N        2.746     0.106    19.419     6.545
     4   6 C        2.886     0.033    27.250     8.558
     5   6 C        2.913    -0.010    28.272     8.719
     6   6 C        2.929     0.017    27.627     8.620
     7   6 C        2.964     0.009    27.811     8.650
     8   6 C        2.897     0.023    27.483     8.595
     9   6 C        2.813     0.242    22.959     7.851
    10   8 O        0.858    -0.291    19.612     5.938
    11   6 C        3.753    -0.154    23.544     6.919
    12   1 H        0.925     0.072     2.066     2.248
    13   1 H        0.925     0.092     1.856     2.130
    14   1 H        0.925     0.072     2.061     2.245
    15   1 H        0.924     0.101     1.779     2.086
    16   1 H        0.924     0.099     1.794     2.095
    17   1 H        0.926     0.122     1.597     1.976
    18   1 H        0.926     0.113     1.671     2.022
    19   1 H        0.926     0.129     1.542     1.942
    20   1 H        0.926     0.107     1.719     2.050
    21   1 H        0.925     0.087     1.913     2.163
    22   1 H        0.925     0.086     1.915     2.164
    23   1 H        0.925     0.106     1.734     2.059

Wiberg/Mayer (AO) data.
largest (>0.10) Wiberg bond orders for each atom

     #   Z sym  total        # sym  WBO       # sym  WBO       # sym  WBO
 ---------------------------------------------------------------------------
     1   6 C    3.979 --     2 C    1.024    14 H    0.979    12 H    0.979
                            13 H    0.971
     2   6 C    3.935 --     1 C    1.024    16 H    0.953     3 N    0.950
                            15 H    0.949
     3   7 N    3.764 --     4 C    1.340     8 C    1.319     2 C    0.950
     4   6 C    3.953 --     5 C    1.440     3 N    1.340    17 H    0.946
     5   6 C    3.980 --     6 C    1.444     4 C    1.440    18 H    0.957
     6   6 C    3.960 --     5 C    1.444     7 C    1.366    19 H    0.952
     7   6 C    3.977 --     8 C    1.447     6 C    1.366     9 C    0.958
     8   6 C    3.958 --     7 C    1.447     3 N    1.319    20 H    0.951
     9   6 C    3.928 --    10 O    1.887    11 C    1.022     7 C    0.958
    10   8 O    2.128 --     9 C    1.887
    11   6 C    3.985 --     9 C    1.022    23 H    0.974    22 H    0.951
                            21 H    0.950
    12   1 H    0.995 --     1 C    0.979
    13   1 H    0.991 --     1 C    0.971
    14   1 H    0.995 --     1 C    0.979
    15   1 H    0.990 --     2 C    0.949
    16   1 H    0.990 --     2 C    0.953
    17   1 H    0.985 --     4 C    0.946
    18   1 H    0.987 --     5 C    0.957
    19   1 H    0.983 --     6 C    0.952
    20   1 H    0.988 --     8 C    0.951
    21   1 H    0.993 --    11 C    0.950
    22   1 H    0.993 --    11 C    0.951
    23   1 H    0.988 --    11 C    0.974
 ---------------------------------------------------------------------------

molecular dipole:
                 x           y           z       tot (Debye)
 q only:        1.566      -4.420       1.712
   full:        1.497      -4.288       1.573      12.216

           -------------------------------------------------
          | TOTAL ENERGY              -31.951983528002 Eh   |
          | GRADIENT NORM               0.000207105579 Eh/α |
          | HOMO-LUMO GAP               2.170453687374 eV   |
           -------------------------------------------------

 * finished run on 2024/12/20 at 06:47:58.312
