   * xtb version 6.7.1 (edcfbbe) compiled by 'conda@3ef47c1a292c' on 2024-11-25

   ID    Z sym.   atoms
    1    8 O      1
    2    6 C      2-9, 11, 12, 14-22
    3    7 N      10, 13
    4    1 H      23-41

          program call               : xtb C0545.xyz --opt --namespace C0545 --charge +1
          :  Hamiltonian                  GFN2-xTB          :
 * total energy  :   -59.8890650 Eh     change       -0.4080007E-09 Eh
 * total energy  :   -59.8964620 Eh     change       -0.7397017E-02 Eh
 * total energy  :   -59.8982666 Eh     change       -0.1804648E-02 Eh
 * total energy  :   -59.8986045 Eh     change       -0.3378932E-03 Eh
 * total energy  :   -59.8987600 Eh     change       -0.1554125E-03 Eh
 * total energy  :   -59.8988307 Eh     change       -0.7072013E-04 Eh
 * total energy  :   -59.8989353 Eh     change       -0.1045992E-03 Eh
 * total energy  :   -59.8990740 Eh     change       -0.1387679E-03 Eh
 * total energy  :   -59.8992387 Eh     change       -0.1646611E-03 Eh
 * total energy  :   -59.8994179 Eh     change       -0.1792415E-03 Eh
 * total energy  :   -59.9062525 Eh     change       -0.6869498E-04 Eh
 * total energy  :   -59.9063001 Eh     change       -0.4759942E-04 Eh
 * total energy  :   -59.9063154 Eh     change       -0.1521462E-04 Eh
 * total energy  :   -59.9063359 Eh     change       -0.2053795E-04 Eh
 * total energy  :   -59.9063533 Eh     change       -0.1738143E-04 Eh
 * total energy  :   -59.9063722 Eh     change       -0.1891895E-04 Eh
 * total energy  :   -59.9063798 Eh     change       -0.7593383E-05 Eh
 * total energy  :   -59.9063862 Eh     change       -0.6455083E-05 Eh
 * total energy  :   -59.9063894 Eh     change       -0.3208211E-05 Eh
   *** GEOMETRY OPTIMIZATION CONVERGED AFTER 62 ITERATIONS ***

 final structure:
================
41
 xtb: 6.7.1 (edcfbbe)
O            1.70582839191535       -0.07512707012199       -1.77178592920952
C            2.76426246713817       -0.23495243162300       -1.20828717796789
C            2.91432979311400       -0.78772947105098        0.13545249482156
C            4.14439413841370       -0.90742396779767        0.79140722004375
C            4.19819935047575       -1.44268093142355        2.06308173350373
C            3.03853102177167       -1.86552157742437        2.69734802493336
C            1.81382778493768       -1.74884474987209        2.05767527406984
C            1.75036112943867       -1.21357025579460        0.78754651437326
C            4.06454269264657        0.17893724247965       -1.95092372602550
N            3.72839331472655        0.55304243531532       -3.29538658033141
C            3.93207461123639       -0.22717118037336       -4.39982473290122
C            3.29983961929934        0.37316206283788       -5.43833050773504
N            2.70965285990035        1.50568619879922       -4.95612054896768
C            2.96717037485200        1.59882630240686       -3.64681731647320
C            2.50571583929077        2.68306522563802       -2.76050780958959
C            1.87503204817521        2.40780782719562       -5.71936598016690
C            0.47165298528136        2.48429050202743       -5.15779064104721
C           -0.17822559363819        1.33270881712860       -4.73242536124007
C           -1.46464347770070        1.40736700702407       -4.22877765087442
C           -2.11325346841934        2.62850701000568       -4.15590966299857
C           -1.47134890749431        3.77730687333932       -4.58577028962250
C           -0.18042362552726        3.70708608090127       -5.07995232613644
H            5.05966784570681       -0.58229888868660        0.32265531985419
H            5.14894472561018       -1.53272993713332        2.56527257321283
H            3.09211450348336       -2.28488003167388        3.69007084639032
H            0.91192851027017       -2.07584431674492        2.54989757671836
H            0.80709297558699       -1.11520754444781        0.27206391361239
H            4.52767991669622        1.01516853564627       -1.42098256181093
H            4.76198762675236       -0.65861404562485       -1.98201401371036
H            4.50142540710327       -1.13275305376436       -4.36575439748090
H            3.22754856902944        0.07972310839757       -6.46526293429862
H            1.54643111491550        2.41316873504627       -2.31614586989507
H            3.21508513157829        2.85721751441130       -1.95518766856215
H            2.36677738364247        3.60427109891300       -3.32002519154621
H            2.32978353464897        3.40346094539598       -5.73038723143220
H            1.84827290775562        2.03797895201791       -6.74813341785639
H            0.31635585816280        0.37404508643083       -4.79023152813531
H           -1.96029247681341        0.50856615758869       -3.89763918166391
H           -3.11820096692793        2.68416889541459       -3.76809352944411
H           -1.97332480668720        4.73073776478463       -4.53558411275886
H            0.31651888962166        4.60551907438013       -5.41580361157767

          :  Hamiltonian                  GFN2-xTB          :
         :: total energy             -59.906389446267 Eh    ::
         :: gradient norm              0.000990049582 Eh/a0 ::
         :: HOMO-LUMO gap              2.763100511165 eV    ::
         :: SCC energy               -60.918736521520 Eh    ::
         :: -> dispersion             -0.043242161114 Eh    ::
         :: repulsion energy           1.012347075253 Eh    ::

    * Orbital Energies and Occupations

         #    Occupation            Energy/Eh            Energy/eV
      -------------------------------------------------------------
         1        2.0000           -0.8715336             -23.7156
       ...           ...                  ...                  ...
        43        2.0000           -0.5788655             -15.7517
        44        2.0000           -0.5778554             -15.7242
        45        2.0000           -0.5751918             -15.6518
        46        2.0000           -0.5543352             -15.0842
        47        2.0000           -0.5493048             -14.9473
        48        2.0000           -0.5330826             -14.5059
        49        2.0000           -0.5281725             -14.3723
        50        2.0000           -0.5243290             -14.2677
        51        2.0000           -0.5231950             -14.2369
        52        2.0000           -0.5224144             -14.2156
        53        2.0000           -0.5202058             -14.1555
        54        2.0000           -0.5072153             -13.8020
        55        2.0000           -0.5058099             -13.7638 (HOMO)
        56                         -0.4042678             -11.0007 (LUMO)
        57                         -0.3792072             -10.3188
        58                         -0.3483707              -9.4796
        59                         -0.3367161              -9.1625
        60                         -0.3299953              -8.9796
        61                         -0.3253497              -8.8532
        62                         -0.3083040              -8.3894
        63                         -0.2007390              -5.4624
        64                         -0.1991819              -5.4200
        65                         -0.1624382              -4.4202
        66                         -0.1139084              -3.0996
       ...                                ...                  ...
       107                          0.5616036              15.2820
      -------------------------------------------------------------
                  HL-Gap            0.1015421 Eh            2.7631 eV

     #   Z          covCN         q      C6AA      α(0)
     1   8 O        0.857    -0.362    20.945     6.136
     2   6 C        2.822     0.227    23.240     7.899
     3   6 C        2.970    -0.019    28.480     8.754
     4   6 C        2.919    -0.028    28.689     8.783
     5   6 C        2.917    -0.019    28.494     8.753
     6   6 C        2.920    -0.007    28.205     8.709
     7   6 C        2.916    -0.018    28.464     8.749
     8   6 C        2.927    -0.010    28.264     8.719
     9   6 C        3.742    -0.044    21.446     6.607
    10   7 N        2.875     0.046    20.434     6.714
    11   6 C        3.048    -0.010    28.218     8.712
    12   6 C        3.049    -0.008    28.165     8.704
    13   7 N        2.874     0.043    20.493     6.723
    14   6 C        3.100     0.121    25.235     8.232
    15   6 C        3.754    -0.130    23.059     6.847
    16   6 C        3.747    -0.024    21.060     6.546
    17   6 C        2.971    -0.002    28.070     8.690
    18   6 C        2.923    -0.035    28.875     8.812
    19   6 C        2.920    -0.022    28.557     8.763
    20   6 C        2.920    -0.023    28.572     8.765
    21   6 C        2.920    -0.023    28.576     8.766
    22   6 C        2.923    -0.038    28.937     8.822
    23   1 H        0.926     0.041     2.437     2.441
    24   1 H        0.926     0.060     2.193     2.316
    25   1 H        0.926     0.066     2.126     2.280
    26   1 H        0.926     0.065     2.146     2.291
    27   1 H        0.926     0.072     2.063     2.246
    28   1 H        0.924     0.092     1.857     2.131
    29   1 H        0.924     0.098     1.805     2.101
    30   1 H        0.927     0.096     1.824     2.112
    31   1 H        0.926     0.099     1.795     2.095
    32   1 H        0.924     0.116     1.647     2.007
    33   1 H        0.925     0.085     1.927     2.171
    34   1 H        0.925     0.092     1.855     2.130
    35   1 H        0.924     0.079     1.991     2.207
    36   1 H        0.924     0.088     1.898     2.154
    37   1 H        0.926     0.034     2.529     2.487
    38   1 H        0.926     0.053     2.280     2.361
    39   1 H        0.926     0.055     2.256     2.349
    40   1 H        0.926     0.054     2.264     2.353
    41   1 H        0.926     0.040     2.455     2.450

Wiberg/Mayer (AO) data.
largest (>0.10) Wiberg bond orders for each atom

     #   Z sym  total        # sym  WBO       # sym  WBO       # sym  WBO
 ---------------------------------------------------------------------------
     1   8 O    2.084 --     2 C    1.808
     2   6 C    3.931 --     1 O    1.808     3 C    1.077     9 C    0.927
     3   6 C    3.984 --     4 C    1.355     8 C    1.352     2 C    1.077
     4   6 C    3.991 --     5 C    1.472     3 C    1.355    23 H    0.967
                             7 C    0.102
     5   6 C    3.990 --     4 C    1.472     6 C    1.418    24 H    0.968
     6   6 C    3.986 --     7 C    1.428     5 C    1.418    25 H    0.968
     7   6 C    3.989 --     8 C    1.463     6 C    1.428    26 H    0.967
                             4 C    0.102
     8   6 C    3.984 --     7 C    1.463     3 C    1.352    27 H    0.964
     9   6 C    3.950 --    10 N    0.993    29 H    0.954    28 H    0.944
                             2 C    0.927
    10   7 N    3.687 --    14 C    1.314    11 C    1.197     9 C    0.993
    11   6 C    3.947 --    12 C    1.614    10 N    1.197    30 H    0.963
    12   6 C    3.949 --    11 C    1.614    13 N    1.207    31 H    0.962
    13   7 N    3.692 --    14 C    1.328    12 C    1.207    16 C    0.967
    14   6 C    3.951 --    13 N    1.328    10 N    1.314    15 C    1.050
    15   6 C    3.978 --    14 C    1.050    33 H    0.966    34 H    0.965
                            32 H    0.937
    16   6 C    3.940 --    17 C    0.984    13 N    0.967    36 H    0.957
                            35 H    0.955
    17   6 C    3.978 --    22 C    1.415    18 C    1.414    16 C    0.984
                            20 C    0.109
    18   6 C    3.992 --    19 C    1.444    17 C    1.414    37 H    0.969
                            21 C    0.112
    19   6 C    3.991 --    18 C    1.444    20 C    1.439    38 H    0.969
                            22 C    0.111
    20   6 C    3.990 --    21 C    1.440    19 C    1.439    39 H    0.969
                            17 C    0.109
    21   6 C    3.990 --    22 C    1.441    20 C    1.440    40 H    0.969
                            18 C    0.112
    22   6 C    3.990 --    21 C    1.441    17 C    1.415    41 H    0.968
                            19 C    0.111
    23   1 H    0.998 --     4 C    0.967
    24   1 H    0.996 --     5 C    0.968
    25   1 H    0.995 --     6 C    0.968
    26   1 H    0.995 --     7 C    0.967
    27   1 H    0.995 --     8 C    0.964
    28   1 H    0.991 --     9 C    0.944
    29   1 H    0.990 --     9 C    0.954
    30   1 H    0.990 --    11 C    0.963
    31   1 H    0.990 --    12 C    0.962
    32   1 H    0.987 --    15 C    0.937
    33   1 H    0.992 --    15 C    0.966
    34   1 H    0.991 --    15 C    0.965
    35   1 H    0.993 --    16 C    0.955
    36   1 H    0.992 --    16 C    0.957
    37   1 H    0.999 --    18 C    0.969
    38   1 H    0.997 --    19 C    0.969
    39   1 H    0.996 --    20 C    0.969
    40   1 H    0.997 --    21 C    0.969
    41   1 H    0.998 --    22 C    0.968
 ---------------------------------------------------------------------------

molecular dipole:
                 x           y           z       tot (Debye)
 q only:        5.618       1.846      -5.389
   full:        5.938       1.786      -5.442      20.971

           -------------------------------------------------
          | TOTAL ENERGY              -59.906389446267 Eh   |
          | GRADIENT NORM               0.000990049582 Eh/α |
          | HOMO-LUMO GAP               2.763100511165 eV   |
           -------------------------------------------------

 * finished run on 2024/12/20 at 06:48:04.227
