   * xtb version 6.7.1 (edcfbbe) compiled by 'conda@3ef47c1a292c' on 2024-11-25

   ID    Z sym.   atoms
    1    8 O      1
    2    7 N      2, 9
    3    6 C      3-8, 10-12
    4    1 H      13-23

          program call               : xtb C0540.xyz --opt --namespace C0540 --charge +1
          :  Hamiltonian                  GFN2-xTB          :
 * total energy  :   -34.2762783 Eh     change       -0.1610516E-09 Eh
 * total energy  :   -34.2821106 Eh     change       -0.5832281E-02 Eh
 * total energy  :   -34.2832984 Eh     change       -0.1187850E-02 Eh
 * total energy  :   -34.2834744 Eh     change       -0.1759363E-03 Eh
 * total energy  :   -34.2835343 Eh     change       -0.5994179E-04 Eh
 * total energy  :   -34.2835596 Eh     change       -0.2532438E-04 Eh
 * total energy  :   -34.2835976 Eh     change       -0.3791180E-04 Eh
 * total energy  :   -34.2836174 Eh     change       -0.1983817E-04 Eh
 * total energy  :   -34.2836471 Eh     change       -0.2968361E-04 Eh
 * total energy  :   -34.2836879 Eh     change       -0.4079805E-04 Eh
 * total energy  :   -34.2853633 Eh     change       -0.5184727E-04 Eh
 * total energy  :   -34.2854312 Eh     change       -0.6794843E-04 Eh
 * total energy  :   -34.2855104 Eh     change       -0.7920549E-04 Eh
 * total energy  :   -34.2855537 Eh     change       -0.4327648E-04 Eh
 * total energy  :   -34.2855849 Eh     change       -0.3118386E-04 Eh
 * total energy  :   -34.2856054 Eh     change       -0.2051904E-04 Eh
 * total energy  :   -34.2856138 Eh     change       -0.8392718E-05 Eh
 * total energy  :   -34.2856188 Eh     change       -0.4965769E-05 Eh
 * total energy  :   -34.2856220 Eh     change       -0.3241218E-05 Eh
   *** GEOMETRY OPTIMIZATION CONVERGED AFTER 32 ITERATIONS ***

 final structure:
================
23
 xtb: 6.7.1 (edcfbbe)
O            1.19648147607454        0.14761079352767        0.25716792773157
N            0.34810099967737       -0.48593305084262        1.10521618967828
C           -0.90514272758866       -0.32627571510338        1.00072603295820
C           -1.65156192988759        0.45647752038259        0.01125787372235
C           -1.13715093244512        0.64827784106500       -1.27171653369177
C           -1.84524312827295        1.36934379915305       -2.21443191703292
C           -3.07733901104490        1.90524478454911       -1.85747415853140
C           -3.54761567042875        1.69233904632092       -0.58184720758628
N           -2.86044939279561        0.98324706754739        0.32347899768569
C           -3.41012183923726        0.86709041510587        1.67057740674232
C           -2.65274626937281        1.74263760018148        2.63791844046636
C           -3.22068505853191        2.71389127671888        3.32494476151370
H            2.09083153607555       -0.07359473167722        0.56977357676189
H           -1.45270899852669       -0.87283077504673        1.75574911070053
H           -0.17882086881058        0.21950669861892       -1.51667803687205
H           -1.44575449832470        1.51315070018087       -3.20576205684795
H           -3.66461949024262        2.47901444613168       -2.55558969358139
H           -4.49737722302854        2.09752700458249       -0.26576576770541
H           -4.45823775792932        1.16950196974487        1.64693328361325
H           -3.36589137194864       -0.17703473029329        1.99267036939231
H           -1.60044308525458        1.52002897763459        2.74526218553768
H           -2.65881933411292        3.30778935656508        4.02384133815124
H           -4.26950542404359        2.94638970495240        3.23875787719387

          :  Hamiltonian                  GFN2-xTB          :
         :: total energy             -34.285622019404 Eh    ::
         :: gradient norm              0.000535312750 Eh/a0 ::
         :: HOMO-LUMO gap              2.157539685155 eV    ::
         :: SCC energy               -34.813717141628 Eh    ::
         :: -> dispersion             -0.019120191545 Eh    ::
         :: repulsion energy           0.528095122225 Eh    ::

    * Orbital Energies and Occupations

         #    Occupation            Energy/Eh            Energy/eV
      -------------------------------------------------------------
         1        2.0000           -0.8730465             -23.7568
       ...           ...                  ...                  ...
        19        2.0000           -0.6710688             -18.2607
        20        2.0000           -0.6638142             -18.0633
        21        2.0000           -0.6516281             -17.7317
        22        2.0000           -0.6395007             -17.4017
        23        2.0000           -0.6249283             -17.0052
        24        2.0000           -0.6220933             -16.9280
        25        2.0000           -0.6196344             -16.8611
        26        2.0000           -0.6112974             -16.6342
        27        2.0000           -0.6044184             -16.4471
        28        2.0000           -0.5788337             -15.7509
        29        2.0000           -0.5681242             -15.4594
        30        2.0000           -0.5578267             -15.1792
        31        2.0000           -0.5413136             -14.7299 (HOMO)
        32                         -0.4620255             -12.5724 (LUMO)
        33                         -0.4325665             -11.7707
        34                         -0.3707238             -10.0879
        35                         -0.3554443              -9.6721
        36                         -0.2927637              -7.9665
        37                         -0.1677730              -4.5653
        38                         -0.1592677              -4.3339
        39                         -0.0883235              -2.4034
        40                         -0.0512574              -1.3948
        41                         -0.0446815              -1.2158
        42                         -0.0336946              -0.9169
       ...                                ...                  ...
        59                          0.4792138              13.0401
      -------------------------------------------------------------
                  HL-Gap            0.0792881 Eh            2.1575 eV

     #   Z          covCN         q      C6AA      α(0)
     1   8 O        1.727    -0.300    18.991     5.884
     2   7 N        1.831    -0.042    22.764     7.070
     3   6 C        2.827     0.028    27.360     8.571
     4   6 C        2.928     0.082    26.176     8.390
     5   6 C        2.921    -0.014    28.363     8.734
     6   6 C        2.922     0.010    27.806     8.647
     7   6 C        2.915    -0.014    28.351     8.731
     8   6 C        2.889     0.033    27.251     8.559
     9   7 N        2.751     0.085    19.765     6.603
    10   6 C        3.761    -0.031    21.176     6.560
    11   6 C        2.886    -0.040    28.999     8.829
    12   6 C        2.837    -0.076    29.883     8.958
    13   1 H        0.804     0.347     0.596     1.212
    14   1 H        0.926     0.095     1.827     2.113
    15   1 H        0.926     0.120     1.616     1.988
    16   1 H        0.926     0.104     1.748     2.068
    17   1 H        0.926     0.105     1.740     2.063
    18   1 H        0.926     0.104     1.750     2.069
    19   1 H        0.924     0.093     1.849     2.126
    20   1 H        0.924     0.095     1.835     2.118
    21   1 H        0.926     0.059     2.205     2.322
    22   1 H        0.926     0.085     1.926     2.170
    23   1 H        0.926     0.071     2.075     2.253

Wiberg/Mayer (AO) data.
largest (>0.10) Wiberg bond orders for each atom

     #   Z sym  total        # sym  WBO       # sym  WBO       # sym  WBO
 ---------------------------------------------------------------------------
     1   8 O    2.176 --     2 N    1.106    13 H    0.867     3 C    0.124
     2   7 N    3.041 --     3 C    1.789     1 O    1.106
     3   6 C    3.978 --     2 N    1.789     4 C    1.071    14 H    0.935
                             1 O    0.124
     4   6 C    3.959 --     5 C    1.383     9 N    1.264     3 C    1.071
     5   6 C    3.978 --     6 C    1.450     4 C    1.383    15 H    0.952
     6   6 C    3.970 --     5 C    1.450     7 C    1.399    16 H    0.961
     7   6 C    3.982 --     8 C    1.470     6 C    1.399    17 H    0.959
     8   6 C    3.959 --     7 C    1.470     9 N    1.325    18 H    0.953
     9   7 N    3.748 --     8 C    1.325     4 C    1.264    10 C    0.958
    10   6 C    3.937 --    11 C    0.989    19 H    0.962     9 N    0.958
                            20 H    0.941
    11   6 C    3.980 --    12 C    1.989    10 C    0.989    21 H    0.959
    12   6 C    3.981 --    11 C    1.989    23 H    0.970    22 H    0.967
    13   1 H    0.879 --     1 O    0.867
    14   1 H    0.991 --     3 C    0.935
    15   1 H    0.985 --     5 C    0.952
    16   1 H    0.988 --     6 C    0.961
    17   1 H    0.988 --     7 C    0.959
    18   1 H    0.988 --     8 C    0.953
    19   1 H    0.991 --    10 C    0.962
    20   1 H    0.991 --    10 C    0.941
    21   1 H    0.996 --    11 C    0.959
    22   1 H    0.991 --    12 C    0.967
    23   1 H    0.994 --    12 C    0.970
 ---------------------------------------------------------------------------

molecular dipole:
                 x           y           z       tot (Debye)
 q only:       -4.148       1.977       0.299
   full:       -4.302       2.027       0.146      12.093

           -------------------------------------------------
          | TOTAL ENERGY              -34.285622019404 Eh   |
          | GRADIENT NORM               0.000535312750 Eh/α |
          | HOMO-LUMO GAP               2.157539685155 eV   |
           -------------------------------------------------

 * finished run on 2024/12/20 at 06:47:57.881
