   * xtb version 6.7.1 (edcfbbe) compiled by 'conda@3ef47c1a292c' on 2024-11-25

   ID    Z sym.   atoms
    1    6 C      1, 3, 4, 6-12
    2    7 N      2, 5
    3   16 S      13
    4    9 F      14-26
    5    1 H      27-36

          program call               : xtb C0548.xyz --opt --namespace C0548 --charge +1
          :  Hamiltonian                  GFN2-xTB          :
 * total energy  :   -58.5301953 Eh     change       -0.2694378E-09 Eh
 * total energy  :   -95.4723347 Eh     change       -0.3694214E+02 Eh
 * total energy  :   -95.9532104 Eh     change       -0.4808757E+00 Eh
 * total energy  :   -96.2105170 Eh     change       -0.2573066E+00 Eh
 * total energy  :   -96.3894164 Eh     change       -0.1788994E+00 Eh
 * total energy  :   -96.5057816 Eh     change       -0.1163652E+00 Eh
 * total energy  :   -96.5839799 Eh     change       -0.7819836E-01 Eh
 * total energy  :   -96.6395527 Eh     change       -0.5557275E-01 Eh
 * total energy  :   -96.6798826 Eh     change       -0.4032992E-01 Eh
 * total energy  :   -96.7069163 Eh     change       -0.2703369E-01 Eh
 * total energy  :   -96.8447854 Eh     change       -0.1709524E-04 Eh
 * total energy  :   -96.8447992 Eh     change       -0.1377095E-04 Eh
 * total energy  :   -96.8448110 Eh     change       -0.1181530E-04 Eh
 * total energy  :   -96.8448218 Eh     change       -0.1081026E-04 Eh
 * total energy  :   -96.8448271 Eh     change       -0.5263006E-05 Eh
 * total energy  :   -96.8448347 Eh     change       -0.7641137E-05 Eh
 * total energy  :   -96.8448425 Eh     change       -0.7756122E-05 Eh
 * total energy  :   -96.8448480 Eh     change       -0.5553341E-05 Eh
 * total energy  :   -96.8448521 Eh     change       -0.4050418E-05 Eh
   *** GEOMETRY OPTIMIZATION CONVERGED AFTER 156 ITERATIONS ***

 final structure:
================
36
 xtb: 6.7.1 (edcfbbe)
C            2.96956172189808        0.22100538611008        0.49263452671033
N            1.91629035926543        1.18957975483288        0.60850325214148
C            0.80586461457879        1.05409145250089        1.38403539514959
C            0.09054939592189        2.20458901126439        1.27330575902038
N            0.78109381362396        3.02762304887920        0.43003863156285
C            1.88006343544606        2.38238014434624        0.03639212246324
C            0.35876969169748        4.34517259240305        0.01486925258414
C            0.39255026167537        5.38335637594450        1.14343482818555
C            1.75914280874033        5.90765412999885        1.57896317170178
C            2.67432536433542        6.41510629456372        0.42153083266718
C            3.83007421984408        7.37927074798406        0.84524861456199
C            4.73474590022962        6.86433068628478        2.01088339662436
S            4.16185773297276        3.13525887553334        3.04701112339390
F            2.62197113055018        2.55302365084903        3.02305661790736
F            4.12058812536971        3.08438301735218        4.70563420566419
F            4.82717843906952        1.65831030316200        3.00542779833360
F            4.08089775192374        3.04036787637759        1.32743345466689
F            5.00684108663477        5.54729921683967        1.87593421169753
F            5.87641632766840        7.51035344896951        2.03893900209948
F            4.13273287188720        6.99499546555809        3.18451611473824
F            4.60893405089734        7.58246924377085       -0.22656916888017
F            3.30918645693610        8.55934672653225        1.20405450790645
F            3.20542060209652        5.34545331385835       -0.20575804403710
F            1.91556196111787        7.04743972021108       -0.49093465071511
F            1.57616398696837        6.90349464957341        2.46270727366849
F            2.48562220483957        4.95583852075046        2.25659832528310
H            2.56970359260983       -0.73245371270069        0.14797877602376
H            3.44124280316655        0.07535289046171        1.46523550970659
H            3.72180128311877        0.57992967848480       -0.20499960068242
H            0.60903672484026        0.17456379909662        1.96218788260235
H           -0.84130821860203        2.48036270512401        1.72202052278387
H            2.63435456205750        2.78147737592376       -0.61388931429458
H            0.97158361318240        4.65650248586061       -0.83243473431109
H           -0.67890033712331        4.27808395139454       -0.32697403917001
H           -0.17835883597864        6.26059801949800        0.82821143941242
H           -0.07564950350125        4.98195915235509        2.04608300279431

          :  Hamiltonian                  GFN2-xTB          :
         :: total energy             -96.844852064689 Eh    ::
         :: gradient norm              0.000321903911 Eh/a0 ::
         :: HOMO-LUMO gap              4.849058289301 eV    ::
         :: SCC energy               -97.347840954644 Eh    ::
         :: -> dispersion             -0.039252790403 Eh    ::
         :: repulsion energy           0.502988889955 Eh    ::

    * Orbital Energies and Occupations

         #    Occupation            Energy/Eh            Energy/eV
      -------------------------------------------------------------
         1        2.0000           -1.0522424             -28.6330
       ...           ...                  ...                  ...
        66        2.0000           -0.6464940             -17.5920
        67        2.0000           -0.6410853             -17.4448
        68        2.0000           -0.6403652             -17.4252
        69        2.0000           -0.6395139             -17.4021
        70        2.0000           -0.6250823             -17.0094
        71        2.0000           -0.6223744             -16.9357
        72        2.0000           -0.6205756             -16.8867
        73        2.0000           -0.6189875             -16.8435
        74        2.0000           -0.6175350             -16.8040
        75        2.0000           -0.6168548             -16.7855
        76        2.0000           -0.5970078             -16.2454
        77        2.0000           -0.5818183             -15.8321
        78        2.0000           -0.5787995             -15.7499 (HOMO)
        79                         -0.4005999             -10.9009 (LUMO)
        80                         -0.3657777              -9.9533
        81                         -0.3385795              -9.2132
        82                         -0.2431263              -6.6158
        83                         -0.2223521              -6.0505
        84                         -0.2035803              -5.5397
        85                         -0.1894065              -5.1540
        86                         -0.1809018              -4.9226
        87                         -0.1689765              -4.5981
        88                         -0.1585786              -4.3151
        89                         -0.1488552              -4.0506
       ...                                ...                  ...
       119                          0.6410126              17.4428
      -------------------------------------------------------------
                  HL-Gap            0.1781996 Eh            4.8491 eV

     #   Z          covCN         q      C6AA      α(0)
     1   6 C        3.694    -0.099    22.581     6.799
     2   7 N        2.871     0.107    19.405     6.543
     3   6 C        3.076    -0.004    28.031     8.680
     4   6 C        3.067    -0.009    28.181     8.705
     5   7 N        2.872     0.061    20.174     6.671
     6   6 C        3.094     0.048    26.804     8.485
     7   6 C        3.740    -0.033    21.245     6.576
     8   6 C        3.802    -0.093    22.275     6.719
     9   6 C        3.516     0.322    16.903     6.069
    10   6 C        3.516     0.311    17.043     6.093
    11   6 C        3.515     0.318    16.960     6.081
    12   6 C        3.327     0.487    17.404     6.627
    13  16 S        3.168     1.926    83.824    15.409
    14   9 F        0.787    -0.453    14.207     4.452
    15   9 F        0.786    -0.500    14.848     4.552
    16   9 F        0.787    -0.422    13.798     4.388
    17   9 F        0.782    -0.565    15.788     4.693
    18   9 F        0.792    -0.214    11.376     3.984
    19   9 F        0.791    -0.128    10.515     3.830
    20   9 F        0.792    -0.161    10.839     3.889
    21   9 F        0.789    -0.150    10.733     3.870
    22   9 F        0.789    -0.153    10.757     3.874
    23   9 F        0.789    -0.182    11.048     3.926
    24   9 F        0.789    -0.167    10.903     3.900
    25   9 F        0.790    -0.184    11.068     3.930
    26   9 F        0.813    -0.242    11.678     4.037
    27   1 H        0.925     0.107     1.726     2.055
    28   1 H        0.924     0.126     1.562     1.955
    29   1 H        0.925     0.111     1.692     2.034
    30   1 H        0.926     0.120     1.614     1.987
    31   1 H        0.926     0.108     1.715     2.048
    32   1 H        0.926     0.138     1.472     1.897
    33   1 H        0.924     0.106     1.730     2.057
    34   1 H        0.924     0.115     1.651     2.010
    35   1 H        0.924     0.126     1.568     1.958
    36   1 H        0.924     0.121     1.609     1.984

Wiberg/Mayer (AO) data.
largest (>0.10) Wiberg bond orders for each atom

     #   Z sym  total        # sym  WBO       # sym  WBO       # sym  WBO
 ---------------------------------------------------------------------------
     1   6 C    3.925 --     2 N    0.990    29 H    0.973    27 H    0.963
                            28 H    0.953
     2   7 N    3.741 --     6 C    1.391     3 C    1.225     1 C    0.990
     3   6 C    3.949 --     4 C    1.605     2 N    1.225    30 H    0.959
     4   6 C    3.946 --     3 C    1.605     5 N    1.210    31 H    0.961
     5   7 N    3.699 --     6 C    1.341     4 C    1.210     7 C    0.986
     6   6 C    3.943 --     2 N    1.391     5 N    1.341    32 H    0.946
     7   6 C    3.952 --     8 C    0.999     5 N    0.986    33 H    0.962
                            34 H    0.955
     8   6 C    3.964 --     7 C    0.999     9 C    0.967    36 H    0.955
                            35 H    0.954
     9   6 C    3.843 --    25 F    0.975     8 C    0.967    10 C    0.910
                            26 F    0.910
    10   6 C    3.884 --    24 F    0.978    23 F    0.967     9 C    0.910
                            11 C    0.906
    11   6 C    3.902 --    22 F    0.987    21 F    0.987    10 C    0.906
                            12 C    0.889
    12   6 C    3.870 --    19 F    1.010    20 F    0.981    18 F    0.929
                            11 C    0.889
    13  16 S    3.348 --    16 F    0.918    14 F    0.869    15 F    0.817
                            17 F    0.708
    14   9 F    0.910 --    13 S    0.869
    15   9 F    0.854 --    13 S    0.817
    16   9 F    0.959 --    13 S    0.918
    17   9 F    0.750 --    13 S    0.708
    18   9 F    1.065 --    12 C    0.929
    19   9 F    1.151 --    12 C    1.010
    20   9 F    1.115 --    12 C    0.981
    21   9 F    1.110 --    11 C    0.987
    22   9 F    1.109 --    11 C    0.987
    23   9 F    1.082 --    10 C    0.967
    24   9 F    1.096 --    10 C    0.978
    25   9 F    1.086 --     9 C    0.975
    26   9 F    1.043 --     9 C    0.910
    27   1 H    0.988 --     1 C    0.963
    28   1 H    0.984 --     1 C    0.953
    29   1 H    0.987 --     1 C    0.973
    30   1 H    0.985 --     3 C    0.959
    31   1 H    0.988 --     4 C    0.961
    32   1 H    0.981 --     6 C    0.946
    33   1 H    0.988 --     7 C    0.962
    34   1 H    0.986 --     7 C    0.955
    35   1 H    0.984 --     8 C    0.954
    36   1 H    0.985 --     8 C    0.955
 ---------------------------------------------------------------------------

molecular dipole:
                 x           y           z       tot (Debye)
 q only:        2.515       5.587       0.895
   full:        2.614       5.615       0.974      15.936

           -------------------------------------------------
          | TOTAL ENERGY              -96.844852064689 Eh   |
          | GRADIENT NORM               0.000321903911 Eh/α |
          | HOMO-LUMO GAP               4.849058289301 eV   |
           -------------------------------------------------

 * finished run on 2024/12/20 at 06:48:13.210
