   * xtb version 6.7.1 (edcfbbe) compiled by 'conda@3ef47c1a292c' on 2024-11-25

   ID    Z sym.   atoms
    1    8 O      1, 9
    2    6 C      2-8, 10-19, 21-23
    3    7 N      20
    4    1 H      24-57

          program call               : xtb C0546.xyz --opt --namespace C0546 --charge +1
          :  Hamiltonian                  GFN2-xTB          :
 * total energy  :   -70.7961639 Eh     change       -0.2526335E-08 Eh
 * total energy  :   -70.8047636 Eh     change       -0.8599717E-02 Eh
 * total energy  :   -70.8066836 Eh     change       -0.1920050E-02 Eh
 * total energy  :   -70.8068359 Eh     change       -0.1522937E-03 Eh
 * total energy  :   -70.8070366 Eh     change       -0.2006489E-03 Eh
 * total energy  :   -70.8071669 Eh     change       -0.1302803E-03 Eh
 * total energy  :   -70.8073033 Eh     change       -0.1364699E-03 Eh
 * total energy  :   -70.8073456 Eh     change       -0.4224599E-04 Eh
 * total energy  :   -70.8073798 Eh     change       -0.3419078E-04 Eh
 * total energy  :   -70.8074095 Eh     change       -0.2971375E-04 Eh
 * total energy  :   -70.8352554 Eh     change       -0.6477411E-04 Eh
 * total energy  :   -70.8352875 Eh     change       -0.3210659E-04 Eh
 * total energy  :   -70.8353181 Eh     change       -0.3058409E-04 Eh
 * total energy  :   -70.8353310 Eh     change       -0.1287290E-04 Eh
 * total energy  :   -70.8353432 Eh     change       -0.1224643E-04 Eh
 * total energy  :   -70.8353530 Eh     change       -0.9753735E-05 Eh
 * total energy  :   -70.8353615 Eh     change       -0.8484961E-05 Eh
 * total energy  :   -70.8353683 Eh     change       -0.6847343E-05 Eh
 * total energy  :   -70.8353718 Eh     change       -0.3498196E-05 Eh
   *** GEOMETRY OPTIMIZATION CONVERGED AFTER 112 ITERATIONS ***

 final structure:
================
57
 xtb: 6.7.1 (edcfbbe)
O           -0.82598228305623       -2.30262523071846       -2.52831259780146
C           -0.24284248962646       -1.85621799496292       -1.54994164100568
C            1.08782150478300       -2.21819492699265       -1.13552316695264
C            1.53894655458758       -1.91300306974392        0.15789304659426
C            2.73797291174338       -2.39949758260364        0.60671972571886
C            3.54607448494747       -3.20734388827289       -0.21580606535884
C            3.14501657257507       -3.42423707431639       -1.54174914123925
C            1.93616817462391       -2.94240860852926       -1.98274106937465
O            4.66157961290303       -3.66750382061830        0.35408302244612
C            5.37194260769931       -4.78971786284893       -0.15111781806470
C            5.03457175648544       -6.04112611343438        0.66666787016580
C            3.58694856237364       -6.52008014610745        0.53279300486363
C            3.25397216892745       -7.08465689973036       -0.84845966070692
C            1.97442572526936       -7.92537307753424       -0.86564326084042
C            0.70167443309632       -7.20098599705322       -0.41596710086803
C            0.40155096304592       -5.89849330905069       -1.15975625084001
C            0.09274617707801       -6.07651777401937       -2.65001422399354
C           -1.38152833769369       -6.40000898226480       -2.91776267917513
C           -2.29234400521259       -5.17044094426485       -2.79817521618867
N           -2.75083225243694       -4.55774790674165       -4.08255971622767
C           -3.63742288249445       -5.47336666196059       -4.81867698476409
C           -3.49952189353395       -3.32888505638385       -3.75241375083975
C           -1.60147918738268       -4.17886010166452       -4.92184444086036
H           -0.76616197197437       -1.15694110292696       -0.87529926381165
H            0.91653676220273       -1.32089898718080        0.81192842275449
H            3.08619060557593       -2.19605752186462        1.60668826519395
H            3.77606979550124       -3.96204425397798       -2.23169371684541
H            1.62832720425890       -3.11152608449782       -3.00432171662296
H            5.18187256900041       -4.95675754013650       -1.21193422055530
H            6.43061200579753       -4.54827042408870       -0.02116876182186
H            5.71489118975514       -6.83592035907273        0.35705012843231
H            5.23362944419909       -5.81508524949781        1.71554571684617
H            3.42985601716639       -7.30557200017407        1.27468573015821
H            2.91006399806573       -5.69859573726946        0.77802107769935
H            3.16653382180704       -6.27799848347722       -1.57761420352615
H            4.07581971474960       -7.72866815525763       -1.17063407500987
H            1.83725334405311       -8.31826841006173       -1.87558813132488
H            2.11414445501654       -8.78573798682940       -0.20805472598415
H           -0.13820285421906       -7.89058189461272       -0.52877682617098
H            0.78605650017691       -6.96846779237430        0.64644829710695
H           -0.44228140006139       -5.40632932704477       -0.66998016439433
H            1.25616394347656       -5.23312253817993       -1.05302843273603
H            0.36814800548769       -5.16439333787748       -3.17891399633172
H            0.70940524845631       -6.88200215893092       -3.04720875355157
H           -1.47932486017884       -6.86777165965431       -3.89718751063646
H           -1.70601790990667       -7.14294848372717       -2.18879435106742
H           -3.19147706942289       -5.42305967813434       -2.23381893329925
H           -1.75622757950434       -4.38781697467435       -2.25777559155771
H           -4.49063113826957       -5.74713453808192       -4.20019361547897
H           -4.00235789278629       -4.98971728108553       -5.72320789307538
H           -3.10953355150122       -6.38049850631633       -5.10372019506078
H           -2.83516616826078       -2.62946057193581       -3.24347389671321
H           -3.87100570886114       -2.86249759970241       -4.66258873880142
H           -4.34383127126360       -3.56042427781659       -3.10616797413729
H           -0.98287541125529       -3.47223491250469       -4.36909129357909
H           -1.01411628053382       -5.05374872635649       -5.18701144026076
H           -1.95171243603815       -3.70155441482521       -5.83506110070337

          :  Hamiltonian                  GFN2-xTB          :
         :: total energy             -70.835371813842 Eh    ::
         :: gradient norm              0.000405956807 Eh/a0 ::
         :: HOMO-LUMO gap              2.583668826751 eV    ::
         :: SCC energy               -71.843006363029 Eh    ::
         :: -> dispersion             -0.055806370091 Eh    ::
         :: repulsion energy           1.007634549187 Eh    ::

    * Orbital Energies and Occupations

         #    Occupation            Energy/Eh            Energy/eV
      -------------------------------------------------------------
         1        2.0000           -0.8422864             -22.9198
       ...           ...                  ...                  ...
        53        2.0000           -0.5489312             -14.9372
        54        2.0000           -0.5446198             -14.8199
        55        2.0000           -0.5436401             -14.7932
        56        2.0000           -0.5294251             -14.4064
        57        2.0000           -0.5285875             -14.3836
        58        2.0000           -0.5229541             -14.2303
        59        2.0000           -0.5169322             -14.0664
        60        2.0000           -0.5119995             -13.9322
        61        2.0000           -0.5067555             -13.7895
        62        2.0000           -0.5046750             -13.7329
        63        2.0000           -0.5022943             -13.6681
        64        2.0000           -0.4986580             -13.5692
        65        2.0000           -0.4789533             -13.0330 (HOMO)
        66                         -0.3840052             -10.4493 (LUMO)
        67                         -0.3260161              -8.8713
        68                         -0.2885665              -7.8523
        69                         -0.2017116              -5.4889
        70                         -0.1874243              -5.1001
        71                         -0.1362017              -3.7062
        72                         -0.1224027              -3.3307
        73                         -0.1154735              -3.1422
        74                         -0.0715532              -1.9471
        75                         -0.0503335              -1.3696
        76                         -0.0441016              -1.2001
       ...                                ...                  ...
       126                          0.5799963              15.7825
      -------------------------------------------------------------
                  HL-Gap            0.0949481 Eh            2.5837 eV

     #   Z          covCN         q      C6AA      α(0)
     1   8 O        0.856    -0.424    22.170     6.313
     2   6 C        2.770     0.205    23.650     7.965
     3   6 C        2.969    -0.027    28.681     8.785
     4   6 C        2.921    -0.022    28.547     8.762
     5   6 C        2.918    -0.049    29.227     8.865
     6   6 C        2.856     0.170    24.340     8.086
     7   6 C        2.913    -0.061    29.524     8.910
     8   6 C        2.923    -0.014    28.373     8.735
     9   8 O        1.706    -0.234    17.884     5.710
    10   6 C        3.686     0.069    19.609     6.339
    11   6 C        3.800    -0.071    21.855     6.656
    12   6 C        3.801    -0.059    21.631     6.622
    13   6 C        3.800    -0.062    21.687     6.630
    14   6 C        3.800    -0.062    21.683     6.630
    15   6 C        3.800    -0.062    21.701     6.633
    16   6 C        3.801    -0.064    21.735     6.638
    17   6 C        3.801    -0.071    21.862     6.657
    18   6 C        3.799    -0.071    21.859     6.657
    19   6 C        3.763    -0.046    21.447     6.601
    20   7 N        3.622     0.148    18.736     6.429
    21   6 C        3.720    -0.093    22.399     6.760
    22   6 C        3.733    -0.107    22.639     6.791
    23   6 C        3.723    -0.104    22.600     6.789
    24   1 H        0.923     0.018     2.767     2.602
    25   1 H        0.926     0.056     2.243     2.342
    26   1 H        0.926     0.070     2.081     2.256
    27   1 H        0.926     0.049     2.334     2.389
    28   1 H        0.926     0.052     2.294     2.368
    29   1 H        0.924     0.043     2.410     2.428
    30   1 H        0.924     0.063     2.161     2.299
    31   1 H        0.924     0.051     2.306     2.375
    32   1 H        0.924     0.058     2.222     2.331
    33   1 H        0.924     0.045     2.380     2.412
    34   1 H        0.924     0.033     2.549     2.497
    35   1 H        0.924     0.028     2.620     2.531
    36   1 H        0.924     0.038     2.477     2.461
    37   1 H        0.924     0.031     2.570     2.507
    38   1 H        0.924     0.041     2.439     2.442
    39   1 H        0.924     0.032     2.558     2.501
    40   1 H        0.924     0.040     2.446     2.446
    41   1 H        0.924     0.025     2.662     2.551
    42   1 H        0.925     0.042     2.427     2.436
    43   1 H        0.925     0.040     2.443     2.444
    44   1 H        0.925     0.055     2.260     2.351
    45   1 H        0.925     0.046     2.365     2.405
    46   1 H        0.924     0.069     2.100     2.266
    47   1 H        0.924     0.074     2.042     2.235
    48   1 H        0.924     0.109     1.705     2.042
    49   1 H        0.925     0.093     1.850     2.127
    50   1 H        0.925     0.094     1.839     2.121
    51   1 H        0.925     0.094     1.837     2.119
    52   1 H        0.924     0.130     1.536     1.938
    53   1 H        0.925     0.093     1.853     2.129
    54   1 H        0.925     0.088     1.897     2.154
    55   1 H        0.925     0.128     1.548     1.945
    56   1 H        0.925     0.094     1.838     2.120
    57   1 H        0.925     0.090     1.884     2.146

Wiberg/Mayer (AO) data.
largest (>0.10) Wiberg bond orders for each atom

     #   Z sym  total        # sym  WBO       # sym  WBO       # sym  WBO
 ---------------------------------------------------------------------------
     1   8 O    1.997 --     2 C    1.737
     2   6 C    3.912 --     1 O    1.737     3 C    1.140    24 H    0.937
     3   6 C    3.984 --     8 C    1.329     4 C    1.311     2 C    1.140
     4   6 C    3.986 --     5 C    1.530     3 C    1.311    25 H    0.966
     5   6 C    3.986 --     4 C    1.530     6 C    1.297    26 H    0.965
     6   6 C    3.938 --     7 C    1.317     5 C    1.297     9 O    1.141
     7   6 C    3.989 --     8 C    1.501     6 C    1.317    27 H    0.958
     8   6 C    3.990 --     7 C    1.501     3 C    1.329    28 H    0.965
     9   8 O    2.294 --     6 C    1.141    10 C    0.948
    10   6 C    3.928 --    11 C    0.992    30 H    0.968    29 H    0.964
                             9 O    0.948
    11   6 C    3.986 --    12 C    1.008    10 C    0.992    32 H    0.975
                            31 H    0.971
    12   6 C    3.996 --    13 C    1.008    11 C    1.008    34 H    0.975
                            33 H    0.974
    13   6 C    3.997 --    12 C    1.008    14 C    1.007    36 H    0.976
                            35 H    0.973
    14   6 C    3.996 --    15 C    1.007    13 C    1.007    38 H    0.976
                            37 H    0.974
    15   6 C    3.996 --    16 C    1.008    14 C    1.007    40 H    0.976
                            39 H    0.975
    16   6 C    3.995 --    15 C    1.008    17 C    1.006    41 H    0.975
                            42 H    0.968
    17   6 C    3.993 --    16 C    1.006    18 C    1.006    43 H    0.973
                            44 H    0.971
    18   6 C    3.987 --    17 C    1.006    19 C    1.004    46 H    0.969
                            45 H    0.966
    19   6 C    3.925 --    18 C    1.004    47 H    0.971    48 H    0.955
                            20 N    0.925
    20   7 N    3.817 --    21 C    0.964    23 C    0.955    22 C    0.954
                            19 C    0.925
    21   6 C    3.936 --    49 H    0.976    50 H    0.975    51 H    0.971
                            20 N    0.964
    22   6 C    3.919 --    54 H    0.977    53 H    0.976    52 H    0.958
                            20 N    0.954
    23   6 C    3.920 --    57 H    0.976    56 H    0.974    55 H    0.959
                            20 N    0.955
    24   1 H    0.999 --     2 C    0.937
    25   1 H    0.996 --     4 C    0.966
    26   1 H    0.995 --     5 C    0.965
    27   1 H    0.997 --     7 C    0.958
    28   1 H    0.997 --     8 C    0.965
    29   1 H    0.998 --    10 C    0.964
    30   1 H    0.994 --    10 C    0.968
    31   1 H    0.996 --    11 C    0.971
    32   1 H    0.996 --    11 C    0.975
    33   1 H    0.997 --    12 C    0.974
    34   1 H    0.999 --    12 C    0.975
    35   1 H    0.999 --    13 C    0.973
    36   1 H    0.999 --    13 C    0.976
    37   1 H    0.999 --    14 C    0.974
    38   1 H    0.998 --    14 C    0.976
    39   1 H    0.999 --    15 C    0.975
    40   1 H    0.998 --    15 C    0.976
    41   1 H    0.999 --    16 C    0.975
    42   1 H    0.998 --    16 C    0.968
    43   1 H    0.998 --    17 C    0.973
    44   1 H    0.997 --    17 C    0.971
    45   1 H    0.998 --    18 C    0.966
    46   1 H    0.995 --    18 C    0.969
    47   1 H    0.994 --    19 C    0.971
    48   1 H    0.988 --    19 C    0.955
    49   1 H    0.991 --    21 C    0.976
    50   1 H    0.991 --    21 C    0.975
    51   1 H    0.991 --    21 C    0.971
    52   1 H    0.983 --    22 C    0.958
    53   1 H    0.991 --    22 C    0.976
    54   1 H    0.992 --    22 C    0.977
    55   1 H    0.984 --    23 C    0.959
    56   1 H    0.991 --    23 C    0.974
    57   1 H    0.992 --    23 C    0.976
 ---------------------------------------------------------------------------

molecular dipole:
                 x           y           z       tot (Debye)
 q only:       -2.314      -9.384      -5.997
   full:       -2.296      -9.258      -5.988      28.627

           -------------------------------------------------
          | TOTAL ENERGY              -70.835371813842 Eh   |
          | GRADIENT NORM               0.000405956807 Eh/α |
          | HOMO-LUMO GAP               2.583668826751 eV   |
           -------------------------------------------------

 * finished run on 2024/12/20 at 06:48:09.213
