   * xtb version 6.7.1 (edcfbbe) compiled by 'conda@3ef47c1a292c' on 2024-11-25

   ID    Z sym.   atoms
    1    6 C      1-3, 5, 6, 8-10
    2    7 N      4, 7
    3    1 H      11-25

          program call               : xtb C0544.xyz --opt --namespace C0544 --charge +1
          :  Hamiltonian                  GFN2-xTB          :
 * total energy  :   -30.2691797 Eh     change       -0.3688783E-10 Eh
 * total energy  :   -30.2728365 Eh     change       -0.3656844E-02 Eh
 * total energy  :   -30.2735453 Eh     change       -0.7087922E-03 Eh
 * total energy  :   -30.2736679 Eh     change       -0.1226353E-03 Eh
 * total energy  :   -30.2737816 Eh     change       -0.1136693E-03 Eh
 * total energy  :   -30.2738342 Eh     change       -0.5259325E-04 Eh
 * total energy  :   -30.2738967 Eh     change       -0.6251843E-04 Eh
 * total energy  :   -30.2739906 Eh     change       -0.9385576E-04 Eh
 * total energy  :   -30.2740921 Eh     change       -0.1014766E-03 Eh
 * total energy  :   -30.2741749 Eh     change       -0.8285803E-04 Eh
 * total energy  :   -30.2744135 Eh     change       -0.8533038E-04 Eh
 * total energy  :   -30.2744743 Eh     change       -0.6079606E-04 Eh
 * total energy  :   -30.2744954 Eh     change       -0.2108642E-04 Eh
 * total energy  :   -30.2745195 Eh     change       -0.2410487E-04 Eh
 * total energy  :   -30.2745299 Eh     change       -0.1040912E-04 Eh
 * total energy  :   -30.2745395 Eh     change       -0.9598658E-05 Eh
 * total energy  :   -30.2745448 Eh     change       -0.5287444E-05 Eh
 * total energy  :   -30.2745509 Eh     change       -0.6064343E-05 Eh
 * total energy  :   -30.2745549 Eh     change       -0.3990260E-05 Eh
   *** GEOMETRY OPTIMIZATION CONVERGED AFTER 21 ITERATIONS ***

 final structure:
================
25
 xtb: 6.7.1 (edcfbbe)
C            2.36909059536056        0.61825569159093        0.64828246941646
C            0.89175417828135        0.50863133132530        1.00309002000867
C            0.20928103852926        1.87867522253953        1.09070999950698
N            0.20829588352373        2.55552747955878       -0.18777475977491
C            1.12654433443947        3.49268064236387       -0.56604363842069
C            0.84370460224636        3.84837677730852       -1.84548165931402
N           -0.24176408103396        3.11948135171519       -2.23496295499809
C           -0.61817680971780        2.33430795612690       -1.21660376680324
C           -1.76030187336108        1.40114572030431       -1.26934650810581
C           -0.88224587759174        3.18287146011611       -3.52109537092816
H            2.51208193481138        1.05668335222316       -0.33751992005634
H            2.82066108339567       -0.36899253283386        0.64339121341997
H            2.89718942962603        1.22463019068304        1.37978403994915
H            0.37937991905378       -0.11218019338948        0.26596254134964
H            0.78742641041952        0.02646159511738        1.97482172218227
H           -0.82003487757697        1.76878554492075        1.43814093261815
H            0.74609900767498        2.51176816880631        1.79924427155695
H            1.89804389851222        3.83595466139033        0.09137141052168
H            1.32758098348857        4.55120947260870       -2.49126873895178
H           -2.64721574401049        1.90884602418220       -1.64760170041791
H           -1.54460706545858        0.57161271518835       -1.94453933824796
H           -1.98319395168703        0.99300043635798       -0.28882162179359
H           -0.89617528336966        2.19799797266854       -3.98908333154531
H           -1.90961764854216        3.53613378266343       -3.42031811704575
H           -0.33587008701211        3.87137517646332       -4.16115719412554

          :  Hamiltonian                  GFN2-xTB          :
         :: total energy             -30.274554875716 Eh    ::
         :: gradient norm              0.000512722630 Eh/a0 ::
         :: HOMO-LUMO gap              4.602036912852 eV    ::
         :: SCC energy               -30.740392497591 Eh    ::
         :: -> dispersion             -0.018236664109 Eh    ::
         :: repulsion energy           0.465837621875 Eh    ::

    * Orbital Energies and Occupations

         #    Occupation            Energy/Eh            Energy/eV
      -------------------------------------------------------------
         1        2.0000           -0.8887355             -24.1837
       ...           ...                  ...                  ...
        16        2.0000           -0.6696721             -18.2227
        17        2.0000           -0.6529082             -17.7665
        18        2.0000           -0.6515720             -17.7302
        19        2.0000           -0.6438453             -17.5199
        20        2.0000           -0.6371819             -17.3386
        21        2.0000           -0.6350420             -17.2804
        22        2.0000           -0.6310407             -17.1715
        23        2.0000           -0.6171711             -16.7941
        24        2.0000           -0.6024169             -16.3926
        25        2.0000           -0.5843971             -15.9023
        26        2.0000           -0.5754662             -15.6592
        27        2.0000           -0.5672416             -15.4354
        28        2.0000           -0.5645276             -15.3616 (HOMO)
        29                         -0.3954059             -10.7595 (LUMO)
        30                         -0.3620377              -9.8515
        31                         -0.1832440              -4.9863
        32                         -0.1283174              -3.4917
        33                         -0.0659921              -1.7957
        34                         -0.0610523              -1.6613
        35                         -0.0445498              -1.2123
        36                         -0.0365707              -0.9951
        37                         -0.0199626              -0.5432
        38                         -0.0095080              -0.2587
        39                          0.0086734               0.2360
       ...                                ...                  ...
        55                          0.4759528              12.9513
      -------------------------------------------------------------
                  HL-Gap            0.1691217 Eh            4.6020 eV

     #   Z          covCN         q      C6AA      α(0)
     1   6 C        3.752    -0.116    22.783     6.807
     2   6 C        3.801    -0.066    21.762     6.642
     3   6 C        3.742    -0.024    21.083     6.551
     4   7 N        2.869     0.045    20.461     6.718
     5   6 C        3.056    -0.009    28.183     8.706
     6   6 C        3.046    -0.011    28.256     8.718
     7   7 N        2.872     0.047    20.419     6.711
     8   6 C        3.105     0.105    25.556     8.283
     9   6 C        3.754    -0.136    23.174     6.864
    10   6 C        3.692    -0.080    22.227     6.746
    11   1 H        0.925     0.036     2.499     2.472
    12   1 H        0.925     0.065     2.139     2.287
    13   1 H        0.925     0.053     2.284     2.364
    14   1 H        0.924     0.052     2.295     2.369
    15   1 H        0.925     0.073     2.055     2.242
    16   1 H        0.924     0.078     2.002     2.213
    17   1 H        0.924     0.090     1.882     2.145
    18   1 H        0.927     0.105     1.744     2.065
    19   1 H        0.927     0.102     1.762     2.076
    20   1 H        0.925     0.099     1.797     2.096
    21   1 H        0.924     0.102     1.769     2.080
    22   1 H        0.925     0.095     1.829     2.115
    23   1 H        0.924     0.097     1.810     2.104
    24   1 H        0.924     0.097     1.817     2.108
    25   1 H        0.925     0.103     1.757     2.073

Wiberg/Mayer (AO) data.
largest (>0.10) Wiberg bond orders for each atom

     #   Z sym  total        # sym  WBO       # sym  WBO       # sym  WBO
 ---------------------------------------------------------------------------
     1   6 C    3.991 --     2 C    1.022    11 H    0.986    13 H    0.986
                            12 H    0.982
     2   6 C    3.986 --     1 C    1.022     3 C    0.985    14 H    0.975
                            15 H    0.969
     3   6 C    3.940 --     2 C    0.985     4 N    0.969    17 H    0.965
                            16 H    0.961
     4   7 N    3.696 --     8 C    1.329     5 C    1.211     3 C    0.969
     5   6 C    3.950 --     6 C    1.606     4 N    1.211    18 H    0.961
     6   6 C    3.948 --     5 C    1.606     7 N    1.211    19 H    0.962
     7   7 N    3.695 --     8 C    1.321     6 C    1.211    10 C    0.993
     8   6 C    3.952 --     4 N    1.329     7 N    1.321     9 C    1.048
     9   6 C    3.978 --     8 C    1.048    22 H    0.969    20 H    0.955
                            21 H    0.946
    10   6 C    3.938 --     7 N    0.993    25 H    0.975    23 H    0.965
                            24 H    0.963
    11   1 H    0.999 --     1 C    0.986
    12   1 H    0.996 --     1 C    0.982
    13   1 H    0.997 --     1 C    0.986
    14   1 H    0.997 --     2 C    0.975
    15   1 H    0.994 --     2 C    0.969
    16   1 H    0.994 --     3 C    0.961
    17   1 H    0.992 --     3 C    0.965
    18   1 H    0.989 --     5 C    0.961
    19   1 H    0.989 --     6 C    0.962
    20   1 H    0.990 --     9 C    0.955
    21   1 H    0.990 --     9 C    0.946
    22   1 H    0.991 --     9 C    0.969
    23   1 H    0.990 --    10 C    0.965
    24   1 H    0.990 --    10 C    0.963
    25   1 H    0.989 --    10 C    0.975
 ---------------------------------------------------------------------------

molecular dipole:
                 x           y           z       tot (Debye)
 q only:       -0.351       4.600      -2.219
   full:       -0.383       4.677      -2.243      13.220

           -------------------------------------------------
          | TOTAL ENERGY              -30.274554875716 Eh   |
          | GRADIENT NORM               0.000512722630 Eh/α |
          | HOMO-LUMO GAP               4.602036912852 eV   |
           -------------------------------------------------

 * finished run on 2024/12/20 at 06:48:01.989
