   * xtb version 6.7.1 (edcfbbe) compiled by 'conda@3ef47c1a292c' on 2024-11-25

   ID    Z sym.   atoms
    1    6 C      1, 2, 4, 7, 8
    2    7 N      3, 5, 6
    3    1 H      9-18

          program call               : xtb C0542.xyz --opt --namespace C0542 --charge +1
          :  Hamiltonian                  GFN2-xTB          :
 * total energy  :   -24.1733929 Eh     change       -0.6529888E-11 Eh
 * total energy  :   -24.1768045 Eh     change       -0.3411643E-02 Eh
 * total energy  :   -24.1775164 Eh     change       -0.7118678E-03 Eh
 * total energy  :   -24.1776028 Eh     change       -0.8642464E-04 Eh
 * total energy  :   -24.1776479 Eh     change       -0.4505162E-04 Eh
 * total energy  :   -24.1776565 Eh     change       -0.8635898E-05 Eh
 * total energy  :   -24.1776685 Eh     change       -0.1203473E-04 Eh
 * total energy  :   -24.1776771 Eh     change       -0.8558469E-05 Eh
 * total energy  :   -24.1776911 Eh     change       -0.1394796E-04 Eh
 * total energy  :   -24.1777133 Eh     change       -0.2221185E-04 Eh
 * total energy  :   -24.1777391 Eh     change       -0.2583540E-04 Eh
 * total energy  :   -24.1777570 Eh     change       -0.1787386E-04 Eh
 * total energy  :   -24.1777681 Eh     change       -0.1112459E-04 Eh
 * total energy  :   -24.1777754 Eh     change       -0.7267780E-05 Eh
 * total energy  :   -24.1777785 Eh     change       -0.3090900E-05 Eh
   *** GEOMETRY OPTIMIZATION CONVERGED AFTER 15 ITERATIONS ***

 final structure:
================
18
 xtb: 6.7.1 (edcfbbe)
C            0.72582642783357        0.03040806172086       -0.10180215059616
C            0.69079393401341       -0.66205434533347        1.25672375075156
N            0.26651606825404        1.39852932920012        0.01387865835397
C            1.01460621993208        2.48842806768551        0.32967060351098
N            0.26947007801332        3.54725034384361        0.40957375223461
N           -0.96985306704907        3.15079396646790        0.15060594452741
C           -0.98923034184389        1.84772998107971       -0.08969946623506
C           -2.05900605266699        4.08351988032575        0.17244205806984
H            0.08313687441648       -0.49140591107104       -0.81325228923685
H            1.74551451973309        0.04927136209104       -0.49099607531961
H            1.32335253565981       -0.14505869068807        1.97395227093689
H           -0.32283572223364       -0.70538112102215        1.64747322669136
H            1.05818773184153       -1.67786970287791        1.14839092003788
H            2.07477045347423        2.48217767686652        0.48417766716282
H           -1.85261743032914        1.25957880075447       -0.33275671876360
H           -2.75509777201948        3.87794858636184       -0.63862055658337
H           -2.59007983389029        4.02464166470223        1.12414419060200
H           -1.64574462313908        5.08504204989310        0.06579421385532

          :  Hamiltonian                  GFN2-xTB          :
         :: total energy             -24.177778459131 Eh    ::
         :: gradient norm              0.000337257120 Eh/a0 ::
         :: HOMO-LUMO gap              4.441666676205 eV    ::
         :: SCC energy               -24.515862878720 Eh    ::
         :: -> dispersion             -0.010922473255 Eh    ::
         :: repulsion energy           0.338084419588 Eh    ::

    * Orbital Energies and Occupations

         #    Occupation            Energy/Eh            Energy/eV
      -------------------------------------------------------------
         1        2.0000           -0.9347906             -25.4369
       ...           ...                  ...                  ...
        10        2.0000           -0.7346769             -19.9916
        11        2.0000           -0.7199305             -19.5903
        12        2.0000           -0.7137940             -19.4233
        13        2.0000           -0.6981401             -18.9974
        14        2.0000           -0.6912597             -18.8101
        15        2.0000           -0.6740863             -18.3428
        16        2.0000           -0.6585629             -17.9204
        17        2.0000           -0.6502142             -17.6932
        18        2.0000           -0.6302501             -17.1500
        19        2.0000           -0.6191186             -16.8471
        20        2.0000           -0.6173721             -16.7995
        21        2.0000           -0.6089297             -16.5698
        22        2.0000           -0.6003416             -16.3361 (HOMO)
        23                         -0.4371133             -11.8945 (LUMO)
        24                         -0.4110285             -11.1847
        25                         -0.2092835              -5.6949
        26                         -0.1572465              -4.2789
        27                         -0.0963652              -2.6222
        28                         -0.0669451              -1.8217
        29                         -0.0482691              -1.3135
        30                         -0.0231382              -0.6296
        31                         -0.0128493              -0.3496
        32                         -0.0070168              -0.1909
        33                          0.0052157               0.1419
       ...                                ...                  ...
        42                          0.3501462               9.5280
      -------------------------------------------------------------
                  HL-Gap            0.1632282 Eh            4.4417 eV

     #   Z          covCN         q      C6AA      α(0)
     1   6 C        3.738    -0.021    21.031     6.544
     2   6 C        3.753    -0.126    22.969     6.834
     3   7 N        2.855     0.054    20.293     6.691
     4   6 C        3.150     0.087    25.791     8.307
     5   7 N        2.046    -0.140    24.723     7.375
     6   7 N        3.057     0.165    18.472     6.383
     7   6 C        3.070     0.049    26.832     8.493
     8   6 C        3.692    -0.100    22.596     6.802
     9   1 H        0.924     0.092     1.864     2.135
    10   1 H        0.924     0.097     1.815     2.107
    11   1 H        0.925     0.070     2.086     2.259
    12   1 H        0.925     0.066     2.126     2.280
    13   1 H        0.925     0.091     1.865     2.136
    14   1 H        0.926     0.125     1.574     1.962
    15   1 H        0.926     0.126     1.565     1.956
    16   1 H        0.925     0.111     1.687     2.031
    17   1 H        0.924     0.119     1.620     1.991
    18   1 H        0.925     0.134     1.507     1.919

Wiberg/Mayer (AO) data.
largest (>0.10) Wiberg bond orders for each atom

     #   Z sym  total        # sym  WBO       # sym  WBO       # sym  WBO
 ---------------------------------------------------------------------------
     1   6 C    3.930 --     2 C    0.998     9 H    0.965    10 H    0.963
                             3 N    0.960
     2   6 C    3.978 --     1 C    0.998    12 H    0.984    11 H    0.983
                            13 H    0.974
     3   7 N    3.716 --     7 C    1.339     4 C    1.248     1 C    0.960
     4   6 C    3.948 --     5 N    1.587     3 N    1.248    14 H    0.952
     5   7 N    3.026 --     4 C    1.587     6 N    1.214
     6   7 N    3.756 --     7 C    1.404     5 N    1.214     8 C    0.987
     7   6 C    3.949 --     6 N    1.404     3 N    1.339    15 H    0.951
     8   6 C    3.918 --     6 N    0.987    16 H    0.965    18 H    0.965
                            17 H    0.951
     9   1 H    0.992 --     1 C    0.965
    10   1 H    0.990 --     1 C    0.963
    11   1 H    0.995 --     2 C    0.983
    12   1 H    0.996 --     2 C    0.984
    13   1 H    0.991 --     2 C    0.974
    14   1 H    0.984 --     4 C    0.952
    15   1 H    0.984 --     7 C    0.951
    16   1 H    0.987 --     8 C    0.965
    17   1 H    0.985 --     8 C    0.951
    18   1 H    0.982 --     8 C    0.965
 ---------------------------------------------------------------------------

molecular dipole:
                 x           y           z       tot (Debye)
 q only:       -0.954       3.573       0.266
   full:       -1.022       3.202       0.136       8.550

           -------------------------------------------------
          | TOTAL ENERGY              -24.177778459131 Eh   |
          | GRADIENT NORM               0.000337257120 Eh/α |
          | HOMO-LUMO GAP               4.441666676205 eV   |
           -------------------------------------------------

 * finished run on 2024/12/20 at 06:47:58.648
