   * xtb version 6.7.1 (edcfbbe) compiled by 'conda@3ef47c1a292c' on 2024-11-25

   ID    Z sym.   atoms
    1    6 C      1, 2, 4-7
    2    7 N      3
    3    1 H      8-23

          program call               : xtb C0556.xyz --opt --namespace C0556 --charge +1
          :  Hamiltonian                  GFN2-xTB          :
 * total energy  :   -23.5208676 Eh     change       -0.1285798E-09 Eh
 * total energy  :   -23.5226498 Eh     change       -0.1782128E-02 Eh
 * total energy  :   -23.5230036 Eh     change       -0.3537766E-03 Eh
 * total energy  :   -23.5230270 Eh     change       -0.2343210E-04 Eh
 * total energy  :   -23.5230382 Eh     change       -0.1121362E-04 Eh
 * total energy  :   -23.5230473 Eh     change       -0.9119191E-05 Eh
 * total energy  :   -23.5230687 Eh     change       -0.2138688E-04 Eh
 * total energy  :   -23.5230884 Eh     change       -0.1968438E-04 Eh
 * total energy  :   -23.5231003 Eh     change       -0.1188236E-04 Eh
 * total energy  :   -23.5231078 Eh     change       -0.7494748E-05 Eh
 * total energy  :   -23.5231128 Eh     change       -0.5033006E-05 Eh
 * total energy  :   -23.5231156 Eh     change       -0.2763242E-05 Eh
   *** GEOMETRY OPTIMIZATION CONVERGED AFTER 12 ITERATIONS ***

 final structure:
================
23
 xtb: 6.7.1 (edcfbbe)
C            0.97578441358346        0.09109688044932        0.14649456842600
C            0.27917208033110        0.34491299306063       -1.17919393827686
N            0.73953768173427       -0.57560838690967       -2.25656954150407
C            0.39529271493541       -2.00870669797273       -2.00592738908306
C           -1.09694125234276       -2.28820231168939       -1.96590367676601
C            0.29191043538656       -0.10959861041226       -3.60238863952388
C            1.19754903928578        0.98144048907863       -4.14749828043374
H            0.67595963601569       -0.84971064568786        0.59878773988810
H            0.70814370493402        0.88375874983918        0.83971143792831
H            2.05794200271887        0.10332824056129        0.03353046552470
H           -0.80064624742098        0.23815736902831       -1.07550769763078
H            0.49157981522471        1.36375834055862       -1.50652178388545
H            1.76562196987016       -0.52533227938893       -2.25792296401747
H            0.85752631075547       -2.59629947123354       -2.80226804562299
H            0.85281751421471       -2.30534179442921       -1.06131669655693
H           -1.59347234017875       -1.98142863475139       -2.88164938654499
H           -1.23841846092371       -3.36021285156668       -1.85809566697530
H           -1.58154925546960       -1.81153728629996       -1.11915071784473
H            0.30972670202891       -0.96263405153747       -4.28288793414375
H           -0.73518840085927        0.24786922141623       -3.52087898165039
H            2.22099359666948        0.62731443454286       -4.24962310822101
H            0.84939640706894        1.27115949651383       -5.13472080183403
H            1.19327193243764        1.87271680683024       -3.52639896125171

          :  Hamiltonian                  GFN2-xTB          :
         :: total energy             -23.523115561739 Eh    ::
         :: gradient norm              0.000393757976 Eh/a0 ::
         :: HOMO-LUMO gap              9.730696383125 eV    ::
         :: SCC energy               -23.864010431183 Eh    ::
         :: -> dispersion             -0.013087685513 Eh    ::
         :: repulsion energy           0.340894869445 Eh    ::

    * Orbital Energies and Occupations

         #    Occupation            Energy/Eh            Energy/eV
      -------------------------------------------------------------
         1        2.0000           -0.8698201             -23.6690
       ...           ...                  ...                  ...
        10        2.0000           -0.7097238             -19.3126
        11        2.0000           -0.6840225             -18.6132
        12        2.0000           -0.6765582             -18.4101
        13        2.0000           -0.6649634             -18.0946
        14        2.0000           -0.6470328             -17.6067
        15        2.0000           -0.6397661             -17.4089
        16        2.0000           -0.6343092             -17.2604
        17        2.0000           -0.6275085             -17.0754
        18        2.0000           -0.6201394             -16.8749
        19        2.0000           -0.6146556             -16.7256
        20        2.0000           -0.6131001             -16.6833
        21        2.0000           -0.6079427             -16.5430
        22        2.0000           -0.5997678             -16.3205 (HOMO)
        23                         -0.2421713              -6.5898 (LUMO)
        24                         -0.1602617              -4.3609
        25                         -0.1513044              -4.1172
        26                         -0.1292323              -3.5166
        27                         -0.0578786              -1.5750
        28                         -0.0553856              -1.5071
        29                         -0.0495880              -1.3494
        30                         -0.0352538              -0.9593
        31                         -0.0219592              -0.5975
        32                         -0.0023275              -0.0633
        33                          0.0121521               0.3307
       ...                                ...                  ...
        44                          0.1453096               3.9541
      -------------------------------------------------------------
                  HL-Gap            0.3575965 Eh            9.7307 eV

     #   Z          covCN         q      C6AA      α(0)
     1   6 C        3.751    -0.133    23.111     6.856
     2   6 C        3.740    -0.031    21.200     6.569
     3   7 N        3.575     0.033    20.665     6.752
     4   6 C        3.738    -0.029    21.181     6.567
     5   6 C        3.751    -0.131    23.086     6.852
     6   6 C        3.741    -0.032    21.226     6.573
     7   6 C        3.752    -0.134    23.138     6.860
     8   1 H        0.925     0.070     2.080     2.256
     9   1 H        0.925     0.090     1.880     2.144
    10   1 H        0.925     0.063     2.165     2.301
    11   1 H        0.925     0.096     1.825     2.112
    12   1 H        0.924     0.091     1.869     2.138
    13   1 H        0.859     0.228     0.974     1.546
    14   1 H        0.924     0.085     1.928     2.171
    15   1 H        0.924     0.093     1.851     2.128
    16   1 H        0.925     0.069     2.101     2.267
    17   1 H        0.925     0.089     1.892     2.151
    18   1 H        0.925     0.071     2.079     2.255
    19   1 H        0.924     0.094     1.844     2.123
    20   1 H        0.924     0.095     1.834     2.118
    21   1 H        0.925     0.065     2.137     2.286
    22   1 H        0.925     0.092     1.857     2.131
    23   1 H        0.925     0.067     2.115     2.274

Wiberg/Mayer (AO) data.
largest (>0.10) Wiberg bond orders for each atom

     #   Z sym  total        # sym  WBO       # sym  WBO       # sym  WBO
 ---------------------------------------------------------------------------
     1   6 C    3.981 --     2 C    1.023    10 H    0.981     8 H    0.980
                             9 H    0.973
     2   6 C    3.926 --     1 C    1.023    11 H    0.964    12 H    0.964
                             3 N    0.932
     3   7 N    3.765 --     2 C    0.932     6 C    0.930     4 C    0.929
                            13 H    0.910
     4   6 C    3.927 --     5 C    1.025    14 H    0.968    15 H    0.964
                             3 N    0.929
     5   6 C    3.980 --     4 C    1.025    16 H    0.981    18 H    0.979
                            17 H    0.972
     6   6 C    3.927 --     7 C    1.024    20 H    0.968    19 H    0.966
                             3 N    0.930
     7   6 C    3.981 --     6 C    1.024    21 H    0.981    23 H    0.979
                            22 H    0.972
     8   1 H    0.995 --     1 C    0.980
     9   1 H    0.992 --     1 C    0.973
    10   1 H    0.996 --     1 C    0.981
    11   1 H    0.991 --     2 C    0.964
    12   1 H    0.992 --     2 C    0.964
    13   1 H    0.948 --     3 N    0.910
    14   1 H    0.993 --     4 C    0.968
    15   1 H    0.991 --     4 C    0.964
    16   1 H    0.995 --     5 C    0.981
    17   1 H    0.992 --     5 C    0.972
    18   1 H    0.995 --     5 C    0.979
    19   1 H    0.991 --     6 C    0.966
    20   1 H    0.991 --     6 C    0.968
    21   1 H    0.996 --     7 C    0.981
    22   1 H    0.991 --     7 C    0.972
    23   1 H    0.995 --     7 C    0.979
 ---------------------------------------------------------------------------

molecular dipole:
                 x           y           z       tot (Debye)
 q only:        1.030      -1.012      -4.169
   full:        1.206      -1.025      -4.201      11.412

           -------------------------------------------------
          | TOTAL ENERGY              -23.523115561739 Eh   |
          | GRADIENT NORM               0.000393757976 Eh/α |
          | HOMO-LUMO GAP               9.730696383125 eV   |
           -------------------------------------------------

 * finished run on 2024/12/20 at 06:48:27.444
