   * xtb version 6.7.1 (edcfbbe) compiled by 'conda@3ef47c1a292c' on 2024-11-25

   ID    Z sym.   atoms
    1    6 C      1, 2, 4-8
    2    7 N      3
    3    1 H      9-24

          program call               : xtb C0557.xyz --opt --namespace C0557 --charge +1
          :  Hamiltonian                  GFN2-xTB          :
 * total energy  :   -25.6252313 Eh     change       -0.9213252E-10 Eh
 * total energy  :   -25.6275643 Eh     change       -0.2332988E-02 Eh
 * total energy  :   -25.6280675 Eh     change       -0.5032458E-03 Eh
 * total energy  :   -25.6281360 Eh     change       -0.6844001E-04 Eh
 * total energy  :   -25.6281772 Eh     change       -0.4124705E-04 Eh
 * total energy  :   -25.6281906 Eh     change       -0.1338003E-04 Eh
 * total energy  :   -25.6282023 Eh     change       -0.1169840E-04 Eh
 * total energy  :   -25.6282105 Eh     change       -0.8168346E-05 Eh
 * total energy  :   -25.6282118 Eh     change       -0.1356006E-05 Eh
 * total energy  :   -25.6282154 Eh     change       -0.3532940E-05 Eh
   *** GEOMETRY OPTIMIZATION CONVERGED AFTER 10 ITERATIONS ***

 final structure:
================
24
 xtb: 6.7.1 (edcfbbe)
C            1.13126335963779       -0.13817331346433       -0.10116756836909
C            0.48101169022688       -0.49261204373120        1.22511602720719
N            0.93652042939892        0.38004901520196        2.34347604531092
C            0.55416050268179        1.81752662415807        2.16065744838552
C           -0.93161924114909        2.02487074574521        2.13498037970610
C           -1.59759947456456        2.62033623888511        3.10727279960482
C            0.47969758549669       -0.13204929742226        3.66755717510052
C            1.26458129822218       -1.35024121786718        4.12136464634829
H            0.78703351162375        0.81512879821522       -0.49142776476300
H            0.87085875166711       -0.89930787297849       -0.83157333481898
H            2.21589916733542       -0.11899010399723       -0.01780414930919
H           -0.60456640062554       -0.41739593582238        1.15777281043531
H            0.73835703467053       -1.52007573570455        1.48493034945775
H            1.96289296698160        0.34330841263290        2.34455319423771
H            0.99267865625087        2.38536266584316        2.98424593053135
H            0.99617361370862        2.16993777871905        1.22683277315354
H           -1.44571186647584        1.69935657975563        1.24230404680680
H           -2.65822965275885        2.78432593599238        3.04344669402440
H           -1.11429624882524        2.98580507100328        3.99831928789769
H            0.61034107326845        0.66854638556268        4.39780553925471
H           -0.58576776901496       -0.35490980422896        3.59513116327036
H            2.33074271872580       -1.13774091209679        4.16451588597207
H            0.94197593481545       -1.62080684722815        5.12279322457733
H            1.10184235870204       -2.21507116717319        3.48479739597809

          :  Hamiltonian                  GFN2-xTB          :
         :: total energy             -25.628215361555 Eh    ::
         :: gradient norm              0.000494940433 Eh/a0 ::
         :: HOMO-LUMO gap              5.391575099911 eV    ::
         :: SCC energy               -26.026204407046 Eh    ::
         :: -> dispersion             -0.014914236807 Eh    ::
         :: repulsion energy           0.397989045491 Eh    ::

    * Orbital Energies and Occupations

         #    Occupation            Energy/Eh            Energy/eV
      -------------------------------------------------------------
         1        2.0000           -0.8683227             -23.6283
       ...           ...                  ...                  ...
        12        2.0000           -0.6797814             -18.4978
        13        2.0000           -0.6765406             -18.4096
        14        2.0000           -0.6595718             -17.9479
        15        2.0000           -0.6465024             -17.5922
        16        2.0000           -0.6398037             -17.4099
        17        2.0000           -0.6373090             -17.3421
        18        2.0000           -0.6227526             -16.9460
        19        2.0000           -0.6182698             -16.8240
        20        2.0000           -0.6139000             -16.7051
        21        2.0000           -0.6111020             -16.6289
        22        2.0000           -0.6017670             -16.3749
        23        2.0000           -0.5827293             -15.8569
        24        2.0000           -0.5660421             -15.4028 (HOMO)
        25                         -0.3679054             -10.0112 (LUMO)
        26                         -0.2322747              -6.3205
        27                         -0.1528274              -4.1586
        28                         -0.1484782              -4.0403
        29                         -0.1261148              -3.4318
        30                         -0.0549757              -1.4960
        31                         -0.0522010              -1.4205
        32                         -0.0496142              -1.3501
        33                         -0.0306964              -0.8353
        34                         -0.0184250              -0.5014
        35                         -0.0022865              -0.0622
       ...                                ...                  ...
        48                          0.4621169              12.5748
      -------------------------------------------------------------
                  HL-Gap            0.1981367 Eh            5.3916 eV

     #   Z          covCN         q      C6AA      α(0)
     1   6 C        3.751    -0.131    23.086     6.852
     2   6 C        3.740    -0.030    21.185     6.567
     3   7 N        3.576     0.035    20.628     6.746
     4   6 C        3.745    -0.034    21.257     6.577
     5   6 C        2.884    -0.045    29.121     8.847
     6   6 C        2.838    -0.076    29.898     8.961
     7   6 C        3.742    -0.031    21.200     6.569
     8   6 C        3.751    -0.133    23.121     6.857
     9   1 H        0.925     0.070     2.083     2.257
    10   1 H        0.925     0.090     1.884     2.146
    11   1 H        0.925     0.063     2.166     2.301
    12   1 H        0.924     0.095     1.834     2.118
    13   1 H        0.924     0.091     1.868     2.138
    14   1 H        0.859     0.226     0.983     1.553
    15   1 H        0.924     0.088     1.897     2.154
    16   1 H        0.924     0.096     1.821     2.111
    17   1 H        0.926     0.065     2.146     2.291
    18   1 H        0.926     0.084     1.934     2.175
    19   1 H        0.926     0.068     2.110     2.272
    20   1 H        0.924     0.092     1.859     2.132
    21   1 H        0.924     0.093     1.850     2.127
    22   1 H        0.925     0.065     2.136     2.285
    23   1 H        0.925     0.092     1.860     2.133
    24   1 H        0.925     0.068     2.104     2.268

Wiberg/Mayer (AO) data.
largest (>0.10) Wiberg bond orders for each atom

     #   Z sym  total        # sym  WBO       # sym  WBO       # sym  WBO
 ---------------------------------------------------------------------------
     1   6 C    3.981 --     2 C    1.023    11 H    0.981     9 H    0.980
                            10 H    0.973
     2   6 C    3.926 --     1 C    1.023    12 H    0.965    13 H    0.963
                             3 N    0.932
     3   7 N    3.766 --     2 C    0.932     7 C    0.932     4 C    0.920
                            14 H    0.912
     4   6 C    3.926 --     5 C    1.018    15 H    0.965    16 H    0.956
                             3 N    0.920
     5   6 C    3.981 --     6 C    1.982     4 C    1.018    17 H    0.961
     6   6 C    3.981 --     5 C    1.982    19 H    0.971    18 H    0.971
     7   6 C    3.927 --     8 C    1.024    21 H    0.968    20 H    0.966
                             3 N    0.932
     8   6 C    3.981 --     7 C    1.024    22 H    0.981    24 H    0.979
                            23 H    0.972
     9   1 H    0.995 --     1 C    0.980
    10   1 H    0.992 --     1 C    0.973
    11   1 H    0.996 --     1 C    0.981
    12   1 H    0.991 --     2 C    0.965
    13   1 H    0.992 --     2 C    0.963
    14   1 H    0.949 --     3 N    0.912
    15   1 H    0.992 --     4 C    0.965
    16   1 H    0.991 --     4 C    0.956
    17   1 H    0.996 --     5 C    0.961
    18   1 H    0.993 --     6 C    0.971
    19   1 H    0.995 --     6 C    0.971
    20   1 H    0.991 --     7 C    0.966
    21   1 H    0.991 --     7 C    0.968
    22   1 H    0.996 --     8 C    0.981
    23   1 H    0.991 --     8 C    0.972
    24   1 H    0.995 --     8 C    0.979
 ---------------------------------------------------------------------------

molecular dipole:
                 x           y           z       tot (Debye)
 q only:        1.255       0.688       4.467
   full:        1.450       0.723       4.480      12.109

           -------------------------------------------------
          | TOTAL ENERGY              -25.628215361555 Eh   |
          | GRADIENT NORM               0.000494940433 Eh/α |
          | HOMO-LUMO GAP               5.391575099911 eV   |
           -------------------------------------------------

 * finished run on 2024/12/20 at 06:48:27.890
