   * xtb version 6.7.1 (edcfbbe) compiled by 'conda@3ef47c1a292c' on 2024-11-25

   ID    Z sym.   atoms
    1   17 Cl     1
    2    6 C      2-4, 6, 7
    3    7 N      5
    4    1 H      8-20

          program call               : xtb C0555.xyz --opt --namespace C0555 --charge +1
          :  Hamiltonian                  GFN2-xTB          :
 * total energy  :   -24.3904970 Eh     change       -0.3551989E-08 Eh
 * total energy  :   -24.3939144 Eh     change       -0.3417381E-02 Eh
 * total energy  :   -24.3951137 Eh     change       -0.1199260E-02 Eh
 * total energy  :   -24.3954950 Eh     change       -0.3813049E-03 Eh
 * total energy  :   -24.3958811 Eh     change       -0.3861005E-03 Eh
 * total energy  :   -24.3960728 Eh     change       -0.1917071E-03 Eh
 * total energy  :   -24.3961955 Eh     change       -0.1227102E-03 Eh
 * total energy  :   -24.3962827 Eh     change       -0.8723521E-04 Eh
 * total energy  :   -24.3963259 Eh     change       -0.4314132E-04 Eh
 * total energy  :   -24.3963414 Eh     change       -0.1554765E-04 Eh
 * total energy  :   -24.3963446 Eh     change       -0.3170382E-05 Eh
   *** GEOMETRY OPTIMIZATION CONVERGED AFTER 11 ITERATIONS ***

 final structure:
================
20
 xtb: 6.7.1 (edcfbbe)
Cl           1.39379306275262        0.24460542783059       -0.93069786941368
C            2.84607080601675        0.07473377026181        0.13138010469570
C            3.17439457822642       -1.38425126776527        0.45504160676379
C            2.85088009686807       -2.38426294795613       -0.65930600970046
N            3.22377765136690       -1.90823756376916       -2.01384666089055
C            4.67559801912745       -1.75941553977366       -2.18610868016497
C            2.66284675501573       -2.78444180592510       -3.05502798829611
H            3.66104432915955        0.57663865450198       -0.38878483185663
H            2.63013367035962        0.62597756683197        1.04565584072400
H            4.22806209655945       -1.43327259741789        0.73233269384541
H            2.60144273210649       -1.70091097517736        1.32657602301553
H            3.35718957315408       -3.33117820380892       -0.46338108735432
H            1.77433371935524       -2.56025384197864       -0.66660270122857
H            2.75449945455197       -0.98105714205964       -2.08741564005879
H            5.15809522645019       -2.73102349687400       -2.08561805467100
H            4.89664170914984       -1.36158245414273       -3.17463469558071
H            5.08661153676710       -1.08422210920599       -1.44083343205388
H            1.57915730496669       -2.82619275113085       -2.96866977595183
H            2.91743540960554       -2.40405704570165       -4.04226184318209
H            3.06552226844031       -3.79114567673920       -2.95200699864101

          :  Hamiltonian                  GFN2-xTB          :
         :: total energy             -24.396344602580 Eh    ::
         :: gradient norm              0.000782964170 Eh/a0 ::
         :: HOMO-LUMO gap              6.802866887675 eV    ::
         :: SCC energy               -24.672325426072 Eh    ::
         :: -> dispersion             -0.012741435559 Eh    ::
         :: repulsion energy           0.275980823492 Eh    ::

    * Orbital Energies and Occupations

         #    Occupation            Energy/Eh            Energy/eV
      -------------------------------------------------------------
         1        2.0000           -1.1979154             -32.5969
       ...           ...                  ...                  ...
        10        2.0000           -0.7140504             -19.4303
        11        2.0000           -0.6926574             -18.8482
        12        2.0000           -0.6808329             -18.5264
        13        2.0000           -0.6637348             -18.0611
        14        2.0000           -0.6589567             -17.9311
        15        2.0000           -0.6528380             -17.7646
        16        2.0000           -0.6496258             -17.6772
        17        2.0000           -0.6484044             -17.6440
        18        2.0000           -0.6394685             -17.4008
        19        2.0000           -0.6248126             -17.0020
        20        2.0000           -0.6093175             -16.5804
        21        2.0000           -0.5645172             -15.3613
        22        2.0000           -0.5605995             -15.2547 (HOMO)
        23                         -0.3105988              -8.4518 (LUMO)
        24                         -0.2270397              -6.1781
        25                         -0.1549469              -4.2163
        26                         -0.1443100              -3.9269
        27                         -0.1342867              -3.6541
        28                         -0.1321097              -3.5949
        29                         -0.1274273              -3.4675
        30                         -0.1240081              -3.3744
        31                         -0.1070775              -2.9137
        32                         -0.0736908              -2.0052
        33                         -0.0593616              -1.6153
       ...                                ...                  ...
        46                          0.1360350               3.7017
      -------------------------------------------------------------
                  HL-Gap            0.2500008 Eh            6.8029 eV

     #   Z          covCN         q      C6AA      α(0)
     1  17 Cl       0.906    -0.182   104.850    15.665
     2   6 C        3.710     0.003    20.658     6.496
     3   6 C        3.814    -0.088    22.162     6.700
     4   6 C        3.747    -0.046    21.465     6.608
     5   7 N        3.576     0.044    20.468     6.719
     6   6 C        3.700    -0.098    22.540     6.789
     7   6 C        3.703    -0.099    22.557     6.791
     8   1 H        0.925     0.081     1.970     2.195
     9   1 H        0.925     0.099     1.798     2.097
    10   1 H        0.924     0.085     1.925     2.170
    11   1 H        0.925     0.100     1.783     2.088
    12   1 H        0.924     0.103     1.762     2.076
    13   1 H        0.924     0.108     1.717     2.049
    14   1 H        0.862     0.259     0.847     1.442
    15   1 H        0.925     0.106     1.734     2.059
    16   1 H        0.925     0.104     1.746     2.066
    17   1 H        0.925     0.104     1.753     2.071
    18   1 H        0.925     0.105     1.741     2.064
    19   1 H        0.925     0.107     1.725     2.054
    20   1 H        0.925     0.106     1.734     2.059

Wiberg/Mayer (AO) data.
largest (>0.10) Wiberg bond orders for each atom

     #   Z sym  total        # sym  WBO       # sym  WBO       # sym  WBO
 ---------------------------------------------------------------------------
     1  17 Cl   1.062 --     2 C    0.943
     2   6 C    3.928 --     3 C    1.013     8 H    0.976     9 H    0.974
                             1 Cl   0.943
     3   6 C    3.984 --     2 C    1.013     4 C    1.007    11 H    0.965
                            10 H    0.965
     4   6 C    3.930 --     3 C    1.007    12 H    0.966    13 H    0.964
                             5 N    0.940
     5   7 N    3.767 --     6 C    0.964     7 C    0.962     4 C    0.940
                            14 H    0.855
     6   6 C    3.921 --    16 H    0.975    15 H    0.974    17 H    0.972
                             5 N    0.964
     7   6 C    3.919 --    20 H    0.975    18 H    0.975    19 H    0.974
                             5 N    0.962
     8   1 H    0.993 --     2 C    0.976
     9   1 H    0.990 --     2 C    0.974
    10   1 H    0.993 --     3 C    0.965
    11   1 H    0.990 --     3 C    0.965
    12   1 H    0.989 --     4 C    0.966
    13   1 H    0.988 --     4 C    0.964
    14   1 H    0.933 --     5 N    0.855
    15   1 H    0.989 --     6 C    0.974
    16   1 H    0.989 --     6 C    0.975
    17   1 H    0.989 --     6 C    0.972
    18   1 H    0.989 --     7 C    0.975
    19   1 H    0.988 --     7 C    0.974
    20   1 H    0.989 --     7 C    0.975
 ---------------------------------------------------------------------------

molecular dipole:
                 x           y           z       tot (Debye)
 q only:        6.759      -3.782      -2.949
   full:        6.293      -3.261      -2.844      19.411

           -------------------------------------------------
          | TOTAL ENERGY              -24.396344602580 Eh   |
          | GRADIENT NORM               0.000782964170 Eh/α |
          | HOMO-LUMO GAP               6.802866887675 eV   |
           -------------------------------------------------

 * finished run on 2024/12/20 at 06:48:26.956
