   * xtb version 6.7.1 (edcfbbe) compiled by 'conda@3ef47c1a292c' on 2024-11-25

   ID    Z sym.   atoms
    1    6 C      1, 2, 4, 5, 7-10
    2    7 N      3, 6
    3    1 H      11-27

          program call               : xtb C0558.xyz --opt --namespace C0558 --charge +1
          :  Hamiltonian                  GFN2-xTB          :
 * total energy  :   -31.2499519 Eh     change       -0.7291945E-10 Eh
 * total energy  :   -31.2617237 Eh     change       -0.1177176E-01 Eh
 * total energy  :   -31.2641702 Eh     change       -0.2446511E-02 Eh
 * total energy  :   -31.2642400 Eh     change       -0.6979806E-04 Eh
 * total energy  :   -31.2642471 Eh     change       -0.7105070E-05 Eh
 * total energy  :   -31.2642478 Eh     change       -0.7212583E-06 Eh
   *** GEOMETRY OPTIMIZATION CONVERGED AFTER 6 ITERATIONS ***

 final structure:
================
27
 xtb: 6.7.1 (edcfbbe)
C            0.95148420555047        0.03077405920024        0.04788547160830
C            0.50186565017487        0.53917457892555       -1.31285044219131
N            0.87123881586849       -0.30626071201249       -2.48693423759669
C            0.26870145458587       -1.66006997002217       -2.38903284434290
C            0.63568295850990       -2.47220923283905       -3.65846138718974
N            1.45203404213167       -1.67450296567113       -4.54295173228532
C            2.67082478109100       -1.28395469033954       -3.87427724068651
C            2.34440545254846       -0.44859621991092       -2.60884148237403
C            0.72210561232880       -0.49924809389698       -4.95541381058995
C            0.35472587745239        0.35527556652998       -3.71660547592044
H            0.51582675619647       -0.93201761326477        0.29831181820892
H            0.60722055424959        0.74385909720622        0.79289034569292
H            2.03245225970672       -0.02853128402553        0.13433677051696
H           -0.58651418522203        0.63532108847121       -1.31524130740235
H            0.93055099262848        1.52989337161800       -1.48175925750376
H           -0.81154124810564       -1.54849724068901       -2.28489301706971
H            0.65606115780956       -2.14778884677615       -1.49541219115095
H            1.18961628951012       -3.37362680437392       -3.39376362031776
H           -0.26212807082656       -2.77824875733439       -4.19660588151425
H            3.22548824405491       -2.18501065845061       -3.60988074972273
H            3.28081650630031       -0.70940246956223       -4.57222180653271
H            2.71961348664719       -0.94388411318650       -1.71421398546137
H            2.78230430794083        0.54906316168679       -2.66492076470890
H            1.34118836882877        0.06957814918448       -5.65004920852579
H           -0.17476775644085       -0.81543928897376       -5.48925709760551
H           -0.72644594806037        0.46392430972926       -3.61887151600602
H            0.79468943454055        1.35159557877742       -3.78032534932840

          :  Hamiltonian                  GFN2-xTB          :
         :: total energy             -31.264247833153 Eh    ::
         :: gradient norm              0.000426666802 Eh/a0 ::
         :: HOMO-LUMO gap              7.351318285854 eV    ::
         :: SCC energy               -31.669869330778 Eh    ::
         :: -> dispersion             -0.021514000487 Eh    ::
         :: repulsion energy           0.405621497626 Eh    ::

    * Orbital Energies and Occupations

         #    Occupation            Energy/Eh            Energy/eV
      -------------------------------------------------------------
         1        2.0000           -0.8687176             -23.6390
       ...           ...                  ...                  ...
        17        2.0000           -0.6651424             -18.0994
        18        2.0000           -0.6616124             -18.0034
        19        2.0000           -0.6615683             -18.0022
        20        2.0000           -0.6602628             -17.9667
        21        2.0000           -0.6475378             -17.6204
        22        2.0000           -0.6409034             -17.4399
        23        2.0000           -0.6343897             -17.2626
        24        2.0000           -0.6176106             -16.8060
        25        2.0000           -0.6075643             -16.5327
        26        2.0000           -0.5970471             -16.2465
        27        2.0000           -0.5952352             -16.1972
        28        2.0000           -0.5906565             -16.0726
        29        2.0000           -0.5159497             -14.0397 (HOMO)
        30                         -0.2457937              -6.6884 (LUMO)
        31                         -0.1738334              -4.7302
        32                         -0.1703582              -4.6357
        33                         -0.1604994              -4.3674
        34                         -0.1000341              -2.7221
        35                         -0.0960739              -2.6143
        36                         -0.0945078              -2.5717
        37                         -0.0711718              -1.9367
        38                         -0.0484851              -1.3193
        39                         -0.0382199              -1.0400
        40                         -0.0311294              -0.8471
       ...                                ...                  ...
        57                          0.1645975               4.4789
      -------------------------------------------------------------
                  HL-Gap            0.2701560 Eh            7.3513 eV

     #   Z          covCN         q      C6AA      α(0)
     1   6 C        3.751    -0.129    23.032     6.844
     2   6 C        3.756    -0.032    21.192     6.564
     3   7 N        3.625     0.120    19.190     6.506
     4   6 C        3.764    -0.037    21.274     6.575
     5   6 C        3.783    -0.015    20.868     6.507
     6   7 N        2.731    -0.147    24.173     7.302
     7   6 C        3.783    -0.015    20.869     6.507
     8   6 C        3.764    -0.037    21.275     6.575
     9   6 C        3.784    -0.015    20.855     6.505
    10   6 C        3.770    -0.037    21.262     6.571
    11   1 H        0.925     0.067     2.119     2.277
    12   1 H        0.925     0.089     1.888     2.149
    13   1 H        0.925     0.067     2.118     2.276
    14   1 H        0.924     0.082     1.962     2.191
    15   1 H        0.924     0.082     1.962     2.190
    16   1 H        0.924     0.079     1.990     2.206
    17   1 H        0.925     0.084     1.934     2.175
    18   1 H        0.924     0.078     1.995     2.209
    19   1 H        0.924     0.079     1.994     2.208
    20   1 H        0.924     0.078     1.995     2.209
    21   1 H        0.924     0.079     1.994     2.208
    22   1 H        0.925     0.085     1.932     2.174
    23   1 H        0.924     0.079     1.990     2.206
    24   1 H        0.924     0.079     1.990     2.206
    25   1 H        0.924     0.079     1.990     2.206
    26   1 H        0.924     0.079     1.990     2.206
    27   1 H        0.924     0.079     1.990     2.206

Wiberg/Mayer (AO) data.
largest (>0.10) Wiberg bond orders for each atom

     #   Z sym  total        # sym  WBO       # sym  WBO       # sym  WBO
 ---------------------------------------------------------------------------
     1   6 C    3.981 --     2 C    1.022    13 H    0.980    11 H    0.980
                            12 H    0.971
     2   6 C    3.937 --     1 C    1.022    14 H    0.967    15 H    0.967
                             3 N    0.929
     3   7 N    3.806 --     4 C    0.940     8 C    0.940    10 C    0.939
                             2 C    0.929
     4   6 C    3.933 --     5 C    0.976    16 H    0.972    17 H    0.968
                             3 N    0.940
     5   6 C    3.977 --     6 N    1.014     4 C    0.976    18 H    0.970
                            19 H    0.970
     6   7 N    3.160 --     5 C    1.014     7 C    1.014     9 C    1.014
     7   6 C    3.977 --     6 N    1.014     8 C    0.976    20 H    0.970
                            21 H    0.970
     8   6 C    3.933 --     7 C    0.976    23 H    0.972    22 H    0.968
                             3 N    0.940
     9   6 C    3.976 --     6 N    1.014    10 C    0.977    25 H    0.970
                            24 H    0.970
    10   6 C    3.934 --     9 C    0.977    26 H    0.971    27 H    0.971
                             3 N    0.939
    11   1 H    0.996 --     1 C    0.980
    12   1 H    0.992 --     1 C    0.971
    13   1 H    0.995 --     1 C    0.980
    14   1 H    0.993 --     2 C    0.967
    15   1 H    0.993 --     2 C    0.967
    16   1 H    0.994 --     4 C    0.972
    17   1 H    0.993 --     4 C    0.968
    18   1 H    0.994 --     5 C    0.970
    19   1 H    0.994 --     5 C    0.970
    20   1 H    0.994 --     7 C    0.970
    21   1 H    0.994 --     7 C    0.970
    22   1 H    0.993 --     8 C    0.968
    23   1 H    0.994 --     8 C    0.972
    24   1 H    0.994 --     9 C    0.970
    25   1 H    0.994 --     9 C    0.970
    26   1 H    0.994 --    10 C    0.971
    27   1 H    0.994 --    10 C    0.971
 ---------------------------------------------------------------------------

molecular dipole:
                 x           y           z       tot (Debye)
 q only:        1.809      -0.887      -4.875
   full:        1.668      -0.580      -4.511      12.314

           -------------------------------------------------
          | TOTAL ENERGY              -31.264247833153 Eh   |
          | GRADIENT NORM               0.000426666802 Eh/α |
          | HOMO-LUMO GAP               7.351318285854 eV   |
           -------------------------------------------------

 * finished run on 2024/12/20 at 06:48:28.255
