   * xtb version 6.7.1 (edcfbbe) compiled by 'conda@3ef47c1a292c' on 2024-11-25

   ID    Z sym.   atoms
    1    6 C      1-4, 6-13, 15, 16
    2    7 N      5, 14
    3    1 H      17-33

          program call               : xtb C0554.xyz --opt --namespace C0554 --charge +1
          :  Hamiltonian                  GFN2-xTB          :
 * total energy  :   -44.0810301 Eh     change       -0.2191030E-09 Eh
 * total energy  :   -44.0848095 Eh     change       -0.3779443E-02 Eh
 * total energy  :   -44.0855794 Eh     change       -0.7699380E-03 Eh
 * total energy  :   -44.0858769 Eh     change       -0.2974231E-03 Eh
 * total energy  :   -44.0862877 Eh     change       -0.4108182E-03 Eh
 * total energy  :   -44.0866221 Eh     change       -0.3344627E-03 Eh
 * total energy  :   -44.0869724 Eh     change       -0.3502583E-03 Eh
 * total energy  :   -44.0873323 Eh     change       -0.3599213E-03 Eh
 * total energy  :   -44.0875600 Eh     change       -0.2277225E-03 Eh
 * total energy  :   -44.0876895 Eh     change       -0.1294111E-03 Eh
 * total energy  :   -44.0880559 Eh     change       -0.7065491E-05 Eh
 * total energy  :   -44.0880626 Eh     change       -0.6754854E-05 Eh
 * total energy  :   -44.0880700 Eh     change       -0.7340605E-05 Eh
 * total energy  :   -44.0880770 Eh     change       -0.7049371E-05 Eh
 * total energy  :   -44.0880833 Eh     change       -0.6235720E-05 Eh
 * total energy  :   -44.0880891 Eh     change       -0.5861413E-05 Eh
 * total energy  :   -44.0880950 Eh     change       -0.5844530E-05 Eh
 * total energy  :   -44.0881002 Eh     change       -0.5262011E-05 Eh
 * total energy  :   -44.0881039 Eh     change       -0.3693802E-05 Eh
   *** GEOMETRY OPTIMIZATION CONVERGED AFTER 31 ITERATIONS ***

 final structure:
================
33
 xtb: 6.7.1 (edcfbbe)
C            1.14723703091427        0.01015618284753        0.61626734309294
C            0.35805912379863        1.20197854258819        1.14597422552394
C            0.77761588747732        2.53122939714705        0.51841150100355
C            0.40537761206099        2.66638453632400       -0.96597080031270
N           -1.03468575627385        2.71359515024558       -1.13346410157498
C           -1.72721018765764        1.59056016492794       -1.36665155871876
C           -3.09896306922450        1.59646398275713       -1.44999070015208
C           -3.80844786818609        2.79503614744501       -1.29828084822539
C           -3.05241523053425        3.95153124902930       -1.05712447265397
C           -1.68450874923630        3.87550117686057       -0.97372326840350
C           -5.26457533113360        2.83953152818211       -1.39363840487112
C           -5.91389734637381        3.92912716500761       -1.98025288729549
C           -7.29895857899396        3.91141088301772       -2.05281835602821
N           -8.03539050376864        2.92353271625727       -1.58106622786606
C           -7.42994849961890        1.89513060851624       -1.01831216695171
C           -6.05129703375924        1.79361009232695       -0.90397199927384
H            0.98424796302393       -0.15580932258361       -0.44644562438137
H            0.85166379240973       -0.89312792287162        1.14213008410005
H            2.21149467433194        0.15987500836785        0.77679953740901
H           -0.71398891726513        1.03659314314806        1.00327894944288
H            0.52670210960678        1.27583472911708        2.22092609047934
H            0.32518688201540        3.35577354568536        1.07351449320417
H            1.86038619543112        2.63403529289360        0.59395401897853
H            0.83587375388767        3.58610528307162       -1.36637684144600
H            0.80324869415244        1.82150097496324       -1.52849132021308
H           -1.16260279451880        0.68021276859531       -1.50132044126321
H           -3.61985181613246        0.67495295614642       -1.65550982340648
H           -3.53958764689582        4.90316246920621       -0.91676916252899
H           -1.08334537970766        4.75139872233700       -0.77908214137387
H           -5.35564825450856        4.74847909326100       -2.40485363628820
H           -7.84219234179194        4.72782445306055       -2.50784080331852
H           -8.07754924891251        1.11425682214293       -0.64476584932546
H           -5.60569916461965        0.94331245997772       -0.41221480736085

          :  Hamiltonian                  GFN2-xTB          :
         :: total energy             -44.088103933113 Eh    ::
         :: gradient norm              0.000184780514 Eh/a0 ::
         :: HOMO-LUMO gap              0.709242962201 eV    ::
         :: SCC energy               -44.838185010522 Eh    ::
         :: -> dispersion             -0.029714446780 Eh    ::
         :: repulsion energy           0.750081077409 Eh    ::

    * Orbital Energies and Occupations

         #    Occupation            Energy/Eh            Energy/eV
      -------------------------------------------------------------
         1        2.0000           -0.8712487             -23.7079
       ...           ...                  ...                  ...
        29        2.0000           -0.6140925             -16.7103
        30        2.0000           -0.6078994             -16.5418
        31        2.0000           -0.6051602             -16.4672
        32        2.0000           -0.6035670             -16.4239
        33        2.0000           -0.5997359             -16.3196
        34        2.0000           -0.5932102             -16.1421
        35        2.0000           -0.5686266             -15.4731
        36        2.0000           -0.5605945             -15.2546
        37        2.0000           -0.5575527             -15.1718
        38        2.0000           -0.5548988             -15.0996
        39        2.0000           -0.5528585             -15.0440
        40        2.0000           -0.5388810             -14.6637
        41        2.0000           -0.4797499             -13.0547 (HOMO)
        42        0.0000           -0.4536857             -12.3454 (LUMO)
        43                         -0.4190224             -11.4022
        44                         -0.3693529             -10.0506
        45                         -0.3577338              -9.7344
        46                         -0.2947158              -8.0196
        47                         -0.2260648              -6.1515
        48                         -0.1632521              -4.4423
        49                         -0.0793643              -2.1596
        50                         -0.0627870              -1.7085
        51                         -0.0463386              -1.2609
        52                         -0.0357966              -0.9741
       ...                                ...                  ...
        81                          0.5077972              13.8179
      -------------------------------------------------------------
                  HL-Gap            0.0260642 Eh            0.7092 eV

     #   Z          covCN         q      C6AA      α(0)
     1   6 C        3.752    -0.114    22.734     6.800
     2   6 C        3.800    -0.061    21.669     6.628
     3   6 C        3.802    -0.070    21.835     6.653
     4   6 C        3.758    -0.034    21.227     6.569
     5   7 N        2.750     0.099    19.536     6.565
     6   6 C        2.889     0.031    27.301     8.566
     7   6 C        2.920    -0.024    28.604     8.770
     8   6 C        2.980     0.056    26.736     8.482
     9   6 C        2.920    -0.023    28.579     8.767
    10   6 C        2.890     0.030    27.338     8.572
    11   6 C        2.984     0.023    27.493     8.601
    12   6 C        2.917    -0.035    28.860     8.809
    13   6 C        2.909     0.067    26.502     8.441
    14   7 N        1.837    -0.175    25.583     7.496
    15   6 C        2.909     0.067    26.505     8.442
    16   6 C        2.917    -0.035    28.862     8.810
    17   1 H        0.925     0.031     2.575     2.510
    18   1 H        0.925     0.056     2.250     2.346
    19   1 H        0.925     0.054     2.269     2.356
    20   1 H        0.924     0.027     2.627     2.535
    21   1 H        0.924     0.062     2.178     2.308
    22   1 H        0.924     0.052     2.294     2.368
    23   1 H        0.924     0.080     1.978     2.199
    24   1 H        0.924     0.086     1.914     2.163
    25   1 H        0.924     0.093     1.848     2.126
    26   1 H        0.926     0.106     1.735     2.060
    27   1 H        0.926     0.098     1.805     2.101
    28   1 H        0.926     0.098     1.801     2.099
    29   1 H        0.926     0.102     1.767     2.079
    30   1 H        0.926     0.053     2.285     2.364
    31   1 H        0.926     0.073     2.052     2.240
    32   1 H        0.926     0.073     2.053     2.241
    33   1 H        0.926     0.052     2.289     2.366

Wiberg/Mayer (AO) data.
largest (>0.10) Wiberg bond orders for each atom

     #   Z sym  total        # sym  WBO       # sym  WBO       # sym  WBO
 ---------------------------------------------------------------------------
     1   6 C    3.993 --     2 C    1.021    19 H    0.986    18 H    0.985
                            17 H    0.983
     2   6 C    3.994 --     1 C    1.021     3 C    1.009    20 H    0.973
                            21 H    0.971
     3   6 C    3.980 --     2 C    1.009     4 C    0.975    22 H    0.974
                            23 H    0.965
     4   6 C    3.935 --     3 C    0.975     5 N    0.967    24 H    0.963
                            25 H    0.960
     5   7 N    3.748 --     6 C    1.307    10 C    1.304     4 C    0.967
     6   6 C    3.956 --     7 C    1.489     5 N    1.307    26 H    0.953
     7   6 C    3.984 --     6 C    1.489     8 C    1.351    27 H    0.958
     8   6 C    3.972 --     7 C    1.351     9 C    1.343    11 C    1.079
     9   6 C    3.983 --    10 C    1.500     8 C    1.343    28 H    0.958
    10   6 C    3.957 --     9 C    1.500     5 N    1.304    29 H    0.955
    11   6 C    3.986 --    16 C    1.372    12 C    1.372     8 C    1.079
    12   6 C    3.987 --    13 C    1.428    11 C    1.372    30 H    0.966
                            15 C    0.115
    13   6 C    3.975 --    14 N    1.442    12 C    1.428    31 H    0.959
                            16 C    0.115
    14   7 N    3.069 --    13 C    1.442    15 C    1.442
    15   6 C    3.975 --    14 N    1.442    16 C    1.428    32 H    0.959
                            12 C    0.115
    16   6 C    3.987 --    15 C    1.428    11 C    1.372    33 H    0.966
                            13 C    0.115
    17   1 H    0.999 --     1 C    0.983
    18   1 H    0.997 --     1 C    0.985
    19   1 H    0.997 --     1 C    0.986
    20   1 H    0.999 --     2 C    0.973
    21   1 H    0.995 --     2 C    0.971
    22   1 H    0.997 --     3 C    0.974
    23   1 H    0.992 --     3 C    0.965
    24   1 H    0.992 --     4 C    0.963
    25   1 H    0.991 --     4 C    0.960
    26   1 H    0.988 --     6 C    0.953
    27   1 H    0.990 --     7 C    0.958
    28   1 H    0.990 --     9 C    0.958
    29   1 H    0.989 --    10 C    0.955
    30   1 H    0.997 --    12 C    0.966
    31   1 H    0.994 --    13 C    0.959
    32   1 H    0.994 --    15 C    0.959
    33   1 H    0.997 --    16 C    0.966
 ---------------------------------------------------------------------------

molecular dipole:
                 x           y           z       tot (Debye)
 q only:       -3.652       4.954      -1.835
   full:       -3.180       4.992      -1.863      15.772

           -------------------------------------------------
          | TOTAL ENERGY              -44.088103933113 Eh   |
          | GRADIENT NORM               0.000184780514 Eh/α |
          | HOMO-LUMO GAP               0.709242962201 eV   |
           -------------------------------------------------

 * finished run on 2024/12/20 at 06:48:26.606
