   * xtb version 6.7.1 (edcfbbe) compiled by 'conda@3ef47c1a292c' on 2024-11-25

   ID    Z sym.   atoms
    1    6 C      1-3, 7-12
    2    7 N      4-6
    3    1 H      13-28

          program call               : xtb C0553.xyz --opt --namespace C0553 --charge +1
          :  Hamiltonian                  GFN2-xTB          :
 * total energy  :   -35.8190375 Eh     change       -0.3437606E-10 Eh
 * total energy  :   -35.8280134 Eh     change       -0.8975935E-02 Eh
 * total energy  :   -35.8292000 Eh     change       -0.1186562E-02 Eh
 * total energy  :   -35.8293770 Eh     change       -0.1769570E-03 Eh
 * total energy  :   -35.8295094 Eh     change       -0.1324084E-03 Eh
 * total energy  :   -35.8295395 Eh     change       -0.3012866E-04 Eh
 * total energy  :   -35.8295684 Eh     change       -0.2891401E-04 Eh
 * total energy  :   -35.8296093 Eh     change       -0.4090390E-04 Eh
 * total energy  :   -35.8296417 Eh     change       -0.3241406E-04 Eh
 * total energy  :   -35.8297020 Eh     change       -0.6026985E-04 Eh
 * total energy  :   -35.8300715 Eh     change       -0.1197959E-04 Eh
 * total energy  :   -35.8300766 Eh     change       -0.5158967E-05 Eh
 * total energy  :   -35.8300828 Eh     change       -0.6165225E-05 Eh
 * total energy  :   -35.8300879 Eh     change       -0.5127599E-05 Eh
 * total energy  :   -35.8300930 Eh     change       -0.5029628E-05 Eh
 * total energy  :   -35.8300996 Eh     change       -0.6668247E-05 Eh
 * total energy  :   -35.8301081 Eh     change       -0.8433596E-05 Eh
 * total energy  :   -35.8301143 Eh     change       -0.6230563E-05 Eh
 * total energy  :   -35.8301164 Eh     change       -0.2103090E-05 Eh
   *** GEOMETRY OPTIMIZATION CONVERGED AFTER 29 ITERATIONS ***

 final structure:
================
28
 xtb: 6.7.1 (edcfbbe)
C            1.66330472025548        0.19702913389121        0.27754944528768
C            0.58001721532959       -0.34412908033930        1.20078869994280
C            0.45284236369086        0.47801721053184        2.48857798367613
N            0.05229538979007        1.83123570833261        2.20455630949094
N            0.89943144574160        2.80902024684760        2.29043728973980
N            0.26488290013494        3.88914205346795        1.93756181786181
C            0.89257766888955        5.18627468624527        1.94433918523582
C            0.07508243716738        6.14976078511129        1.09012563971676
C           -1.39774981768704        6.07190970753412        1.48649474867436
C           -1.95534275235175        4.68563769204485        1.15555880277170
C           -1.02093994457466        3.62973190827622        1.61123935420261
C           -1.15293597301123        2.26651676881429        1.78764207652251
H            1.42022686458654        1.19412080755496       -0.08450415912172
H            1.77067265131385       -0.45339139308038       -0.58517386537033
H            2.62008700652383        0.23990447396544        0.79131368120552
H           -0.37958284892687       -0.36692079388553        0.68094048746711
H            0.82532687559614       -1.36559238804131        1.49040517572474
H           -0.28677320527028        0.02750238662881        3.15425726809873
H            1.41773432722943        0.53482252795532        2.99553031048573
H            1.91545488915478        5.07352963014938        1.57924577404221
H            0.94113724290814        5.53714318199602        2.98061746028675
H            0.18708012021238        5.90009656158652        0.03361061737179
H            0.45605539389622        7.15869910480899        1.23779037176707
H           -1.50204201580811        6.26981543021078        2.55458718130480
H           -1.97053456444383        6.82732970699010        0.95179392290750
H           -2.93454084659305        4.53461519984419        1.61233865230469
H           -2.08843703937377        4.58636366994352        0.07374534600721
H           -1.99688050437606        1.62284507261746        1.65266042239474

          :  Hamiltonian                  GFN2-xTB          :
         :: total energy             -35.830116396275 Eh    ::
         :: gradient norm              0.000246316261 Eh/a0 ::
         :: HOMO-LUMO gap              3.719817204579 eV    ::
         :: SCC energy               -36.330283971854 Eh    ::
         :: -> dispersion             -0.021551287853 Eh    ::
         :: repulsion energy           0.500167575580 Eh    ::

    * Orbital Energies and Occupations

         #    Occupation            Energy/Eh            Energy/eV
      -------------------------------------------------------------
         1        2.0000           -0.9184157             -24.9914
       ...           ...                  ...                  ...
        21        2.0000           -0.6459449             -17.5771
        22        2.0000           -0.6412976             -17.4506
        23        2.0000           -0.6281963             -17.0941
        24        2.0000           -0.6176491             -16.8071
        25        2.0000           -0.6112165             -16.6320
        26        2.0000           -0.6072334             -16.5237
        27        2.0000           -0.5925645             -16.1245
        28        2.0000           -0.5880306             -16.0011
        29        2.0000           -0.5864662             -15.9586
        30        2.0000           -0.5839207             -15.8893
        31        2.0000           -0.5754751             -15.6595
        32        2.0000           -0.5714300             -15.5494
        33        2.0000           -0.5660059             -15.4018 (HOMO)
        34                         -0.4293051             -11.6820 (LUMO)
        35                         -0.3749727             -10.2035
        36                         -0.1874294              -5.1002
        37                         -0.1465312              -3.9873
        38                         -0.0898210              -2.4442
        39                         -0.0721549              -1.9634
        40                         -0.0539349              -1.4676
        41                         -0.0506918              -1.3794
        42                         -0.0397053              -1.0804
        43                         -0.0335383              -0.9126
        44                         -0.0197375              -0.5371
       ...                                ...                  ...
        64                          0.4469306              12.1616
      -------------------------------------------------------------
                  HL-Gap            0.1367008 Eh            3.7198 eV

     #   Z          covCN         q      C6AA      α(0)
     1   6 C        3.752    -0.116    22.782     6.807
     2   6 C        3.801    -0.064    21.735     6.638
     3   6 C        3.745    -0.034    21.261     6.577
     4   7 N        3.034     0.157    18.598     6.405
     5   7 N        2.145    -0.121    24.157     7.293
     6   7 N        3.053     0.140    18.865     6.451
     7   6 C        3.746    -0.029    21.161     6.562
     8   6 C        3.807    -0.074    21.905     6.663
     9   6 C        3.808    -0.070    21.838     6.652
    10   6 C        3.807    -0.072    21.868     6.657
    11   6 C        3.054     0.051    26.799     8.490
    12   6 C        3.024    -0.026    28.613     8.774
    13   1 H        0.925     0.034     2.531     2.488
    14   1 H        0.925     0.067     2.117     2.275
    15   1 H        0.925     0.058     2.221     2.331
    16   1 H        0.924     0.056     2.246     2.344
    17   1 H        0.925     0.078     1.997     2.210
    18   1 H        0.924     0.091     1.873     2.140
    19   1 H        0.924     0.106     1.731     2.057
    20   1 H        0.924     0.102     1.770     2.080
    21   1 H        0.924     0.098     1.800     2.098
    22   1 H        0.924     0.067     2.118     2.276
    23   1 H        0.925     0.082     1.960     2.190
    24   1 H        0.924     0.062     2.180     2.309
    25   1 H        0.925     0.076     2.018     2.222
    26   1 H        0.924     0.087     1.905     2.158
    27   1 H        0.924     0.091     1.872     2.140
    28   1 H        0.927     0.103     1.758     2.073

Wiberg/Mayer (AO) data.
largest (>0.10) Wiberg bond orders for each atom

     #   Z sym  total        # sym  WBO       # sym  WBO       # sym  WBO
 ---------------------------------------------------------------------------
     1   6 C    3.991 --     2 C    1.022    13 H    0.988    15 H    0.985
                            14 H    0.981
     2   6 C    3.983 --     1 C    1.022     3 C    0.978    16 H    0.975
                            17 H    0.967
     3   6 C    3.930 --     2 C    0.978     4 N    0.968    19 H    0.962
                            18 H    0.956
     4   7 N    3.757 --     5 N    1.328    12 C    1.294     3 C    0.968
     5   7 N    2.994 --     4 N    1.328     6 N    1.304    12 C    0.133
                            11 C    0.105
     6   7 N    3.741 --     5 N    1.304    11 C    1.271     7 C    0.968
     7   6 C    3.937 --     8 C    1.002     6 N    0.968    20 H    0.956
                            21 H    0.946
     8   6 C    3.985 --     9 C    1.009     7 C    1.002    22 H    0.973
                            23 H    0.969
     9   6 C    3.990 --     8 C    1.009    10 C    1.001    24 H    0.975
                            25 H    0.972
    10   6 C    3.985 --    11 C    1.030     9 C    1.001    26 H    0.954
                            27 H    0.940
    11   6 C    3.959 --    12 C    1.460     6 N    1.271    10 C    1.030
                             5 N    0.105
    12   6 C    3.955 --    11 C    1.460     4 N    1.294    28 H    0.962
                             5 N    0.133
    13   1 H    0.999 --     1 C    0.988
    14   1 H    0.995 --     1 C    0.981
    15   1 H    0.997 --     1 C    0.985
    16   1 H    0.997 --     2 C    0.975
    17   1 H    0.993 --     2 C    0.967
    18   1 H    0.991 --     3 C    0.956
    19   1 H    0.988 --     3 C    0.962
    20   1 H    0.989 --     7 C    0.956
    21   1 H    0.990 --     7 C    0.946
    22   1 H    0.995 --     8 C    0.973
    23   1 H    0.993 --     8 C    0.969
    24   1 H    0.996 --     9 C    0.975
    25   1 H    0.994 --     9 C    0.972
    26   1 H    0.992 --    10 C    0.954
    27   1 H    0.992 --    10 C    0.940
    28   1 H    0.989 --    12 C    0.962
 ---------------------------------------------------------------------------

molecular dipole:
                 x           y           z       tot (Debye)
 q only:       -0.368       5.895       3.259
   full:       -0.668       5.811       3.279      17.044

           -------------------------------------------------
          | TOTAL ENERGY              -35.830116396275 Eh   |
          | GRADIENT NORM               0.000246316261 Eh/α |
          | HOMO-LUMO GAP               3.719817204579 eV   |
           -------------------------------------------------

 * finished run on 2024/12/20 at 06:48:25.536
