   * xtb version 6.7.1 (edcfbbe) compiled by 'conda@3ef47c1a292c' on 2024-11-25

   ID    Z sym.   atoms
    1    6 C      1-6, 8
    2   16 S      7
    3    7 N      9, 10
    4    1 H      11-27

          program call               : xtb C0552.xyz --opt --namespace C0552 --charge +1
          :  Hamiltonian                  GFN2-xTB          :
 * total energy  :   -32.3305842 Eh     change       -0.7417356E-10 Eh
 * total energy  :   -32.3337327 Eh     change       -0.3148557E-02 Eh
 * total energy  :   -32.3349597 Eh     change       -0.1226953E-02 Eh
 * total energy  :   -32.3355890 Eh     change       -0.6293750E-03 Eh
 * total energy  :   -32.3362430 Eh     change       -0.6539313E-03 Eh
 * total energy  :   -32.3368943 Eh     change       -0.6513318E-03 Eh
 * total energy  :   -32.3373592 Eh     change       -0.4649336E-03 Eh
 * total energy  :   -32.3377450 Eh     change       -0.3858006E-03 Eh
 * total energy  :   -32.3381226 Eh     change       -0.3775281E-03 Eh
 * total energy  :   -32.3384588 Eh     change       -0.3362466E-03 Eh
 * total energy  :   -32.3399568 Eh     change       -0.1182098E-04 Eh
 * total energy  :   -32.3399690 Eh     change       -0.1213747E-04 Eh
 * total energy  :   -32.3399809 Eh     change       -0.1191033E-04 Eh
 * total energy  :   -32.3399923 Eh     change       -0.1136926E-04 Eh
 * total energy  :   -32.3400024 Eh     change       -0.1014135E-04 Eh
 * total energy  :   -32.3400114 Eh     change       -0.8949553E-05 Eh
 * total energy  :   -32.3400193 Eh     change       -0.7933447E-05 Eh
 * total energy  :   -32.3400266 Eh     change       -0.7314222E-05 Eh
 * total energy  :   -32.3400283 Eh     change       -0.1736364E-05 Eh
   *** GEOMETRY OPTIMIZATION CONVERGED AFTER 44 ITERATIONS ***

 final structure:
================
27
 xtb: 6.7.1 (edcfbbe)
C            1.20035055810976       -0.15933676832520       -0.22535439411087
C            0.45030769513610        0.85176486001855       -1.08018854160474
C            0.75750867675321        0.85803096003580       -2.57976499429472
C            0.06067034714919       -0.21923951871889       -3.41873610450954
C           -1.46816138514561       -0.20877446698682       -3.33585818758611
C           -2.09079720383807        1.11198487472778       -3.77040102119979
S            0.66083606844806       -1.90642806852926       -0.40807149348070
C            1.79570813445931       -2.65711046496796       -1.47094080571169
N            2.73688379836891       -1.99170945663622       -2.11985753309517
N            1.68830172906713       -3.97204490063365       -1.59629732910467
H            0.98396223546126        0.03503435475053        0.82666238855893
H            2.28026663577142       -0.11581142392758       -0.35859471664502
H           -0.62113072926421        0.72730011483959       -0.92701617160586
H            0.71893910790854        1.83113716973208       -0.67601419004708
H            0.44586393358376        1.82714417961474       -2.96929199949448
H            1.84072486901872        0.80220974559571       -2.73587923720456
H            0.34771172164365       -0.05562965001447       -4.45970316465891
H            0.40788043265064       -1.21786188245262       -3.14373551908972
H           -1.83814845647210       -1.00281687179651       -3.98764494916644
H           -1.79342638001074       -0.45277004232270       -2.32215020417232
H           -1.73336856452478        1.39505612931532       -4.75743175880174
H           -3.17183494111023        1.01371903644800       -3.81658269330419
H           -1.85781577982720        1.91274394735343       -3.07342024574027
H            3.38851934312240       -2.46771445549887       -2.72614140720426
H            2.74541382689225       -0.98173920820647       -2.13077782539855
H            0.98855850296292       -4.47576280659104       -1.07348026946910
H            2.29260582369116       -4.50398538682242       -2.20460763185658

          :  Hamiltonian                  GFN2-xTB          :
         :: total energy             -32.340028339362 Eh    ::
         :: gradient norm              0.000142206702 Eh/a0 ::
         :: HOMO-LUMO gap              2.802427546554 eV    ::
         :: SCC energy               -32.779731288694 Eh    ::
         :: -> dispersion             -0.020929341463 Eh    ::
         :: repulsion energy           0.439702949332 Eh    ::

    * Orbital Energies and Occupations

         #    Occupation            Energy/Eh            Energy/eV
      -------------------------------------------------------------
         1        2.0000           -0.9067431             -24.6737
       ...           ...                  ...                  ...
        18        2.0000           -0.6322699             -17.2049
        19        2.0000           -0.6215722             -16.9138
        20        2.0000           -0.6186404             -16.8341
        21        2.0000           -0.6141163             -16.7110
        22        2.0000           -0.5949353             -16.1890
        23        2.0000           -0.5892309             -16.0338
        24        2.0000           -0.5743585             -15.6291
        25        2.0000           -0.5674635             -15.4415
        26        2.0000           -0.5595247             -15.2254
        27        2.0000           -0.5538006             -15.0697
        28        2.0000           -0.5367844             -14.6066
        29        2.0000           -0.5306809             -14.4406
        30        2.0000           -0.5254132             -14.2972 (HOMO)
        31                         -0.4224259             -11.4948 (LUMO)
        32                         -0.3664378              -9.9713
        33                         -0.3262332              -8.8773
        34                         -0.1916979              -5.2164
        35                         -0.1855980              -5.0504
        36                         -0.1684509              -4.5838
        37                         -0.1275394              -3.4705
        38                         -0.1045701              -2.8455
        39                         -0.0616182              -1.6767
        40                         -0.0422159              -1.1488
        41                         -0.0360524              -0.9810
       ...                                ...                  ...
        62                          0.3576676               9.7326
      -------------------------------------------------------------
                  HL-Gap            0.1029873 Eh            2.8024 eV

     #   Z          covCN         q      C6AA      α(0)
     1   6 C        3.792    -0.032    21.160     6.551
     2   6 C        3.813    -0.072    21.860     6.655
     3   6 C        3.799    -0.066    21.767     6.643
     4   6 C        3.800    -0.063    21.715     6.635
     5   6 C        3.799    -0.056    21.580     6.614
     6   6 C        3.752    -0.110    22.664     6.789
     7  16 S        2.076     0.031   139.787    19.899
     8   6 C        2.795     0.192    23.891     8.007
     9   7 N        2.676    -0.210    25.584     7.512
    10   7 N        2.726    -0.204    25.441     7.491
    11   1 H        0.925     0.093     1.852     2.128
    12   1 H        0.925     0.070     2.089     2.260
    13   1 H        0.925     0.075     2.031     2.228
    14   1 H        0.924     0.070     2.087     2.259
    15   1 H        0.925     0.067     2.114     2.274
    16   1 H        0.924     0.021     2.721     2.580
    17   1 H        0.924     0.045     2.378     2.412
    18   1 H        0.924     0.007     2.933     2.678
    19   1 H        0.924     0.039     2.458     2.452
    20   1 H        0.924     0.030     2.584     2.514
    21   1 H        0.925     0.044     2.399     2.422
    22   1 H        0.925     0.048     2.350     2.397
    23   1 H        0.925     0.039     2.467     2.456
    24   1 H        0.860     0.228     0.973     1.545
    25   1 H        0.860     0.241     0.920     1.502
    26   1 H        0.860     0.241     0.919     1.502
    27   1 H        0.860     0.232     0.955     1.531

Wiberg/Mayer (AO) data.
largest (>0.10) Wiberg bond orders for each atom

     #   Z sym  total        # sym  WBO       # sym  WBO       # sym  WBO
 ---------------------------------------------------------------------------
     1   6 C    3.946 --     2 C    1.012    12 H    0.960     7 S    0.959
                            11 H    0.959
     2   6 C    3.984 --     1 C    1.012     3 C    1.007    13 H    0.965
                            14 H    0.958
     3   6 C    3.993 --     2 C    1.007     4 C    1.006    15 H    0.970
                            16 H    0.967
     4   6 C    3.996 --     5 C    1.007     3 C    1.006    17 H    0.975
                            18 H    0.975
     5   6 C    3.997 --     6 C    1.021     4 C    1.007    19 H    0.977
                            20 H    0.974
     6   6 C    3.994 --     5 C    1.021    21 H    0.987    23 H    0.986
                            22 H    0.986
     7  16 S    2.472 --     8 C    1.209     1 C    0.959
     8   6 C    3.970 --     9 N    1.367    10 N    1.366     7 S    1.209
     9   7 N    3.446 --     8 C    1.367    24 H    0.920    25 H    0.902
                            10 N    0.122
    10   7 N    3.454 --     8 C    1.366    26 H    0.923    27 H    0.921
                             9 N    0.122
    11   1 H    0.991 --     1 C    0.959
    12   1 H    0.995 --     1 C    0.960
    13   1 H    0.994 --     2 C    0.965
    14   1 H    0.995 --     2 C    0.958
    15   1 H    0.995 --     3 C    0.970
    16   1 H    1.000 --     3 C    0.967
    17   1 H    0.998 --     4 C    0.975
    18   1 H    1.000 --     4 C    0.975
    19   1 H    0.998 --     5 C    0.977
    20   1 H    0.999 --     5 C    0.974
    21   1 H    0.998 --     6 C    0.987
    22   1 H    0.998 --     6 C    0.986
    23   1 H    0.999 --     6 C    0.986
    24   1 H    0.948 --     9 N    0.920
    25   1 H    0.942 --     9 N    0.902
    26   1 H    0.942 --    10 N    0.923
    27   1 H    0.945 --    10 N    0.921
 ---------------------------------------------------------------------------

molecular dipole:
                 x           y           z       tot (Debye)
 q only:        3.313      -3.851      -3.101
   full:        3.580      -3.808      -3.191      15.564

           -------------------------------------------------
          | TOTAL ENERGY              -32.340028339362 Eh   |
          | GRADIENT NORM               0.000142206702 Eh/α |
          | HOMO-LUMO GAP               2.802427546554 eV   |
           -------------------------------------------------

 * finished run on 2024/12/20 at 06:48:24.760
