   * xtb version 6.7.1 (edcfbbe) compiled by 'conda@3ef47c1a292c' on 2024-11-25

   ID    Z sym.   atoms
    1    6 C      1, 2, 4-9
    2    7 N      3
    3    1 H      10-21

          program call               : xtb C0550.xyz --opt --namespace C0550 --charge +1
          :  Hamiltonian                  GFN2-xTB          :
 * total energy  :   -25.7709756 Eh     change       -0.3899316E-09 Eh
 * total energy  :   -25.7729695 Eh     change       -0.1993958E-02 Eh
 * total energy  :   -25.7732719 Eh     change       -0.3023936E-03 Eh
 * total energy  :   -25.7733284 Eh     change       -0.5646481E-04 Eh
 * total energy  :   -25.7733924 Eh     change       -0.6401676E-04 Eh
 * total energy  :   -25.7734407 Eh     change       -0.4823661E-04 Eh
 * total energy  :   -25.7735010 Eh     change       -0.6035735E-04 Eh
 * total energy  :   -25.7735790 Eh     change       -0.7801557E-04 Eh
 * total energy  :   -25.7736401 Eh     change       -0.6105811E-04 Eh
 * total energy  :   -25.7736778 Eh     change       -0.3773448E-04 Eh
 * total energy  :   -25.7737135 Eh     change       -0.3567267E-04 Eh
 * total energy  :   -25.7737351 Eh     change       -0.2159304E-04 Eh
 * total energy  :   -25.7737604 Eh     change       -0.2529235E-04 Eh
 * total energy  :   -25.7737910 Eh     change       -0.3059445E-04 Eh
 * total energy  :   -25.7737955 Eh     change       -0.4504720E-05 Eh
   *** GEOMETRY OPTIMIZATION CONVERGED AFTER 15 ITERATIONS ***

 final structure:
================
21
 xtb: 6.7.1 (edcfbbe)
C            1.25765968101654       -0.50341170486573        0.34527317982528
C            0.25776978710531       -0.88112982150509       -0.74507381345174
N            0.57126843291827        0.13358841288461        1.45989625993025
C            0.06616805633535       -0.62271013920016        2.44021856710261
C           -0.64468642456010       -0.07950137318330        3.49987941838988
C           -0.82542959191633        1.30728138818113        3.50834457917294
C           -0.30175775575481        2.07413072671887        2.48173778335387
C            0.39659973957345        1.45731814295441        1.46174262639632
C           -1.18286206486417       -0.93671221298269        4.58805731716901
H            2.00083686901103        0.18932305567289       -0.05388940304142
H            1.77140764668324       -1.39512757448773        0.70947623979203
H           -0.48964795799293       -1.57446735578589       -0.36700937507395
H           -0.24602064856338        0.00139990601252       -1.13218437362876
H            0.78578215052174       -1.35991304899073       -1.56441429771947
H            0.23817106691968       -1.68772181053671        2.37676938865453
H           -1.37161502315319        1.77176697001546        4.31512908643885
H           -0.42952191119379        3.14457825204410        2.46736938636146
H            0.82204682913578        2.01827484209816        0.64339288935562
H           -0.66431560045538       -0.71892219246741        5.52146599664227
H           -2.23789276319045       -0.72542447842716        4.75117891981377
H           -1.06307051757594       -1.99245998414906        4.36472962451679

          :  Hamiltonian                  GFN2-xTB          :
         :: total energy             -25.773795477322 Eh    ::
         :: gradient norm              0.000898027703 Eh/a0 ::
         :: HOMO-LUMO gap              3.610495864357 eV    ::
         :: SCC energy               -26.214786441868 Eh    ::
         :: -> dispersion             -0.014329016749 Eh    ::
         :: repulsion energy           0.440990964546 Eh    ::

    * Orbital Energies and Occupations

         #    Occupation            Energy/Eh            Energy/eV
      -------------------------------------------------------------
         1        2.0000           -0.8769421             -23.8628
       ...           ...                  ...                  ...
        12        2.0000           -0.6942234             -18.8908
        13        2.0000           -0.6789214             -18.4744
        14        2.0000           -0.6669473             -18.1486
        15        2.0000           -0.6591143             -17.9354
        16        2.0000           -0.6572038             -17.8834
        17        2.0000           -0.6338777             -17.2487
        18        2.0000           -0.6266506             -17.0520
        19        2.0000           -0.6212539             -16.9052
        20        2.0000           -0.6136767             -16.6990
        21        2.0000           -0.6117774             -16.6473
        22        2.0000           -0.6043540             -16.4453
        23        2.0000           -0.6012778             -16.3616
        24        2.0000           -0.5874598             -15.9856 (HOMO)
        25                         -0.4547765             -12.3751 (LUMO)
        26                         -0.4209273             -11.4540
        27                         -0.3042371              -8.2787
        28                         -0.1736618              -4.7256
        29                         -0.0781570              -2.1268
        30                         -0.0516234              -1.4047
        31                         -0.0433208              -1.1788
        32                         -0.0397991              -1.0830
        33                         -0.0137704              -0.3747
        34                         -0.0012221              -0.0333
        35                          0.0131090               0.3567
       ...                                ...                  ...
        48                          0.4406543              11.9908
      -------------------------------------------------------------
                  HL-Gap            0.1326833 Eh            3.6105 eV

     #   Z          covCN         q      C6AA      α(0)
     1   6 C        3.758    -0.030    21.160     6.558
     2   6 C        3.752    -0.124    22.931     6.829
     3   7 N        2.749     0.107    19.399     6.542
     4   6 C        2.898     0.018    27.617     8.617
     5   6 C        2.961     0.050    26.871     8.502
     6   6 C        2.930    -0.002    28.071     8.689
     7   6 C        2.913    -0.013    28.349     8.731
     8   6 C        2.892     0.027    27.407     8.583
     9   6 C        3.759    -0.134    23.129     6.856
    10   1 H        0.924     0.092     1.856     2.130
    11   1 H        0.924     0.092     1.855     2.130
    12   1 H        0.925     0.067     2.120     2.277
    13   1 H        0.925     0.067     2.116     2.275
    14   1 H        0.925     0.090     1.884     2.146
    15   1 H        0.926     0.104     1.751     2.069
    16   1 H        0.926     0.103     1.760     2.074
    17   1 H        0.926     0.105     1.737     2.061
    18   1 H        0.926     0.106     1.729     2.056
    19   1 H        0.925     0.099     1.790     2.092
    20   1 H        0.925     0.096     1.819     2.109
    21   1 H        0.925     0.079     1.989     2.206

Wiberg/Mayer (AO) data.
largest (>0.10) Wiberg bond orders for each atom

     #   Z sym  total        # sym  WBO       # sym  WBO       # sym  WBO
 ---------------------------------------------------------------------------
     1   6 C    3.936 --     2 C    0.996    10 H    0.964    11 H    0.963
                             3 N    0.959
     2   6 C    3.979 --     1 C    0.996    13 H    0.984    12 H    0.983
                            14 H    0.974
     3   7 N    3.766 --     8 C    1.334     4 C    1.325     1 C    0.959
     4   6 C    3.958 --     5 C    1.417     3 N    1.325    15 H    0.954
     5   6 C    3.981 --     4 C    1.417     6 C    1.369     9 C    1.047
     6   6 C    3.975 --     7 C    1.447     5 C    1.369    16 H    0.961
     7   6 C    3.982 --     6 C    1.447     8 C    1.442    17 H    0.959
     8   6 C    3.959 --     7 C    1.442     3 N    1.334    18 H    0.955
     9   6 C    3.982 --     5 C    1.047    21 H    0.980    20 H    0.956
                            19 H    0.947
    10   1 H    0.991 --     1 C    0.964
    11   1 H    0.991 --     1 C    0.963
    12   1 H    0.996 --     2 C    0.983
    13   1 H    0.995 --     2 C    0.984
    14   1 H    0.991 --     2 C    0.974
    15   1 H    0.989 --     4 C    0.954
    16   1 H    0.989 --     6 C    0.961
    17   1 H    0.988 --     7 C    0.959
    18   1 H    0.988 --     8 C    0.955
    19   1 H    0.990 --     9 C    0.947
    20   1 H    0.990 --     9 C    0.956
    21   1 H    0.993 --     9 C    0.980
 ---------------------------------------------------------------------------

molecular dipole:
                 x           y           z       tot (Debye)
 q only:        0.123       0.327       3.837
   full:        0.190       0.382       3.826       9.785

           -------------------------------------------------
          | TOTAL ENERGY              -25.773795477322 Eh   |
          | GRADIENT NORM               0.000898027703 Eh/α |
          | HOMO-LUMO GAP               3.610495864357 eV   |
           -------------------------------------------------

 * finished run on 2024/12/20 at 06:48:21.976
