   * xtb version 6.7.1 (edcfbbe) compiled by 'conda@3ef47c1a292c' on 2024-11-25

   ID    Z sym.   atoms
    1    6 C      1, 2, 4-16
    2    7 N      3
    3    1 H      17-38

          program call               : xtb C0559.xyz --opt --namespace C0559 --charge +1
          :  Hamiltonian                  GFN2-xTB          :
 * total energy  :   -45.7860708 Eh     change       -0.1587551E-08 Eh
 * total energy  :   -45.7940150 Eh     change       -0.7944129E-02 Eh
 * total energy  :   -45.7960782 Eh     change       -0.2063243E-02 Eh
 * total energy  :   -45.7962371 Eh     change       -0.1589463E-03 Eh
 * total energy  :   -45.7963862 Eh     change       -0.1490927E-03 Eh
 * total energy  :   -45.7964972 Eh     change       -0.1109965E-03 Eh
 * total energy  :   -45.7966724 Eh     change       -0.1752013E-03 Eh
 * total energy  :   -45.7968396 Eh     change       -0.1671626E-03 Eh
 * total energy  :   -45.7969316 Eh     change       -0.9196272E-04 Eh
 * total energy  :   -45.7969767 Eh     change       -0.4518299E-04 Eh
 * total energy  :   -45.7971389 Eh     change       -0.4381869E-04 Eh
 * total energy  :   -45.7971699 Eh     change       -0.3094955E-04 Eh
 * total energy  :   -45.7971963 Eh     change       -0.2636789E-04 Eh
 * total energy  :   -45.7972178 Eh     change       -0.2157170E-04 Eh
 * total energy  :   -45.7972317 Eh     change       -0.1383556E-04 Eh
 * total energy  :   -45.7972405 Eh     change       -0.8827713E-05 Eh
 * total energy  :   -45.7972483 Eh     change       -0.7806139E-05 Eh
 * total energy  :   -45.7972540 Eh     change       -0.5704296E-05 Eh
 * total energy  :   -45.7972567 Eh     change       -0.2734740E-05 Eh
   *** GEOMETRY OPTIMIZATION CONVERGED AFTER 22 ITERATIONS ***

 final structure:
================
38
 xtb: 6.7.1 (edcfbbe)
C            1.09113213402032        0.38213214885414       -0.09821931175479
C            0.90613215765793        0.45772477024692       -1.60660557064807
N            1.13184653818139       -0.81407344973822       -2.35602140988822
C            0.25729478809217       -1.89806376931617       -1.78737326432305
C           -1.13251372483449       -1.49750247483353       -1.72668130719351
C           -2.28526629939610       -1.15041445206315       -1.68531335672357
C           -3.63572723278015       -0.73880694608731       -1.64087681283415
C           -4.07604260581022        0.29047586321256       -2.47430043360868
C           -5.39693211229043        0.69188885644017       -2.42737118718556
C           -6.28260787638714        0.07373851017764       -1.55845285671052
C           -5.84674657377531       -0.94995638528486       -0.73139608266776
C           -4.52771872796823       -1.35933219885801       -0.76599082126275
C            0.72623642940422       -0.64891914745793       -3.79435108959817
C            0.95649416379844        0.70777107099311       -4.44538632370618
C            2.53901593423725       -1.29909724324188       -2.23230019968729
C            3.61919336057888       -0.42586612806590       -2.84907961787303
H            0.35695267104474       -0.26430471680349        0.37376169621713
H            0.93905463836380        1.38284815792574        0.29889631523856
H            2.09094076371675        0.07017653622758        0.19022020123212
H           -0.12169035175911        0.76290774415282       -1.81223373934308
H            1.58457071080459        1.20585235678191       -2.01323938939824
H            0.61618205084988       -2.15466689071690       -0.78787058690413
H            0.35778889297241       -2.78314895005129       -2.42422722830103
H           -3.38280470241827        0.76743960889138       -3.15262598408750
H           -5.73698597743935        1.48834128814511       -3.07137048079847
H           -7.31352689194286        0.39009413362824       -1.52653046544986
H           -6.53778855958218       -1.43102746471343       -0.05661555426111
H           -4.17995917131666       -2.15663819042817       -0.12644947582006
H            1.24871007017254       -1.42056848987092       -4.36308922020907
H           -0.34621399048668       -0.85721845588709       -3.84165588153364
H            1.98595161454303        1.04418140957720       -4.39409433381556
H            0.69679279812483        0.60576062052785       -5.49673280683682
H            0.31271179514169        1.47572838155568       -4.02720105899568
H            2.74768731861980       -1.42353407291898       -1.16861582717555
H            2.58151991262524       -2.28757662973220       -2.69662366238344
H            3.61784159367778        0.58394670861296       -2.44928705640559
H            4.58091190580814       -0.87001843847565       -2.60273904167223
H            3.54840255574323       -0.38943367141813       -3.93166677364171

          :  Hamiltonian                  GFN2-xTB          :
         :: total energy             -45.797256742038 Eh    ::
         :: gradient norm              0.000220266978 Eh/a0 ::
         :: HOMO-LUMO gap              3.916922905608 eV    ::
         :: SCC energy               -46.616920347131 Eh    ::
         :: -> dispersion             -0.032929207379 Eh    ::
         :: repulsion energy           0.819663605093 Eh    ::

    * Orbital Energies and Occupations

         #    Occupation            Energy/Eh            Energy/eV
      -------------------------------------------------------------
         1        2.0000           -0.8490329             -23.1034
       ...           ...                  ...                  ...
        31        2.0000           -0.5979375             -16.2707
        32        2.0000           -0.5968228             -16.2404
        33        2.0000           -0.5908582             -16.0781
        34        2.0000           -0.5874825             -15.9862
        35        2.0000           -0.5820698             -15.8389
        36        2.0000           -0.5758975             -15.6710
        37        2.0000           -0.5730527             -15.5936
        38        2.0000           -0.5508127             -14.9884
        39        2.0000           -0.5459753             -14.8567
        40        2.0000           -0.5222828             -14.2120
        41        2.0000           -0.5148960             -14.0110
        42        2.0000           -0.5013507             -13.6424
        43        2.0000           -0.4930831             -13.4175 (HOMO)
        44                         -0.3491389              -9.5006 (LUMO)
        45                         -0.3185998              -8.6695
        46                         -0.3068876              -8.3508
        47                         -0.2530977              -6.8871
        48                         -0.2188089              -5.9541
        49                         -0.1689793              -4.5982
        50                         -0.1571773              -4.2770
        51                         -0.1511752              -4.1137
        52                         -0.1361700              -3.7054
        53                         -0.0746045              -2.0301
        54                         -0.0452357              -1.2309
       ...                                ...                  ...
        86                          1.2826246              34.9020
      -------------------------------------------------------------
                  HL-Gap            0.1439443 Eh            3.9169 eV

     #   Z          covCN         q      C6AA      α(0)
     1   6 C        3.751    -0.126    22.977     6.836
     2   6 C        3.750    -0.028    21.132     6.556
     3   7 N        3.619     0.102    19.476     6.555
     4   6 C        3.770    -0.012    20.826     6.503
     5   6 C        1.963    -0.073    33.043     9.283
     6   6 C        1.983    -0.015    31.443     9.056
     7   6 C        2.974     0.032    27.287     8.568
     8   6 C        2.927    -0.026    28.660     8.779
     9   6 C        2.919    -0.023    28.571     8.765
    10   6 C        2.920    -0.018    28.463     8.749
    11   6 C        2.919    -0.021    28.529     8.759
    12   6 C        2.927    -0.023    28.578     8.767
    13   6 C        3.754    -0.030    21.160     6.559
    14   6 C        3.751    -0.129    23.040     6.846
    15   6 C        3.756    -0.027    21.104     6.550
    16   6 C        3.751    -0.125    22.960     6.834
    17   1 H        0.925     0.067     2.124     2.279
    18   1 H        0.925     0.080     1.975     2.198
    19   1 H        0.925     0.062     2.175     2.306
    20   1 H        0.924     0.087     1.908     2.160
    21   1 H        0.925     0.088     1.903     2.157
    22   1 H        0.924     0.095     1.834     2.118
    23   1 H        0.924     0.087     1.909     2.161
    24   1 H        0.926     0.029     2.597     2.520
    25   1 H        0.926     0.048     2.345     2.395
    26   1 H        0.926     0.053     2.288     2.365
    27   1 H        0.926     0.051     2.305     2.374
    28   1 H        0.926     0.043     2.412     2.429
    29   1 H        0.924     0.079     1.988     2.205
    30   1 H        0.924     0.089     1.894     2.152
    31   1 H        0.925     0.068     2.103     2.268
    32   1 H        0.925     0.082     1.962     2.190
    33   1 H        0.925     0.063     2.159     2.298
    34   1 H        0.924     0.082     1.959     2.189
    35   1 H        0.924     0.076     2.023     2.225
    36   1 H        0.925     0.064     2.151     2.293
    37   1 H        0.925     0.081     1.970     2.195
    38   1 H        0.925     0.067     2.114     2.274

Wiberg/Mayer (AO) data.
largest (>0.10) Wiberg bond orders for each atom

     #   Z sym  total        # sym  WBO       # sym  WBO       # sym  WBO
 ---------------------------------------------------------------------------
     1   6 C    3.984 --     2 C    1.022    17 H    0.981    19 H    0.979
                            18 H    0.974
     2   6 C    3.935 --     1 C    1.022    20 H    0.964    21 H    0.963
                             3 N    0.931
     3   7 N    3.795 --    15 C    0.936     2 C    0.931    13 C    0.925
                             4 C    0.914
     4   6 C    3.940 --     5 C    1.051    23 H    0.950    22 H    0.948
                             3 N    0.914
     5   6 C    3.941 --     6 C    2.716     4 C    1.051
     6   6 C    3.973 --     5 C    2.716     7 C    1.116
     7   6 C    3.986 --    12 C    1.358     8 C    1.357     6 C    1.116
                            10 C    0.101
     8   6 C    3.988 --     9 C    1.457     7 C    1.357    24 H    0.971
                            11 C    0.106
     9   6 C    3.991 --     8 C    1.457    10 C    1.431    25 H    0.969
                            12 C    0.106
    10   6 C    3.961 --    11 C    1.432     9 C    1.431    26 H    0.970
                             7 C    0.101
    11   6 C    3.991 --    12 C    1.456    10 C    1.432    27 H    0.969
                             8 C    0.106
    12   6 C    3.988 --    11 C    1.456     7 C    1.358    28 H    0.970
                             9 C    0.106
    13   6 C    3.934 --    14 C    1.023    29 H    0.969    30 H    0.962
                             3 N    0.925
    14   6 C    3.983 --    13 C    1.023    33 H    0.983    31 H    0.977
                            32 H    0.973
    15   6 C    3.940 --    16 C    1.022    35 H    0.968    34 H    0.963
                             3 N    0.936
    16   6 C    3.982 --    15 C    1.022    38 H    0.980    36 H    0.979
                            37 H    0.973
    17   1 H    0.996 --     1 C    0.981
    18   1 H    0.993 --     1 C    0.974
    19   1 H    0.996 --     1 C    0.979
    20   1 H    0.992 --     2 C    0.964
    21   1 H    0.992 --     2 C    0.963
    22   1 H    0.989 --     4 C    0.948
    23   1 H    0.987 --     4 C    0.950
    24   1 H    0.999 --     8 C    0.971
    25   1 H    0.996 --     9 C    0.969
    26   1 H    0.997 --    10 C    0.970
    27   1 H    0.996 --    11 C    0.969
    28   1 H    0.998 --    12 C    0.970
    29   1 H    0.993 --    13 C    0.969
    30   1 H    0.992 --    13 C    0.962
    31   1 H    0.995 --    14 C    0.977
    32   1 H    0.993 --    14 C    0.973
    33   1 H    0.996 --    14 C    0.983
    34   1 H    0.993 --    15 C    0.963
    35   1 H    0.994 --    15 C    0.968
    36   1 H    0.996 --    16 C    0.979
    37   1 H    0.993 --    16 C    0.973
    38   1 H    0.995 --    16 C    0.980
 ---------------------------------------------------------------------------

molecular dipole:
                 x           y           z       tot (Debye)
 q only:        1.083      -0.996      -4.330
   full:        1.159      -1.133      -4.341      11.779

           -------------------------------------------------
          | TOTAL ENERGY              -45.797256742038 Eh   |
          | GRADIENT NORM               0.000220266978 Eh/α |
          | HOMO-LUMO GAP               3.916922905608 eV   |
           -------------------------------------------------

 * finished run on 2024/12/20 at 06:48:29.365
