   * xtb version 6.7.1 (edcfbbe) compiled by 'conda@3ef47c1a292c' on 2024-11-25

   ID    Z sym.   atoms
    1    6 C      1, 3, 5, 7, 8, 10-17, 19
    2    8 O      2, 4, 18
    3    7 N      6, 9
    4    1 H      20-36

          program call               : xtb C0551.xyz --opt --namespace C0551 --charge +1
          :  Hamiltonian                  GFN2-xTB          :
 * total energy  :   -56.3285117 Eh     change       -0.4300702E-09 Eh
 * total energy  :   -56.3382770 Eh     change       -0.9765334E-02 Eh
 * total energy  :   -56.3400173 Eh     change       -0.1740221E-02 Eh
 * total energy  :   -56.3402917 Eh     change       -0.2744127E-03 Eh
 * total energy  :   -56.3404822 Eh     change       -0.1905130E-03 Eh
 * total energy  :   -56.3406196 Eh     change       -0.1374114E-03 Eh
 * total energy  :   -56.3408135 Eh     change       -0.1938769E-03 Eh
 * total energy  :   -56.3410776 Eh     change       -0.2641611E-03 Eh
 * total energy  :   -56.3414245 Eh     change       -0.3468733E-03 Eh
 * total energy  :   -56.3418230 Eh     change       -0.3985305E-03 Eh
 * total energy  :   -56.3499479 Eh     change       -0.1904529E-04 Eh
 * total energy  :   -56.3499637 Eh     change       -0.1582236E-04 Eh
 * total energy  :   -56.3499809 Eh     change       -0.1717716E-04 Eh
 * total energy  :   -56.3499887 Eh     change       -0.7757658E-05 Eh
 * total energy  :   -56.3499904 Eh     change       -0.1747630E-05 Eh
 * total energy  :   -56.3499961 Eh     change       -0.5666842E-05 Eh
 * total energy  :   -56.3499934 Eh     change        0.2653097E-05 Eh
 * total energy  :   -56.3499990 Eh     change       -0.5586484E-05 Eh
 * total energy  :   -56.3500021 Eh     change       -0.3066180E-05 Eh
   *** GEOMETRY OPTIMIZATION CONVERGED AFTER 79 ITERATIONS ***

 final structure:
================
36
 xtb: 6.7.1 (edcfbbe)
C            0.02801198170859        0.68596341898591       -0.02198233376648
O            0.59370376742718        1.26206424819547        1.15887325204825
C            0.40117719087629        0.58773208304512        2.29045778811610
O           -0.18682062549673       -0.44410595371981        2.39956128445940
C            1.06072303594441        1.31340050036101        3.47939334548930
N            1.32260928380927        2.69847494703079        3.20789518082630
C            2.43535542096107        3.21100338178912        2.66957808930278
C            3.60504330430838        2.40323808206027        2.27527947647123
N            2.29674050095888        4.53499426117918        2.51530383410739
C            1.04628332871889        4.90272457042965        2.98472082976886
C            0.41475579094361        3.72177034843450        3.40756730146906
C           -0.87703184756355        3.73202615244963        3.91532622434169
C           -1.50789758777897        4.95763731106746        3.99241808458558
C           -0.87842724762693        6.13347454738823        3.57965121926766
C            0.40427964813755        6.13055876444597        3.06853127445358
C            3.35681952082569        5.45066936970015        2.19549463222466
C            4.39520132261818        5.45768375768256        3.34314736761182
O            4.36083548429185        4.59665932849929        4.17770253392262
C            5.36625682761078        6.58567988817254        3.29061916129283
H            0.14432349524418        1.42874436484118       -0.80620402101687
H           -1.02522078869511        0.45457752078375        0.13945205314476
H            0.55646805361229       -0.23256766148840       -0.28029865371161
H            0.39090724894289        1.22743058980589        4.33813426804158
H            1.98844732159968        0.79013978905103        3.72566745580566
H            3.28187622865874        1.49588260038025        1.76764213277326
H            4.26259090460026        2.95885084712861        1.61318205531435
H            4.18287290141182        2.12245690231981        3.15795800046745
H           -1.37332656565585        2.82886652254728        4.23020458469314
H           -2.51233241374514        5.01039541970505        4.38054317877803
H           -1.40982137044799        7.06800359872930        3.66150248806765
H            0.87308910170588        7.04785965841061        2.75177447178630
H            3.86200859885160        5.15511547950183        1.27109546987844
H            2.94131811093670        6.44814613151377        2.05416430283475
H            5.63545898675631        6.83780896446406        2.26863837655869
H            4.90259138179133        7.46253748463776        3.74369476880114
H            6.25340970375378        6.34288278049204        3.86988052178296

          :  Hamiltonian                  GFN2-xTB          :
         :: total energy             -56.350002067672 Eh    ::
         :: gradient norm              0.000849604123 Eh/a0 ::
         :: HOMO-LUMO gap              3.481695543004 eV    ::
         :: SCC energy               -57.121982932503 Eh    ::
         :: -> dispersion             -0.035141339489 Eh    ::
         :: repulsion energy           0.771980864830 Eh    ::

    * Orbital Energies and Occupations

         #    Occupation            Energy/Eh            Energy/eV
      -------------------------------------------------------------
         1        2.0000           -0.8800443             -23.9472
       ...           ...                  ...                  ...
        38        2.0000           -0.6167910             -16.7837
        39        2.0000           -0.6142491             -16.7146
        40        2.0000           -0.6084055             -16.5556
        41        2.0000           -0.6047278             -16.4555
        42        2.0000           -0.5962988             -16.2261
        43        2.0000           -0.5937859             -16.1577
        44        2.0000           -0.5777565             -15.7216
        45        2.0000           -0.5707515             -15.5309
        46        2.0000           -0.5695306             -15.4977
        47        2.0000           -0.5554524             -15.1146
        48        2.0000           -0.5490620             -14.9407
        49        2.0000           -0.5448873             -14.8271
        50        2.0000           -0.5340013             -14.5309 (HOMO)
        51                         -0.4060514             -11.0492 (LUMO)
        52                         -0.3910579             -10.6412
        53                         -0.3602671              -9.8034
        54                         -0.3596437              -9.7864
        55                         -0.3524967              -9.5919
        56                         -0.2348027              -6.3893
        57                         -0.1779700              -4.8428
        58                         -0.1332746              -3.6266
        59                         -0.1256351              -3.4187
        60                         -0.0769808              -2.0948
        61                         -0.0669878              -1.8228
       ...                                ...                  ...
        93                          0.5582449              15.1906
      -------------------------------------------------------------
                  HL-Gap            0.1279500 Eh            3.4817 eV

     #   Z          covCN         q      C6AA      α(0)
     1   6 C        3.655     0.020    20.528     6.505
     2   8 O        1.703    -0.260    18.312     5.778
     3   6 C        2.718     0.355    20.965     7.495
     4   8 O        0.856    -0.353    20.772     6.111
     5   6 C        3.741    -0.051    21.563     6.625
     6   7 N        2.833     0.022    20.865     6.784
     7   6 C        3.068     0.135    24.993     8.198
     8   6 C        3.755    -0.134    23.130     6.858
     9   7 N        2.832     0.019    20.910     6.792
    10   6 C        3.094     0.039    27.013     8.518
    11   6 C        3.094     0.040    26.984     8.514
    12   6 C        2.909    -0.033    28.818     8.803
    13   6 C        2.926    -0.018    28.463     8.749
    14   6 C        2.926    -0.019    28.485     8.752
    15   6 C        2.909    -0.034    28.850     8.808
    16   6 C        3.742    -0.046    21.483     6.613
    17   6 C        2.809     0.244    22.925     7.844
    18   8 O        0.857    -0.332    20.374     6.052
    19   6 C        3.754    -0.154    23.539     6.918
    20   1 H        0.925     0.084     1.940     2.178
    21   1 H        0.924     0.083     1.949     2.183
    22   1 H        0.924     0.080     1.978     2.200
    23   1 H        0.924     0.116     1.642     2.004
    24   1 H        0.924     0.111     1.687     2.031
    25   1 H        0.925     0.097     1.813     2.105
    26   1 H        0.925     0.089     1.887     2.148
    27   1 H        0.924     0.117     1.639     2.002
    28   1 H        0.926     0.071     2.079     2.255
    29   1 H        0.926     0.080     1.975     2.197
    30   1 H        0.926     0.079     1.989     2.205
    31   1 H        0.926     0.064     2.157     2.297
    32   1 H        0.924     0.097     1.815     2.107
    33   1 H        0.925     0.102     1.763     2.077
    34   1 H        0.925     0.083     1.952     2.185
    35   1 H        0.924     0.105     1.744     2.065
    36   1 H        0.925     0.103     1.761     2.075

Wiberg/Mayer (AO) data.
largest (>0.10) Wiberg bond orders for each atom

     #   Z sym  total        # sym  WBO       # sym  WBO       # sym  WBO
 ---------------------------------------------------------------------------
     1   6 C    3.902 --    20 H    0.980    21 H    0.976    22 H    0.975
                             2 O    0.937
     2   8 O    2.314 --     3 C    1.149     1 C    0.937     4 O    0.186
     3   6 C    3.934 --     4 O    1.795     2 O    1.149     5 C    0.925
     4   8 O    2.099 --     3 C    1.795     2 O    0.186
     5   6 C    3.952 --     6 N    0.995    23 H    0.949    24 H    0.943
                             3 C    0.925
     6   7 N    3.660 --     7 C    1.324    11 C    1.111     5 C    0.995
     7   6 C    3.955 --     6 N    1.324     9 N    1.320     8 C    1.050
     8   6 C    3.976 --     7 C    1.050    26 H    0.969    25 H    0.958
                            27 H    0.937
     9   7 N    3.651 --     7 C    1.320    10 C    1.107    16 C    0.994
    10   6 C    3.952 --    15 C    1.350    11 C    1.281     9 N    1.107
    11   6 C    3.952 --    12 C    1.348    10 C    1.281     6 N    1.111
    12   6 C    3.984 --    13 C    1.485    11 C    1.348    28 H    0.963
                            15 C    0.117
    13   6 C    3.983 --    12 C    1.485    14 C    1.387    29 H    0.966
    14   6 C    3.982 --    15 C    1.484    13 C    1.387    30 H    0.966
    15   6 C    3.985 --    14 C    1.484    10 C    1.350    31 H    0.962
                            12 C    0.117
    16   6 C    3.954 --     9 N    0.994    33 H    0.952    32 H    0.940
                            17 C    0.934
    17   6 C    3.921 --    18 O    1.882    19 C    1.029    16 C    0.934
    18   8 O    2.112 --    17 C    1.882
    19   6 C    3.983 --    17 C    1.029    36 H    0.968    34 H    0.967
                            35 H    0.933
    20   1 H    0.993 --     1 C    0.980
    21   1 H    0.993 --     1 C    0.976
    22   1 H    0.994 --     1 C    0.975
    23   1 H    0.986 --     5 C    0.949
    24   1 H    0.987 --     5 C    0.943
    25   1 H    0.989 --     8 C    0.958
    26   1 H    0.991 --     8 C    0.969
    27   1 H    0.982 --     8 C    0.937
    28   1 H    0.994 --    12 C    0.963
    29   1 H    0.993 --    13 C    0.966
    30   1 H    0.993 --    14 C    0.966
    31   1 H    0.995 --    15 C    0.962
    32   1 H    0.990 --    16 C    0.940
    33   1 H    0.989 --    16 C    0.952
    34   1 H    0.993 --    19 C    0.967
    35   1 H    0.989 --    19 C    0.933
    36   1 H    0.989 --    19 C    0.968
 ---------------------------------------------------------------------------

molecular dipole:
                 x           y           z       tot (Debye)
 q only:        3.859       8.262       4.364
   full:        3.991       8.394       4.216      25.942

           -------------------------------------------------
          | TOTAL ENERGY              -56.350002067672 Eh   |
          | GRADIENT NORM               0.000849604123 Eh/α |
          | HOMO-LUMO GAP               3.481695543004 eV   |
           -------------------------------------------------

 * finished run on 2024/12/20 at 06:48:23.931
