   * xtb version 6.7.1 (edcfbbe) compiled by 'conda@3ef47c1a292c' on 2024-11-25

   ID    Z sym.   atoms
    1    6 C      1, 2, 4-8
    2    7 N      3, 9
    3    1 H      10-16

          program call               : xtb C0566.xyz --opt --namespace C0566 --charge +1
          :  Hamiltonian                  GFN2-xTB          :
 * total energy  :   -24.0043631 Eh     change       -0.1184794E-09 Eh
 * total energy  :   -24.0111570 Eh     change       -0.6793831E-02 Eh
 * total energy  :   -24.0130498 Eh     change       -0.1892820E-02 Eh
 * total energy  :   -24.0132463 Eh     change       -0.1965058E-03 Eh
 * total energy  :   -24.0132974 Eh     change       -0.5109908E-04 Eh
 * total energy  :   -24.0133011 Eh     change       -0.3669587E-05 Eh
   *** GEOMETRY OPTIMIZATION CONVERGED AFTER 6 ITERATIONS ***

 final structure:
================
16
 xtb: 6.7.1 (edcfbbe)
C           -2.32788083827263        0.01564058868729        0.00348513617540
C           -1.53559592769565        1.11790561706333        0.00744172567769
N           -0.23344670349853        0.68303402436753        0.00527837239171
C            0.92242435820245        1.38920234284489        0.00750723303595
C            2.11164948527886        0.71974538579193        0.00452749415057
C            2.13649210739904       -0.68732742749760       -0.00078020929065
C            0.96326349622948       -1.40211282048163       -0.00306552105762
C           -0.23447718821458       -0.68537108078359        0.00008467545021
N           -1.52425640074952       -1.08578395149249       -0.00095914959561
H           -3.39715144362253       -0.05517149314512        0.00359088701090
H           -1.79556094753278        2.15659860941201        0.01151562833105
H            0.84216674819932        2.46504543293964        0.01165316793026
H            3.03543365785551        1.27446366815016        0.00631824098283
H            3.08305245070225       -1.20311402048374       -0.00311910786531
H            0.94962562857795       -2.47951053492637       -0.00717614626034
H           -1.83935848285863       -2.04449434044624       -0.00448242706705

          :  Hamiltonian                  GFN2-xTB          :
         :: total energy             -24.013301051481 Eh    ::
         :: gradient norm              0.000516518101 Eh/a0 ::
         :: HOMO-LUMO gap              3.586489266732 eV    ::
         :: SCC energy               -24.434052837003 Eh    ::
         :: -> dispersion             -0.012453525756 Eh    ::
         :: repulsion energy           0.420751785522 Eh    ::

    * Orbital Energies and Occupations

         #    Occupation            Energy/Eh            Energy/eV
      -------------------------------------------------------------
         1        2.0000           -0.9032477             -24.5786
       ...           ...                  ...                  ...
        10        2.0000           -0.7418339             -20.1863
        11        2.0000           -0.7269531             -19.7814
        12        2.0000           -0.7036214             -19.1465
        13        2.0000           -0.6924706             -18.8431
        14        2.0000           -0.6825675             -18.5736
        15        2.0000           -0.6807541             -18.5243
        16        2.0000           -0.6702284             -18.2378
        17        2.0000           -0.6622420             -18.0205
        18        2.0000           -0.6418764             -17.4663
        19        2.0000           -0.6248702             -17.0036
        20        2.0000           -0.6174489             -16.8016
        21        2.0000           -0.6011638             -16.3585
        22        2.0000           -0.5744231             -15.6308 (HOMO)
        23                         -0.4426220             -12.0444 (LUMO)
        24                         -0.4123471             -11.2205
        25                         -0.3701222             -10.0715
        26                         -0.2929529              -7.9717
        27                         -0.1734737              -4.7205
        28                         -0.1346302              -3.6635
        29                         -0.0712479              -1.9388
        30                         -0.0450814              -1.2267
        31                         -0.0262937              -0.7155
        32                         -0.0161470              -0.4394
        33                          0.0020563               0.0560
       ...                                ...                  ...
        43                          0.4770818              12.9821
      -------------------------------------------------------------
                  HL-Gap            0.1318011 Eh            3.5865 eV

     #   Z          covCN         q      C6AA      α(0)
     1   6 C        3.027     0.022    27.482     8.599
     2   6 C        3.012    -0.015    28.372     8.737
     3   7 N        2.874     0.091    19.657     6.585
     4   6 C        2.860     0.019    27.569     8.606
     5   6 C        2.914    -0.018    28.468     8.749
     6   6 C        2.926     0.001    28.009     8.679
     7   6 C        2.907    -0.036    28.887     8.813
     8   6 C        3.095     0.116    25.337     8.250
     9   7 N        2.802    -0.050    22.199     6.998
    10   1 H        0.926     0.116     1.642     2.004
    11   1 H        0.926     0.112     1.676     2.024
    12   1 H        0.926     0.106     1.727     2.055
    13   1 H        0.926     0.107     1.724     2.053
    14   1 H        0.926     0.104     1.746     2.066
    15   1 H        0.926     0.099     1.796     2.096
    16   1 H        0.860     0.224     0.993     1.561

Wiberg/Mayer (AO) data.
largest (>0.10) Wiberg bond orders for each atom

     #   Z sym  total        # sym  WBO       # sym  WBO       # sym  WBO
 ---------------------------------------------------------------------------
     1   6 C    3.952 --     2 C    1.620     9 N    1.225    10 H    0.959
     2   6 C    3.939 --     1 C    1.620     3 N    1.165    11 H    0.960
     3   7 N    3.745 --     4 C    1.209     8 C    1.186     2 C    1.165
     4   6 C    3.953 --     5 C    1.568     3 N    1.209    12 H    0.956
                             7 C    0.114
     5   6 C    3.983 --     4 C    1.568     6 C    1.321    13 H    0.959
     6   6 C    3.979 --     7 C    1.530     5 C    1.321    14 H    0.962
     7   6 C    3.982 --     6 C    1.530     8 C    1.303    15 H    0.959
                             4 C    0.114
     8   6 C    3.951 --     7 C    1.303     9 N    1.246     3 N    1.186
     9   7 N    3.615 --     8 C    1.246     1 C    1.225    16 H    0.924
    10   1 H    0.986 --     1 C    0.959
    11   1 H    0.987 --     2 C    0.960
    12   1 H    0.989 --     4 C    0.956
    13   1 H    0.988 --     5 C    0.959
    14   1 H    0.989 --     6 C    0.962
    15   1 H    0.990 --     7 C    0.959
    16   1 H    0.950 --     9 N    0.924
 ---------------------------------------------------------------------------

molecular dipole:
                 x           y           z       tot (Debye)
 q only:       -0.442      -0.207       0.004
   full:       -0.572      -0.317       0.004       1.662

           -------------------------------------------------
          | TOTAL ENERGY              -24.013301051481 Eh   |
          | GRADIENT NORM               0.000516518101 Eh/α |
          | HOMO-LUMO GAP               3.586489266732 eV   |
           -------------------------------------------------

 * finished run on 2024/12/20 at 06:48:47.869
