   * xtb version 6.7.1 (edcfbbe) compiled by 'conda@3ef47c1a292c' on 2024-11-25

   ID    Z sym.   atoms
    1    8 O      1, 10, 11
    2    6 C      2-8, 12, 14, 15, 17-22, 24-30
    3    7 N      9, 13, 16, 23
    4    1 H      31-51

          program call               : xtb C0563.xyz --opt --namespace C0563 --charge +1
          :  Hamiltonian                  GFN2-xTB          :
 * total energy  :   -83.3259394 Eh     change       -0.4964704E-09 Eh
 * total energy  :   -83.3413913 Eh     change       -0.1545190E-01 Eh
 * total energy  :   -83.3453010 Eh     change       -0.3909666E-02 Eh
 * total energy  :   -83.3458219 Eh     change       -0.5209744E-03 Eh
 * total energy  :   -83.3467576 Eh     change       -0.9356974E-03 Eh
 * total energy  :   -83.3472928 Eh     change       -0.5351736E-03 Eh
 * total energy  :   -83.3479067 Eh     change       -0.6138957E-03 Eh
 * total energy  :   -83.3484152 Eh     change       -0.5085325E-03 Eh
 * total energy  :   -83.3488273 Eh     change       -0.4120432E-03 Eh
 * total energy  :   -83.3491497 Eh     change       -0.3224625E-03 Eh
 * total energy  :   -83.3629239 Eh     change       -0.8414235E-05 Eh
 * total energy  :   -83.3629309 Eh     change       -0.6985645E-05 Eh
 * total energy  :   -83.3629359 Eh     change       -0.5044617E-05 Eh
 * total energy  :   -83.3629409 Eh     change       -0.5006342E-05 Eh
 * total energy  :   -83.3629464 Eh     change       -0.5537678E-05 Eh
 * total energy  :   -83.3629521 Eh     change       -0.5669405E-05 Eh
 * total energy  :   -83.3629577 Eh     change       -0.5576839E-05 Eh
 * total energy  :   -83.3629630 Eh     change       -0.5275028E-05 Eh
 * total energy  :   -83.3629643 Eh     change       -0.1310062E-05 Eh
   *** GEOMETRY OPTIMIZATION CONVERGED AFTER 122 ITERATIONS ***

 final structure:
================
51
 xtb: 6.7.1 (edcfbbe)
O            3.58450842480049       -2.07086987642892       -1.64675924150695
C            3.62332100362881       -1.23638014057127       -0.77412817209578
C            3.58405914356736       -1.55581992327647        0.66106745333618
C            3.81406703656179       -0.60940054733239        1.66480607999338
C            3.76562567394916       -0.98796368639362        2.99152971130685
C            3.48236497193943       -2.30885599237941        3.31486093720316
C            3.25362741433760       -3.26429929581754        2.33444138809482
C            3.30898953195063       -2.88372977859889        1.00958757025401
N            3.42695754173633       -2.69941882162425        4.71988945910752
O            3.65464751701486       -1.83926952049755        5.53503153110145
O            3.15718574053419       -3.85082408121429        4.95656206688067
C            3.72394526621057        0.25304624898017       -1.17261712389968
N            3.50172934691492        0.36235819888365       -2.58791196556875
C            4.33186710396538       -0.11528221934196       -3.52782362660040
C            5.72765957197953       -0.54416507854394       -3.33473739136713
N            3.71983784609314       -0.10403840428360       -4.71632027781300
C            2.43265314385080        0.37924988846679       -4.55460053151082
C            2.29263252515292        0.67009139094655       -3.18786658974872
C            1.09948982059028        1.16865708282497       -2.68363651217688
C            0.07063655902470        1.36414471850295       -3.58340058882541
C            0.21641353036232        1.08071664528943       -4.94269567762803
C            1.39848638585633        0.58835830298565       -5.45560228565889
N            4.30036169065270       -0.60271891216877       -5.86615013522752
C            4.11895578981237       -2.06225744809977       -5.99979093780862
C            2.66279398182251       -2.44330090179337       -6.00061280691055
C            1.93208278718756       -2.42065848495019       -7.18260838033567
C            0.57259760227668       -2.67788575814865       -7.16884412020331
C           -0.06945691494674       -2.94802081994074       -5.97176662567466
C            0.65289165166275       -2.97411446787238       -4.79090215441838
C            2.01368403760342       -2.72294269578125       -4.80314501765216
H            4.04407133219362        0.41602017425847        1.42438706546383
H            3.94306349360873       -0.27926695448283        3.78648159672026
H            3.03972359100197       -4.28207573737011        2.62373034780685
H            3.13760138324091       -3.60160164086219        0.22214533955075
H            2.97381444803855        0.84362329394541       -0.64707326784869
H            4.72009980345138        0.62334558884986       -0.91374227759703
H            5.76948986138451       -1.53809552039346       -2.88786973045407
H            6.22475965314498       -0.57568503107952       -4.30184229512712
H            6.25714844600688        0.14288409143466       -2.67693787902402
H            0.96892284047702        1.39704880609063       -1.63839811410614
H           -0.87240125704146        1.74706122630804       -3.22773188393889
H           -0.61609238021328        1.25036558623720       -5.60597141651424
H            1.50208827490083        0.36411689219265       -6.50472319720752
H            3.89972741604839       -0.12753482698708       -6.67228944145216
H            4.60870467173041       -2.34040005385205       -6.93288178176061
H            4.64395377325462       -2.53667058448532       -5.16870280924652
H            2.43286743048772       -2.21319224997159       -8.11811319690958
H            0.01515647648418       -2.66924378427057       -8.09273288747631
H           -1.12955933295581       -3.14792947217728       -5.96116666855865
H            0.15762529409607       -3.19532302748600       -3.85779158958156
H            2.57462905455567       -2.75834239767575       -3.87938194729018

          :  Hamiltonian                  GFN2-xTB          :
         :: total energy             -83.362964279690 Eh    ::
         :: gradient norm              0.000154604936 Eh/a0 ::
         :: HOMO-LUMO gap              1.827380900528 eV    ::
         :: SCC energy               -84.618612689876 Eh    ::
         :: -> dispersion             -0.062811902321 Eh    ::
         :: repulsion energy           1.255648410186 Eh    ::

    * Orbital Energies and Occupations

         #    Occupation            Energy/Eh            Energy/eV
      -------------------------------------------------------------
         1        2.0000           -0.8724872             -23.7416
       ...           ...                  ...                  ...
        63        2.0000           -0.5572580             -15.1638
        64        2.0000           -0.5564497             -15.1418
        65        2.0000           -0.5504348             -14.9781
        66        2.0000           -0.5489626             -14.9380
        67        2.0000           -0.5472608             -14.8917
        68        2.0000           -0.5430952             -14.7784
        69        2.0000           -0.5378131             -14.6346
        70        2.0000           -0.5344703             -14.5437
        71        2.0000           -0.5260365             -14.3142
        72        2.0000           -0.5221175             -14.2075
        73        2.0000           -0.5148352             -14.0094
        74        2.0000           -0.5061347             -13.7726
        75        2.0000           -0.5031239             -13.6907 (HOMO)
        76                         -0.4359689             -11.8633 (LUMO)
        77                         -0.4035332             -10.9807
        78                         -0.3912123             -10.6454
        79                         -0.3659140              -9.9570
        80                         -0.3591693              -9.7735
        81                         -0.3515561              -9.5663
        82                         -0.3286392              -8.9427
        83                         -0.3246793              -8.8350
        84                         -0.3204323              -8.7194
        85                         -0.2338304              -6.3628
        86                         -0.2230206              -6.0687
       ...                                ...                  ...
       141                          0.5624082              15.3039
      -------------------------------------------------------------
                  HL-Gap            0.0671550 Eh            1.8274 eV

     #   Z          covCN         q      C6AA      α(0)
     1   8 O        0.857    -0.348    20.670     6.096
     2   6 C        2.823     0.231    23.168     7.887
     3   6 C        2.970    -0.009    28.236     8.716
     4   6 C        2.920    -0.024    28.600     8.770
     5   6 C        2.916    -0.016    28.401     8.739
     6   6 C        2.917     0.020    27.566     8.610
     7   6 C        2.915    -0.014    28.358     8.732
     8   6 C        2.928    -0.007    28.197     8.708
     9   7 N        2.758     0.555    13.422     5.441
    10   8 O        0.929    -0.358    20.826     6.120
    11   8 O        0.929    -0.355    20.765     6.111
    12   6 C        3.742    -0.040    21.361     6.594
    13   7 N        2.832     0.012    21.039     6.812
    14   6 C        3.066     0.125    25.191     8.230
    15   6 C        3.755    -0.135    23.152     6.861
    16   7 N        2.913     0.088    19.719     6.595
    17   6 C        3.087     0.029    27.247     8.556
    18   6 C        3.095     0.039    27.016     8.519
    19   6 C        2.910    -0.034    28.858     8.809
    20   6 C        2.926    -0.019    28.493     8.754
    21   6 C        2.927    -0.020    28.509     8.756
    22   6 C        2.909    -0.031    28.763     8.794
    23   7 N        2.755    -0.179    24.878     7.408
    24   6 C        3.747    -0.014    20.895     6.520
    25   6 C        2.970    -0.008    28.213     8.713
    26   6 C        2.923    -0.038    28.957     8.825
    27   6 C        2.919    -0.026    28.661     8.779
    28   6 C        2.920    -0.026    28.656     8.778
    29   6 C        2.919    -0.028    28.711     8.787
    30   6 C        2.923    -0.043    29.068     8.842
    31   1 H        0.926     0.060     2.198     2.318
    32   1 H        0.926     0.102     1.770     2.081
    33   1 H        0.926     0.105     1.741     2.063
    34   1 H        0.926     0.089     1.888     2.149
    35   1 H        0.925     0.100     1.787     2.091
    36   1 H        0.924     0.097     1.810     2.104
    37   1 H        0.924     0.111     1.690     2.033
    38   1 H        0.925     0.107     1.718     2.050
    39   1 H        0.925     0.090     1.880     2.144
    40   1 H        0.926     0.062     2.174     2.306
    41   1 H        0.926     0.078     2.005     2.214
    42   1 H        0.926     0.077     2.009     2.217
    43   1 H        0.926     0.065     2.141     2.288
    44   1 H        0.860     0.180     1.213     1.725
    45   1 H        0.925     0.076     2.022     2.224
    46   1 H        0.924     0.063     2.159     2.298
    47   1 H        0.926     0.037     2.487     2.466
    48   1 H        0.926     0.049     2.337     2.391
    49   1 H        0.926     0.048     2.344     2.394
    50   1 H        0.926     0.040     2.451     2.448
    51   1 H        0.925     0.038     2.475     2.460

Wiberg/Mayer (AO) data.
largest (>0.10) Wiberg bond orders for each atom

     #   Z sym  total        # sym  WBO       # sym  WBO       # sym  WBO
 ---------------------------------------------------------------------------
     1   8 O    2.088 --     2 C    1.826
     2   6 C    3.927 --     1 O    1.826     3 C    1.052    12 C    0.940
     3   6 C    3.986 --     4 C    1.366     8 C    1.364     2 C    1.052
     4   6 C    3.990 --     5 C    1.465     3 C    1.366    31 H    0.965
                             7 C    0.104
     5   6 C    3.982 --     4 C    1.465     6 C    1.386    32 H    0.956
                             8 C    0.103
     6   6 C    3.971 --     7 C    1.393     5 C    1.386     9 N    0.936
     7   6 C    3.980 --     8 C    1.456     6 C    1.393    33 H    0.955
                             4 C    0.104
     8   6 C    3.981 --     7 C    1.456     3 C    1.364    34 H    0.961
                             5 C    0.103
     9   7 N    3.916 --    11 O    1.473    10 O    1.470     6 C    0.936
    10   8 O    1.962 --     9 N    1.470    11 O    0.385
    11   8 O    1.966 --     9 N    1.473    10 O    0.385
    12   6 C    3.956 --    13 N    0.994    35 H    0.951     2 C    0.940
                            36 H    0.940
    13   7 N    3.642 --    14 C    1.302    18 C    1.110    12 C    0.994
    14   6 C    3.952 --    16 N    1.322    13 N    1.302    15 C    1.051
    15   6 C    3.974 --    14 C    1.051    38 H    0.966    39 H    0.957
                            37 H    0.939
    16   7 N    3.678 --    14 C    1.322    17 C    1.102    23 N    1.022
    17   6 C    3.956 --    22 C    1.348    18 C    1.277    16 N    1.102
    18   6 C    3.952 --    19 C    1.349    17 C    1.277    13 N    1.110
    19   6 C    3.986 --    20 C    1.485    18 C    1.349    40 H    0.963
                            22 C    0.117
    20   6 C    3.984 --    19 C    1.485    21 C    1.386    41 H    0.966
    21   6 C    3.985 --    22 C    1.486    20 C    1.386    42 H    0.966
    22   6 C    3.985 --    21 C    1.486    17 C    1.348    43 H    0.962
                            19 C    0.117
    23   7 N    3.076 --    16 N    1.022    24 C    0.953    44 H    0.939
    24   6 C    3.958 --    25 C    1.004    46 H    0.969    45 H    0.963
                            23 N    0.953
    25   6 C    3.987 --    30 C    1.412    26 C    1.412    24 C    1.004
                            28 C    0.109
    26   6 C    3.991 --    27 C    1.445    25 C    1.412    47 H    0.969
                            29 C    0.111
    27   6 C    3.991 --    26 C    1.445    28 C    1.437    48 H    0.970
                            30 C    0.111
    28   6 C    3.990 --    29 C    1.440    27 C    1.437    49 H    0.970
                            25 C    0.109
    29   6 C    3.992 --    30 C    1.443    28 C    1.440    50 H    0.971
                            26 C    0.111
    30   6 C    3.991 --    29 C    1.443    25 C    1.412    51 H    0.967
                            27 C    0.111
    31   1 H    0.996 --     4 C    0.965
    32   1 H    0.989 --     5 C    0.956
    33   1 H    0.988 --     7 C    0.955
    34   1 H    0.992 --     8 C    0.961
    35   1 H    0.990 --    12 C    0.951
    36   1 H    0.989 --    12 C    0.940
    37   1 H    0.983 --    15 C    0.939
    38   1 H    0.988 --    15 C    0.966
    39   1 H    0.990 --    15 C    0.957
    40   1 H    0.995 --    19 C    0.963
    41   1 H    0.994 --    20 C    0.966
    42   1 H    0.994 --    21 C    0.966
    43   1 H    0.995 --    22 C    0.962
    44   1 H    0.967 --    23 N    0.939
    45   1 H    0.993 --    24 C    0.963
    46   1 H    0.996 --    24 C    0.969
    47   1 H    0.999 --    26 C    0.969
    48   1 H    0.997 --    27 C    0.970
    49   1 H    0.997 --    28 C    0.970
    50   1 H    0.998 --    29 C    0.971
    51   1 H    0.999 --    30 C    0.967
 ---------------------------------------------------------------------------

molecular dipole:
                 x           y           z       tot (Debye)
 q only:        6.242       0.257      -7.216
   full:        6.072       0.391      -7.244      24.046

           -------------------------------------------------
          | TOTAL ENERGY              -83.362964279690 Eh   |
          | GRADIENT NORM               0.000154604936 Eh/α |
          | HOMO-LUMO GAP               1.827380900528 eV   |
           -------------------------------------------------

 * finished run on 2024/12/20 at 06:48:45.584
