   * xtb version 6.7.1 (edcfbbe) compiled by 'conda@3ef47c1a292c' on 2024-11-25

   ID    Z sym.   atoms
    1    6 C      1-14
    2    7 N      15
    3    1 H      16-47

          program call               : xtb C0567.xyz --opt --namespace C0567 --charge +1
          :  Hamiltonian                  GFN2-xTB          :
 * total energy  :   -48.8052992 Eh     change       -0.1160032E-09 Eh
 * total energy  :   -48.8071786 Eh     change       -0.1879362E-02 Eh
 * total energy  :   -48.8075515 Eh     change       -0.3729158E-03 Eh
 * total energy  :   -48.8076709 Eh     change       -0.1194632E-03 Eh
 * total energy  :   -48.8077914 Eh     change       -0.1204996E-03 Eh
 * total energy  :   -48.8078841 Eh     change       -0.9264768E-04 Eh
 * total energy  :   -48.8079521 Eh     change       -0.6800347E-04 Eh
 * total energy  :   -48.8079967 Eh     change       -0.4458062E-04 Eh
 * total energy  :   -48.8080243 Eh     change       -0.2766097E-04 Eh
 * total energy  :   -48.8080380 Eh     change       -0.1370365E-04 Eh
 * total energy  :   -48.8080676 Eh     change       -0.1374655E-04 Eh
 * total energy  :   -48.8080812 Eh     change       -0.1361682E-04 Eh
 * total energy  :   -48.8080940 Eh     change       -0.1277887E-04 Eh
 * total energy  :   -48.8081011 Eh     change       -0.7108734E-05 Eh
 * total energy  :   -48.8081066 Eh     change       -0.5538344E-05 Eh
 * total energy  :   -48.8081142 Eh     change       -0.7562452E-05 Eh
 * total energy  :   -48.8081261 Eh     change       -0.1188987E-04 Eh
 * total energy  :   -48.8081371 Eh     change       -0.1102469E-04 Eh
 * total energy  :   -48.8081420 Eh     change       -0.4954972E-05 Eh
   *** GEOMETRY OPTIMIZATION CONVERGED AFTER 20 ITERATIONS ***

 final structure:
================
47
 xtb: 6.7.1 (edcfbbe)
C            0.99454920001613       -0.31907900998610       -0.46077837108270
C            0.87540235576556       -1.46795340562613        0.53361938943012
C            1.22855553991889       -1.06491631372652        1.96620374495723
C            0.32707667177072        0.01111362427605        2.57527706676756
C           -1.15586998573492       -0.35611957447942        2.65652959442375
C           -1.46763325246325       -1.60982074177320        3.47631557662499
C           -0.99953803297329       -1.56251400309750        4.93236117161761
C           -1.56756774671792       -0.40470954969092        5.75572560967339
C           -3.09419601621821       -0.36903358874373        5.85220431161623
C           -3.73151078816367       -1.61822537988637        6.46452295052657
C           -3.25974534555563       -1.94913501524925        7.88299411833437
C           -3.49848386080855       -0.83702458387033        8.90919571026187
C           -4.95790425517542       -0.39148755840495        9.05292564037008
C           -5.92170760456204       -1.52963916883541        9.35835023164690
N           -5.49370827620356       -2.23398464963477       10.60691778224793
H            0.24931043994562        0.44835812600808       -0.26724777415193
H            0.84767416706235       -0.68277577397139       -1.47505852434104
H            1.98118191963160        0.13519333457519       -0.40034916610447
H           -0.13644019014760       -1.87602446755599        0.49931993882850
H            1.55669774806447       -2.26685932130875        0.23089394564404
H            1.20637590102046       -1.95688106025394        2.59626910707131
H            2.25458831569574       -0.68853211808652        1.97667567449615
H            0.69891524925223        0.24143725323360        3.57637224375150
H            0.41755467804045        0.92542596628443        1.98618813688321
H           -1.69690130406818        0.49572873945243        3.07543512859959
H           -1.54153720928145       -0.50916325708764        1.64712575604561
H           -2.54675853824406       -1.77983762926875        3.44570092374435
H           -0.99810025924530       -2.47224517796892        3.00012233440153
H           -1.25866095885725       -2.51224769126965        5.40733602489059
H            0.08869413714246       -1.48651030633530        4.95313685939108
H           -1.13577499553890       -0.45028995336771        6.75879110278910
H           -1.23918056285266        0.53729993880218        5.31502407515854
H           -3.38362770642387        0.51381539498477        6.42756661512681
H           -3.50848305901655       -0.24202378226530        4.85157808085100
H           -4.81737080332758       -1.49274635948379        6.45171751607462
H           -3.50498754565317       -2.47564860154981        5.83019431893574
H           -3.74077406756691       -2.88093088883661        8.19913687018662
H           -2.18848566303480       -2.14840982981927        7.85505165767232
H           -3.09241293394334       -1.14779643450126        9.87816235467416
H           -2.92013380119097        0.03604028260189        8.60977941746897
H           -5.02542476877431        0.36923466337441        9.83308522676080
H           -5.28202044675018        0.07389236337398        8.12329277290259
H           -6.93444429240459       -1.15085643024463        9.49765236397019
H           -5.92608253660283       -2.25370764151359        8.54373531597484
H           -5.51998934616495       -1.58445682812325       11.40335340370833
H           -6.08675484184465       -3.04566026418735       10.81330476126186
H           -4.51835532781647       -2.54158332696501       10.47362900991778

          :  Hamiltonian                  GFN2-xTB          :
         :: total energy             -48.808142034525 Eh    ::
         :: gradient norm              0.000472894015 Eh/a0 ::
         :: HOMO-LUMO gap              5.599655092076 eV    ::
         :: SCC energy               -49.524101849240 Eh    ::
         :: -> dispersion             -0.035640113030 Eh    ::
         :: repulsion energy           0.715959814714 Eh    ::

    * Orbital Energies and Occupations

         #    Occupation            Energy/Eh            Energy/eV
      -------------------------------------------------------------
         1        2.0000           -0.8914450             -24.2575
       ...           ...                  ...                  ...
        34        2.0000           -0.5364087             -14.5964
        35        2.0000           -0.5310257             -14.4499
        36        2.0000           -0.5238987             -14.2560
        37        2.0000           -0.5202794             -14.1575
        38        2.0000           -0.5110594             -13.9066
        39        2.0000           -0.5068469             -13.7920
        40        2.0000           -0.5007810             -13.6269
        41        2.0000           -0.4909999             -13.3608
        42        2.0000           -0.4876890             -13.2707
        43        2.0000           -0.4836792             -13.1616
        44        2.0000           -0.4705438             -12.8041
        45        2.0000           -0.4662079             -12.6862
        46        2.0000           -0.4641860             -12.6311 (HOMO)
        47                         -0.2584025              -7.0315 (LUMO)
        48                         -0.1563224              -4.2537
        49                         -0.0996035              -2.7104
        50                         -0.0972185              -2.6455
        51                         -0.0700870              -1.9072
        52                         -0.0540146              -1.4698
        53                         -0.0279788              -0.7613
        54                         -0.0217214              -0.5911
        55                         -0.0140093              -0.3812
        56                         -0.0030733              -0.0836
        57                          0.0027670               0.0753
       ...                                ...                  ...
        92                          0.2575914               7.0094
      -------------------------------------------------------------
                  HL-Gap            0.2057835 Eh            5.5997 eV

     #   Z          covCN         q      C6AA      α(0)
     1   6 C        3.751    -0.102    22.517     6.767
     2   6 C        3.799    -0.052    21.515     6.604
     3   6 C        3.800    -0.057    21.608     6.618
     4   6 C        3.800    -0.058    21.611     6.619
     5   6 C        3.800    -0.057    21.606     6.618
     6   6 C        3.800    -0.058    21.612     6.619
     7   6 C        3.800    -0.058    21.619     6.620
     8   6 C        3.800    -0.059    21.646     6.624
     9   6 C        3.800    -0.062    21.683     6.630
    10   6 C        3.800    -0.063    21.714     6.635
    11   6 C        3.799    -0.066    21.775     6.644
    12   6 C        3.800    -0.075    21.938     6.669
    13   6 C        3.802    -0.085    22.124     6.697
    14   6 C        3.730    -0.032    21.245     6.580
    15   7 N        3.483    -0.128    23.776     7.242
    16   1 H        0.925     0.034     2.534     2.489
    17   1 H        0.925     0.034     2.536     2.490
    18   1 H        0.925     0.035     2.513     2.479
    19   1 H        0.924     0.029     2.596     2.520
    20   1 H        0.924     0.029     2.606     2.525
    21   1 H        0.924     0.027     2.636     2.539
    22   1 H        0.924     0.031     2.576     2.510
    23   1 H        0.924     0.026     2.642     2.542
    24   1 H        0.924     0.035     2.519     2.482
    25   1 H        0.924     0.025     2.657     2.549
    26   1 H        0.924     0.035     2.511     2.478
    27   1 H        0.924     0.024     2.676     2.558
    28   1 H        0.924     0.036     2.501     2.473
    29   1 H        0.924     0.022     2.700     2.570
    30   1 H        0.924     0.038     2.471     2.458
    31   1 H        0.924     0.023     2.692     2.566
    32   1 H        0.924     0.042     2.418     2.432
    33   1 H        0.924     0.025     2.663     2.552
    34   1 H        0.924     0.046     2.373     2.409
    35   1 H        0.924     0.022     2.698     2.569
    36   1 H        0.924     0.050     2.325     2.384
    37   1 H        0.924     0.012     2.866     2.647
    38   1 H        0.925     0.058     2.223     2.332
    39   1 H        0.924     0.023     2.692     2.566
    40   1 H        0.925     0.076     2.017     2.221
    41   1 H        0.924     0.060     2.195     2.317
    42   1 H        0.925     0.095     1.831     2.116
    43   1 H        0.925     0.100     1.784     2.089
    44   1 H        0.925     0.111     1.692     2.034
    45   1 H        0.859     0.269     0.815     1.414
    46   1 H        0.859     0.265     0.828     1.426
    47   1 H        0.859     0.279     0.780     1.383

Wiberg/Mayer (AO) data.
largest (>0.10) Wiberg bond orders for each atom

     #   Z sym  total        # sym  WBO       # sym  WBO       # sym  WBO
 ---------------------------------------------------------------------------
     1   6 C    3.997 --     2 C    1.020    18 H    0.987    17 H    0.987
                            16 H    0.986
     2   6 C    3.998 --     1 C    1.020     3 C    1.008    20 H    0.978
                            19 H    0.976
     3   6 C    3.998 --     2 C    1.008     4 C    1.008    22 H    0.977
                            21 H    0.976
     4   6 C    3.997 --     5 C    1.008     3 C    1.008    23 H    0.975
                            24 H    0.975
     5   6 C    3.997 --     4 C    1.008     6 C    1.008    25 H    0.975
                            26 H    0.974
     6   6 C    3.997 --     5 C    1.008     7 C    1.008    27 H    0.975
                            28 H    0.974
     7   6 C    3.997 --     8 C    1.008     6 C    1.008    29 H    0.975
                            30 H    0.974
     8   6 C    3.996 --     7 C    1.008     9 C    1.008    31 H    0.975
                            32 H    0.973
     9   6 C    3.996 --     8 C    1.008    10 C    1.007    33 H    0.975
                            34 H    0.973
    10   6 C    3.995 --     9 C    1.007    11 C    1.006    35 H    0.975
                            36 H    0.973
    11   6 C    3.994 --    10 C    1.006    12 C    1.006    37 H    0.974
                            38 H    0.971
    12   6 C    3.990 --    11 C    1.006    13 C    1.004    39 H    0.970
                            40 H    0.967
    13   6 C    3.979 --    14 C    1.008    12 C    1.004    41 H    0.972
                            42 H    0.959
    14   6 C    3.888 --    13 C    1.008    43 H    0.969    44 H    0.963
                            15 N    0.922
    15   7 N    3.675 --    14 C    0.922    46 H    0.916    45 H    0.912
                            47 H    0.894
    16   1 H    0.999 --     1 C    0.986
    17   1 H    0.999 --     1 C    0.987
    18   1 H    0.999 --     1 C    0.987
    19   1 H    0.999 --     2 C    0.976
    20   1 H    0.999 --     2 C    0.978
    21   1 H    0.999 --     3 C    0.976
    22   1 H    0.999 --     3 C    0.977
    23   1 H    0.999 --     4 C    0.975
    24   1 H    0.999 --     4 C    0.975
    25   1 H    0.999 --     5 C    0.975
    26   1 H    0.999 --     5 C    0.974
    27   1 H    0.999 --     6 C    0.975
    28   1 H    0.999 --     6 C    0.974
    29   1 H    0.999 --     7 C    0.975
    30   1 H    0.999 --     7 C    0.974
    31   1 H    0.999 --     8 C    0.975
    32   1 H    0.998 --     8 C    0.973
    33   1 H    0.999 --     9 C    0.975
    34   1 H    0.998 --     9 C    0.973
    35   1 H    0.999 --    10 C    0.975
    36   1 H    0.998 --    10 C    0.973
    37   1 H    1.000 --    11 C    0.974
    38   1 H    0.997 --    11 C    0.971
    39   1 H    0.999 --    12 C    0.970
    40   1 H    0.994 --    12 C    0.967
    41   1 H    0.996 --    13 C    0.972
    42   1 H    0.991 --    13 C    0.959
    43   1 H    0.990 --    14 C    0.969
    44   1 H    0.988 --    14 C    0.963
    45   1 H    0.928 --    15 N    0.912
    46   1 H    0.930 --    15 N    0.916
    47   1 H    0.922 --    15 N    0.894
 ---------------------------------------------------------------------------

molecular dipole:
                 x           y           z       tot (Debye)
 q only:       -9.873      -3.632      18.879
   full:       -9.912      -3.787      19.150      55.648

           -------------------------------------------------
          | TOTAL ENERGY              -48.808142034525 Eh   |
          | GRADIENT NORM               0.000472894015 Eh/α |
          | HOMO-LUMO GAP               5.599655092076 eV   |
           -------------------------------------------------

 * finished run on 2024/12/20 at 06:48:49.150
