   * xtb version 6.7.1 (edcfbbe) compiled by 'conda@3ef47c1a292c' on 2024-11-25

   ID    Z sym.   atoms
    1    8 O      1, 34
    2    6 C      2, 4-15, 17-22, 24, 26-33, 35-40
    3    7 N      3, 16, 23, 25
    4    1 H      41-81

          program call               : xtb C0562.xyz --opt --namespace C0562 --charge +1
          :  Hamiltonian                  GFN2-xTB          :
 * total energy  :  -113.2430050 Eh     change       -0.7535235E-08 Eh
 * total energy  :  -113.2525932 Eh     change       -0.9588196E-02 Eh
 * total energy  :  -113.2551828 Eh     change       -0.2589552E-02 Eh
 * total energy  :  -113.2558650 Eh     change       -0.6822640E-03 Eh
 * total energy  :  -113.2564163 Eh     change       -0.5512735E-03 Eh
 * total energy  :  -113.2568017 Eh     change       -0.3853672E-03 Eh
 * total energy  :  -113.2571919 Eh     change       -0.3902042E-03 Eh
 * total energy  :  -113.2575459 Eh     change       -0.3539880E-03 Eh
 * total energy  :  -113.2578124 Eh     change       -0.2665465E-03 Eh
 * total energy  :  -113.2580253 Eh     change       -0.2128691E-03 Eh
 * total energy  :  -113.2642934 Eh     change       -0.1863980E-04 Eh
 * total energy  :  -113.2643052 Eh     change       -0.1187525E-04 Eh
 * total energy  :  -113.2643153 Eh     change       -0.1006190E-04 Eh
 * total energy  :  -113.2643261 Eh     change       -0.1080683E-04 Eh
 * total energy  :  -113.2643395 Eh     change       -0.1334317E-04 Eh
 * total energy  :  -113.2643555 Eh     change       -0.1602844E-04 Eh
 * total energy  :  -113.2643627 Eh     change       -0.7262695E-05 Eh
 * total energy  :  -113.2643714 Eh     change       -0.8629369E-05 Eh
 * total energy  :  -113.2643760 Eh     change       -0.4606239E-05 Eh
   *** GEOMETRY OPTIMIZATION CONVERGED AFTER 70 ITERATIONS ***

 final structure:
================
81
 xtb: 6.7.1 (edcfbbe)
O            0.99821011624235        1.40223083414926        2.17604835798819
C            0.74110786249128        0.84461349663566        1.14022015301113
N            1.68104489185882        0.28655073263492        0.28309252509568
C            3.10227148327305        0.29850730395807        0.54953728745070
C            3.48513175913188       -0.67633349143276        1.66541506025222
C            3.09607476924985       -2.12771781718596        1.38122401920395
C            3.71917070045635       -2.73338893921978        0.12149153059538
C            5.24798788493144       -2.72928156256647        0.08971950529788
C            5.91943898720639       -3.51359513494642        1.21960155043030
C            5.50520573005430       -4.98376441707272        1.32192839165102
C            5.68809256975333       -5.79939113095934        0.04039656800367
C            7.13833952012921       -5.93191346253641       -0.43047521181978
C            7.97984845450359       -6.88488102917486        0.42269672032411
C            7.67728355519865       -8.36344462758513        0.16430852733506
C            8.23688062935100       -8.87029446439231       -1.16980080817160
N            9.68043351240563       -8.98045680739908       -1.14930643461224
C           10.58835912113455       -8.04106573876030       -1.62518269190531
C           10.41100298531589       -6.81379815062644       -2.24225665002675
C           11.55093860079512       -6.11798060869727       -2.60135437353206
C           12.82400563966320       -6.62650052087040       -2.35705608168603
C           13.00879933405374       -7.85293419880247       -1.74483774662749
C           11.87169091779882       -8.55468254247888       -1.38153536547471
N           11.70000242179929       -9.78641272614862       -0.76171397234323
C           10.37983675850252      -10.00607711580367       -0.63606343178668
N            9.84823019287291      -11.12246035689579       -0.12515334115276
C           12.74704572075034      -10.70571816326656       -0.35650919661050
C           12.55457151605630      -11.18212004030122        1.06346606192018
C           12.50286841660467      -12.54124944503020        1.35408969508755
C           12.33470025565978      -12.96872048600967        2.66116723890156
C           12.20496525003669      -12.04260806467846        3.68223368584667
C           12.24855115711697      -10.68717566793407        3.39692535374906
C           12.42459418284190      -10.25698268659398        2.09391212014107
C            1.11561015763296       -0.28781906319982       -0.84373631283127
O            1.73433646246089       -0.82528579926557       -1.72965975060532
C           -0.34561979915375       -0.08391699777392       -0.70239669256512
C           -0.57257805655216        0.60083204519392        0.49534488973518
C           -1.84808596709832        0.94007432130770        0.89388217267745
C           -2.90273832393212        0.57590106098591        0.06135032767752
C           -2.67788432964523       -0.10256117384391       -1.12613661624000
C           -1.38967460179794       -0.44401976997247       -1.52800530877431
H            3.60251335104997        0.04521840706349       -0.38707791258017
H            3.38213034679810        1.31285443367585        0.84845599220279
H            4.56079033033714       -0.59856004725241        1.82702199446907
H            2.98858302502338       -0.35567195657410        2.58350705119500
H            3.36995552431289       -2.72830839358652        2.25123718881005
H            2.00881603462170       -2.18935708433070        1.28107561731308
H            3.35721159430050       -3.75948424278414        0.02837901474866
H            3.35597001171711       -2.19389319689747       -0.75428989408923
H            5.56956753713202       -3.13375108289889       -0.87255561405662
H            5.60795583260874       -1.69974386134131        0.13258315476748
H            7.00235410952146       -3.44739083100036        1.08690976589964
H            5.69043048519573       -3.03507132879872        2.17334951631361
H            6.07306050210500       -5.44304043192716        2.13490675498560
H            4.45241728746612       -5.03541516015792        1.60310062782961
H            5.26527397539581       -6.79371423973419        0.20313243626699
H            5.10793531712840       -5.33485876013504       -0.75688573645114
H            7.13178149079976       -6.27273915530201       -1.46864035177773
H            7.60536756726020       -4.94731522352880       -0.41914733307592
H            9.04159167148381       -6.69787698282793        0.24450592102261
H            7.78876620761941       -6.67222881805328        1.47450238908069
H            8.09153028266021       -8.96339058978849        0.97881630749666
H            6.59805351874567       -8.51556866957156        0.15746060495199
H            7.81736043685686       -9.84966908928528       -1.41665476873290
H            7.97201554029628       -8.18377012315171       -1.97398511232828
H            9.43192362828090       -6.40743042465281       -2.43212540998990
H           11.45102386534868       -5.15826256781777       -3.08206335899904
H           13.68659955564391       -6.05179507486047       -2.65331213362323
H           13.99958398114850       -8.23691484481817       -1.56535805978570
H            8.86019747428054      -11.16886923228821        0.05472191100430
H           10.45124925772046      -11.76086142010077        0.37506649216108
H           12.77062945243151      -11.55675396930466       -1.04576012593399
H           13.69501865177611      -10.17079145990449       -0.44263448159794
H           12.61619230721015      -13.26681930532987        0.56061081130552
H           12.30908414930249      -14.02484646249663        2.87914651730259
H           12.07719883633361      -12.37606378337370        4.69984951964293
H           12.15556648647242       -9.96348222163174        4.19169379033344
H           12.47222416874408       -9.19983287777225        1.87443880793248
H           -2.01554520220068        1.47033259488963        1.81816074535720
H           -3.91330777086109        0.82819889612194        0.34510576977734
H           -3.51635036707102       -0.36933045031417       -1.75174193933087
H           -1.20761089417133       -0.96967856119143       -2.45237822537482

          :  Hamiltonian                  GFN2-xTB          :
         :: total energy            -113.264375983222 Eh    ::
         :: gradient norm              0.000859696135 Eh/a0 ::
         :: HOMO-LUMO gap              2.070725382601 eV    ::
         :: SCC energy              -115.042360913605 Eh    ::
         :: -> dispersion             -0.089054322247 Eh    ::
         :: repulsion energy           1.777984930382 Eh    ::

    * Orbital Energies and Occupations

         #    Occupation            Energy/Eh            Energy/eV
      -------------------------------------------------------------
         1        2.0000           -0.8669158             -23.5900
       ...           ...                  ...                  ...
        92        2.0000           -0.5072274             -13.8024
        93        2.0000           -0.4981211             -13.5546
        94        2.0000           -0.4966101             -13.5134
        95        2.0000           -0.4946656             -13.4605
        96        2.0000           -0.4902424             -13.3402
        97        2.0000           -0.4775831             -12.9957
        98        2.0000           -0.4755488             -12.9403
        99        2.0000           -0.4746066             -12.9147
       100        2.0000           -0.4713317             -12.8256
       101        2.0000           -0.4708599             -12.8128
       102        2.0000           -0.4603628             -12.5271
       103        2.0000           -0.4591799             -12.4949
       104        2.0000           -0.4511344             -12.2760 (HOMO)
       105                         -0.3750367             -10.2053 (LUMO)
       106                         -0.3502637              -9.5312
       107                         -0.3449649              -9.3870
       108                         -0.3427751              -9.3274
       109                         -0.3396092              -9.2412
       110                         -0.3300298              -8.9806
       111                         -0.3030618              -8.2467
       112                         -0.2519310              -6.8554
       113                         -0.2174666              -5.9176
       114                         -0.2152494              -5.8572
       115                         -0.2142885              -5.8311
       ...                                ...                  ...
       201                          0.7023225              19.1112
      -------------------------------------------------------------
                  HL-Gap            0.0760978 Eh            2.0707 eV

     #   Z          covCN         q      C6AA      α(0)
     1   8 O        0.857    -0.369    21.078     6.155
     2   6 C        2.833     0.277    22.326     7.743
     3   7 N        2.790    -0.106    23.323     7.173
     4   6 C        3.740     0.007    20.529     6.465
     5   6 C        3.801    -0.063    21.718     6.635
     6   6 C        3.800    -0.053    21.534     6.607
     7   6 C        3.800    -0.065    21.744     6.639
     8   6 C        3.800    -0.059    21.629     6.622
     9   6 C        3.800    -0.058    21.626     6.621
    10   6 C        3.800    -0.059    21.631     6.622
    11   6 C        3.800    -0.062    21.683     6.630
    12   6 C        3.800    -0.061    21.680     6.629
    13   6 C        3.801    -0.064    21.724     6.636
    14   6 C        3.801    -0.068    21.800     6.648
    15   6 C        3.739    -0.015    20.919     6.526
    16   7 N        2.818    -0.028    21.775     6.931
    17   6 C        3.089     0.039    27.020     8.520
    18   6 C        2.910    -0.037    28.917     8.818
    19   6 C        2.926    -0.024    28.607     8.771
    20   6 C        2.926    -0.024    28.592     8.769
    21   6 C        2.910    -0.037    28.925     8.819
    22   6 C        3.087     0.037    27.080     8.530
    23   7 N        2.821    -0.029    21.805     6.935
    24   6 C        3.000     0.196    23.823     8.007
    25   7 N        2.638    -0.250    26.507     7.646
    26   6 C        3.745    -0.018    20.966     6.532
    27   6 C        2.970    -0.008    28.213     8.713
    28   6 C        2.922    -0.045    29.111     8.848
    29   6 C        2.918    -0.025    28.620     8.773
    30   6 C        2.920    -0.023    28.572     8.766
    31   6 C        2.919    -0.024    28.599     8.770
    32   6 C        2.922    -0.038    28.954     8.824
    33   6 C        2.833     0.277    22.328     7.743
    34   8 O        0.857    -0.385    21.378     6.199
    35   6 C        3.044    -0.025    28.577     8.768
    36   6 C        3.044    -0.024    28.565     8.766
    37   6 C        2.913    -0.012    28.310     8.725
    38   6 C        2.923    -0.019    28.488     8.753
    39   6 C        2.923    -0.020    28.503     8.755
    40   6 C        2.913    -0.013    28.329     8.728
    41   1 H        0.924     0.069     2.094     2.263
    42   1 H        0.924     0.058     2.220     2.330
    43   1 H        0.924     0.044     2.394     2.419
    44   1 H        0.924     0.052     2.294     2.368
    45   1 H        0.924     0.033     2.540     2.492
    46   1 H        0.924     0.024     2.671     2.556
    47   1 H        0.924     0.029     2.595     2.519
    48   1 H        0.924     0.055     2.264     2.353
    49   1 H        0.924     0.029     2.607     2.525
    50   1 H        0.924     0.033     2.545     2.495
    51   1 H        0.924     0.023     2.682     2.561
    52   1 H        0.924     0.036     2.501     2.473
    53   1 H        0.924     0.024     2.669     2.555
    54   1 H        0.924     0.039     2.457     2.451
    55   1 H        0.924     0.026     2.651     2.546
    56   1 H        0.925     0.046     2.373     2.409
    57   1 H        0.924     0.022     2.701     2.570
    58   1 H        0.925     0.047     2.356     2.401
    59   1 H        0.924     0.028     2.619     2.531
    60   1 H        0.925     0.054     2.275     2.359
    61   1 H        0.924     0.033     2.540     2.492
    62   1 H        0.925     0.066     2.132     2.283
    63   1 H        0.924     0.060     2.201     2.320
    64   1 H        0.925     0.087     1.905     2.159
    65   1 H        0.926     0.068     2.106     2.270
    66   1 H        0.926     0.072     2.060     2.244
    67   1 H        0.926     0.072     2.063     2.246
    68   1 H        0.926     0.061     2.182     2.310
    69   1 H        0.860     0.216     1.027     1.587
    70   1 H        0.860     0.223     0.996     1.564
    71   1 H        0.924     0.071     2.076     2.253
    72   1 H        0.924     0.089     1.887     2.148
    73   1 H        0.926     0.042     2.428     2.437
    74   1 H        0.926     0.056     2.246     2.344
    75   1 H        0.926     0.058     2.225     2.333
    76   1 H        0.926     0.054     2.271     2.357
    77   1 H        0.926     0.037     2.495     2.470
    78   1 H        0.926     0.065     2.141     2.288
    79   1 H        0.926     0.056     2.247     2.344
    80   1 H        0.926     0.055     2.260     2.351
    81   1 H        0.926     0.062     2.175     2.306

Wiberg/Mayer (AO) data.
largest (>0.10) Wiberg bond orders for each atom

     #   Z sym  total        # sym  WBO       # sym  WBO       # sym  WBO
 ---------------------------------------------------------------------------
     1   8 O    2.077 --     2 C    1.751     3 N    0.130
     2   6 C    3.945 --     1 O    1.751     3 N    1.108    36 C    0.991
     3   7 N    3.562 --    33 C    1.122     2 C    1.108     4 C    0.974
                            34 O    0.134     1 O    0.130
     4   6 C    3.958 --     5 C    0.995     3 N    0.974    42 H    0.967
                            41 H    0.966
     5   6 C    3.992 --     6 C    1.008     4 C    0.995    44 H    0.975
                            43 H    0.971
     6   6 C    3.997 --     5 C    1.008     7 C    1.007    46 H    0.977
                            45 H    0.974
     7   6 C    3.995 --     8 C    1.008     6 C    1.007    47 H    0.974
                            48 H    0.968
     8   6 C    3.997 --     7 C    1.008     9 C    1.007    49 H    0.975
                            50 H    0.974
     9   6 C    3.997 --    10 C    1.007     8 C    1.007    51 H    0.975
                            52 H    0.975
    10   6 C    3.997 --    11 C    1.008     9 C    1.007    54 H    0.974
                            53 H    0.974
    11   6 C    3.996 --    10 C    1.008    12 C    1.007    55 H    0.973
                            56 H    0.973
    12   6 C    3.996 --    13 C    1.007    11 C    1.007    58 H    0.972
                            57 H    0.972
    13   6 C    3.993 --    12 C    1.007    14 C    1.007    59 H    0.976
                            60 H    0.970
    14   6 C    3.988 --    13 C    1.007    15 C    0.991    61 H    0.976
                            62 H    0.966
    15   6 C    3.945 --    14 C    0.991    16 N    0.969    63 H    0.965
                            64 H    0.959
    16   7 N    3.601 --    24 C    1.269    17 C    1.089    15 C    0.969
    17   6 C    3.950 --    18 C    1.365    22 C    1.285    16 N    1.089
    18   6 C    3.986 --    19 C    1.466    17 C    1.365    65 H    0.961
                            21 C    0.114
    19   6 C    3.982 --    18 C    1.466    20 C    1.406    66 H    0.967
    20   6 C    3.981 --    21 C    1.465    19 C    1.406    67 H    0.967
    21   6 C    3.986 --    20 C    1.465    22 C    1.367    68 H    0.963
                            18 C    0.114
    22   6 C    3.949 --    21 C    1.367    17 C    1.285    23 N    1.089
    23   7 N    3.597 --    24 C    1.265    22 C    1.089    26 C    0.964
    24   6 C    3.972 --    16 N    1.269    25 N    1.269    23 N    1.265
    25   7 N    3.352 --    24 C    1.269    69 H    0.929    70 H    0.908
    26   6 C    3.947 --    27 C    0.993    23 N    0.964    71 H    0.960
                            72 H    0.954
    27   6 C    3.983 --    32 C    1.407    28 C    1.407    26 C    0.993
                            30 C    0.109
    28   6 C    3.990 --    29 C    1.437    27 C    1.407    73 H    0.967
                            31 C    0.109
    29   6 C    3.990 --    30 C    1.443    28 C    1.437    74 H    0.969
                            32 C    0.112
    30   6 C    3.989 --    29 C    1.443    31 C    1.434    75 H    0.969
                            27 C    0.109
    31   6 C    3.991 --    32 C    1.449    30 C    1.434    76 H    0.969
                            28 C    0.109
    32   6 C    3.992 --    31 C    1.449    27 C    1.407    77 H    0.970
                            29 C    0.112
    33   6 C    3.945 --    34 O    1.729     3 N    1.122    35 C    0.994
    34   8 O    2.066 --    33 C    1.729     3 N    0.134
    35   6 C    3.988 --    40 C    1.435    36 C    1.325    33 C    0.994
                            38 C    0.103
    36   6 C    3.988 --    37 C    1.437    35 C    1.325     2 C    0.991
                            39 C    0.103
    37   6 C    3.987 --    36 C    1.437    38 C    1.409    78 H    0.966
    38   6 C    3.989 --    39 C    1.459    37 C    1.409    79 H    0.969
                            35 C    0.103
    39   6 C    3.989 --    38 C    1.459    40 C    1.409    80 H    0.969
                            36 C    0.103
    40   6 C    3.987 --    35 C    1.435    39 C    1.409    81 H    0.966
    41   1 H    0.995 --     4 C    0.966
    42   1 H    0.996 --     4 C    0.967
    43   1 H    0.997 --     5 C    0.971
    44   1 H    0.997 --     5 C    0.975
    45   1 H    0.999 --     6 C    0.974
    46   1 H    0.999 --     6 C    0.977
    47   1 H    0.999 --     7 C    0.974
    48   1 H    0.997 --     7 C    0.968
    49   1 H    0.999 --     8 C    0.975
    50   1 H    0.999 --     8 C    0.974
    51   1 H    0.999 --     9 C    0.975
    52   1 H    0.999 --     9 C    0.975
    53   1 H    0.999 --    10 C    0.974
    54   1 H    0.998 --    10 C    0.974
    55   1 H    0.999 --    11 C    0.973
    56   1 H    0.998 --    11 C    0.973
    57   1 H    0.999 --    12 C    0.972
    58   1 H    0.998 --    12 C    0.972
    59   1 H    0.999 --    13 C    0.976
    60   1 H    0.997 --    13 C    0.970
    61   1 H    0.999 --    14 C    0.976
    62   1 H    0.995 --    14 C    0.966
    63   1 H    0.996 --    15 C    0.965
    64   1 H    0.992 --    15 C    0.959
    65   1 H    0.995 --    18 C    0.961
    66   1 H    0.994 --    19 C    0.967
    67   1 H    0.994 --    20 C    0.967
    68   1 H    0.996 --    21 C    0.963
    69   1 H    0.953 --    25 N    0.929
    70   1 H    0.950 --    25 N    0.908
    71   1 H    0.994 --    26 C    0.960
    72   1 H    0.992 --    26 C    0.954
    73   1 H    0.998 --    28 C    0.967
    74   1 H    0.997 --    29 C    0.969
    75   1 H    0.996 --    30 C    0.969
    76   1 H    0.997 --    31 C    0.969
    77   1 H    0.999 --    32 C    0.970
    78   1 H    0.995 --    37 C    0.966
    79   1 H    0.996 --    38 C    0.969
    80   1 H    0.997 --    39 C    0.969
    81   1 H    0.996 --    40 C    0.966
 ---------------------------------------------------------------------------

molecular dipole:
                 x           y           z       tot (Debye)
 q only:       18.667     -17.916      -0.772
   full:       18.552     -18.105      -0.701      65.912

           -------------------------------------------------
          | TOTAL ENERGY             -113.264375983222 Eh   |
          | GRADIENT NORM               0.000859696135 Eh/α |
          | HOMO-LUMO GAP               2.070725382601 eV   |
           -------------------------------------------------

 * finished run on 2024/12/20 at 06:48:40.273
