   * xtb version 6.7.1 (edcfbbe) compiled by 'conda@3ef47c1a292c' on 2024-11-25

   ID    Z sym.   atoms
    1    6 C      1, 2, 4, 5, 7-9
    2    7 N      3, 6
    3    1 H      10-22

          program call               : xtb C0569.xyz --opt --namespace C0569 --charge +1
          :  Hamiltonian                  GFN2-xTB          :
 * total energy  :   -27.0951059 Eh     change       -0.1433268E-08 Eh
 * total energy  :   -27.0979157 Eh     change       -0.2809856E-02 Eh
 * total energy  :   -27.0985207 Eh     change       -0.6049854E-03 Eh
 * total energy  :   -27.0986311 Eh     change       -0.1103581E-03 Eh
 * total energy  :   -27.0986955 Eh     change       -0.6445897E-04 Eh
 * total energy  :   -27.0987175 Eh     change       -0.2197744E-04 Eh
 * total energy  :   -27.0987432 Eh     change       -0.2568778E-04 Eh
 * total energy  :   -27.0987704 Eh     change       -0.2715913E-04 Eh
 * total energy  :   -27.0987915 Eh     change       -0.2119731E-04 Eh
 * total energy  :   -27.0988113 Eh     change       -0.1974993E-04 Eh
 * total energy  :   -27.0988392 Eh     change       -0.2785678E-04 Eh
 * total energy  :   -27.0988655 Eh     change       -0.2639224E-04 Eh
 * total energy  :   -27.0988821 Eh     change       -0.1651309E-04 Eh
 * total energy  :   -27.0988956 Eh     change       -0.1356727E-04 Eh
 * total energy  :   -27.0989065 Eh     change       -0.1083631E-04 Eh
 * total energy  :   -27.0989153 Eh     change       -0.8841668E-05 Eh
 * total energy  :   -27.0989221 Eh     change       -0.6765682E-05 Eh
 * total energy  :   -27.0989257 Eh     change       -0.3657863E-05 Eh
   *** GEOMETRY OPTIMIZATION CONVERGED AFTER 18 ITERATIONS ***

 final structure:
================
22
 xtb: 6.7.1 (edcfbbe)
C            1.06599848174156       -0.07137275967619        0.01117989522626
C            0.57507558035966        0.38031120739152        1.38316582144600
N            0.98379227705881        1.74318741703188        1.64967155329509
C            2.20197686202339        2.12803169726615        2.11927758213383
C            2.20467514318249        3.48901551400805        2.17183459037931
N            0.98808716309736        3.91381430147505        1.73371735415490
C            0.26954817549604        2.84049973563266        1.41705201017583
C            0.58390226009915        5.29458674300554        1.57366270754104
C            1.03460756166985        5.83544236199363        0.22000997290311
H            0.65026029530603        0.55369716105018       -0.77518735739387
H            0.75127660384089       -1.09552554495154       -0.16359607614835
H            2.15070084127614       -0.03224538516170       -0.04586274872323
H           -0.51414184049177        0.33012020117226        1.43155995013291
H            0.99285870755892       -0.26054377894131        2.16214269284770
H            2.96551985999929        1.42628983184993        2.38636180404446
H            2.97121601345491        4.16501966028941        2.49158783563384
H           -0.73650091171290        2.85694888131362        1.04411842934777
H           -0.50284798543280        5.34988220953582        1.66113026026344
H            1.03296207962410        5.87736372286684        2.38040597862019
H            0.58082282569828        5.27435222898364       -0.59346185911626
H            0.73227863907776        6.87413246472613        0.12974873290409
H            2.11620136707285        5.78400212913854        0.12178087033198

          :  Hamiltonian                  GFN2-xTB          :
         :: total energy             -27.098925729386 Eh    ::
         :: gradient norm              0.000432319942 Eh/a0 ::
         :: HOMO-LUMO gap              4.866416121565 eV    ::
         :: SCC energy               -27.517167572341 Eh    ::
         :: -> dispersion             -0.014305799100 Eh    ::
         :: repulsion energy           0.418241842955 Eh    ::

    * Orbital Energies and Occupations

         #    Occupation            Energy/Eh            Energy/eV
      -------------------------------------------------------------
         1        2.0000           -0.8979333             -24.4340
       ...           ...                  ...                  ...
        13        2.0000           -0.6904642             -18.7885
        14        2.0000           -0.6795964             -18.4928
        15        2.0000           -0.6696611             -18.2224
        16        2.0000           -0.6659367             -18.1211
        17        2.0000           -0.6532942             -17.7770
        18        2.0000           -0.6530700             -17.7709
        19        2.0000           -0.6297428             -17.1362
        20        2.0000           -0.6060394             -16.4912
        21        2.0000           -0.6041635             -16.4401
        22        2.0000           -0.6007268             -16.3466
        23        2.0000           -0.5959991             -16.2180
        24        2.0000           -0.5932059             -16.1420
        25        2.0000           -0.5882854             -16.0081 (HOMO)
        26                         -0.4094479             -11.1416 (LUMO)
        27                         -0.3728296             -10.1452
        28                         -0.1888233              -5.1381
        29                         -0.1344978              -3.6599
        30                         -0.0613478              -1.6694
        31                         -0.0508067              -1.3825
        32                         -0.0395376              -1.0759
        33                         -0.0326331              -0.8880
        34                         -0.0284656              -0.7746
        35                         -0.0132782              -0.3613
        36                          0.0137185               0.3733
       ...                                ...                  ...
        49                          0.4611561              12.5487
      -------------------------------------------------------------
                  HL-Gap            0.1788375 Eh            4.8664 eV

     #   Z          covCN         q      C6AA      α(0)
     1   6 C        3.753    -0.125    22.948     6.831
     2   6 C        3.741    -0.023    21.058     6.547
     3   7 N        2.870     0.068    20.059     6.652
     4   6 C        3.074    -0.006    28.082     8.689
     5   6 C        3.074    -0.006    28.083     8.689
     6   7 N        2.870     0.068    20.060     6.652
     7   6 C        3.101     0.047    26.823     8.487
     8   6 C        3.741    -0.023    21.059     6.547
     9   6 C        3.753    -0.124    22.947     6.831
    10   1 H        0.925     0.063     2.160     2.298
    11   1 H        0.925     0.086     1.917     2.165
    12   1 H        0.925     0.068     2.110     2.272
    13   1 H        0.924     0.086     1.920     2.167
    14   1 H        0.924     0.093     1.848     2.126
    15   1 H        0.926     0.109     1.703     2.040
    16   1 H        0.926     0.109     1.703     2.041
    17   1 H        0.926     0.112     1.677     2.025
    18   1 H        0.924     0.086     1.918     2.166
    19   1 H        0.924     0.093     1.849     2.126
    20   1 H        0.925     0.063     2.161     2.299
    21   1 H        0.925     0.086     1.916     2.165
    22   1 H        0.925     0.068     2.112     2.273

Wiberg/Mayer (AO) data.
largest (>0.10) Wiberg bond orders for each atom

     #   Z sym  total        # sym  WBO       # sym  WBO       # sym  WBO
 ---------------------------------------------------------------------------
     1   6 C    3.980 --     2 C    1.000    10 H    0.985    12 H    0.984
                            11 H    0.976
     2   6 C    3.937 --     1 C    1.000    13 H    0.967     3 N    0.965
                            14 H    0.963
     3   7 N    3.718 --     7 C    1.364     4 C    1.231     2 C    0.965
     4   6 C    3.949 --     5 C    1.590     3 N    1.231    15 H    0.961
     5   6 C    3.950 --     4 C    1.590     6 N    1.231    16 H    0.961
     6   7 N    3.718 --     7 C    1.363     5 C    1.231     8 C    0.965
     7   6 C    3.948 --     3 N    1.364     6 N    1.363    17 H    0.954
     8   6 C    3.937 --     9 C    1.000    18 H    0.966     6 N    0.965
                            19 H    0.963
     9   6 C    3.980 --     8 C    1.000    20 H    0.985    22 H    0.984
                            21 H    0.976
    10   1 H    0.996 --     1 C    0.985
    11   1 H    0.992 --     1 C    0.976
    12   1 H    0.995 --     1 C    0.984
    13   1 H    0.993 --     2 C    0.967
    14   1 H    0.991 --     2 C    0.963
    15   1 H    0.988 --     4 C    0.961
    16   1 H    0.988 --     5 C    0.961
    17   1 H    0.987 --     7 C    0.954
    18   1 H    0.993 --     8 C    0.966
    19   1 H    0.991 --     8 C    0.963
    20   1 H    0.996 --     9 C    0.985
    21   1 H    0.992 --     9 C    0.976
    22   1 H    0.995 --     9 C    0.984
 ---------------------------------------------------------------------------

molecular dipole:
                 x           y           z       tot (Debye)
 q only:        1.881       5.361       2.703
   full:        1.795       5.359       2.782      16.012

           -------------------------------------------------
          | TOTAL ENERGY              -27.098925729386 Eh   |
          | GRADIENT NORM               0.000432319942 Eh/α |
          | HOMO-LUMO GAP               4.866416121565 eV   |
           -------------------------------------------------

 * finished run on 2024/12/20 at 06:48:50.298
