   * xtb version 6.7.1 (edcfbbe) compiled by 'conda@3ef47c1a292c' on 2024-11-25

   ID    Z sym.   atoms
    1    6 C      1-6, 8, 9, 11-14
    2    7 N      7, 10
    3    1 H      15-39

          program call               : xtb C0561.xyz --opt --namespace C0561 --charge +1
          :  Hamiltonian                  GFN2-xTB          :
 * total energy  :   -43.9034699 Eh     change       -0.1864464E-10 Eh
 * total energy  :   -43.9156822 Eh     change       -0.1221227E-01 Eh
 * total energy  :   -43.9184569 Eh     change       -0.2774721E-02 Eh
 * total energy  :   -43.9185677 Eh     change       -0.1108444E-03 Eh
 * total energy  :   -43.9185429 Eh     change        0.2477868E-04 Eh
 * total energy  :   -43.9186114 Eh     change       -0.6845482E-04 Eh
 * total energy  :   -43.9186403 Eh     change       -0.2885032E-04 Eh
 * total energy  :   -43.9186790 Eh     change       -0.3876729E-04 Eh
 * total energy  :   -43.9187213 Eh     change       -0.4227407E-04 Eh
 * total energy  :   -43.9187646 Eh     change       -0.4330057E-04 Eh
 * total energy  :   -43.9188146 Eh     change       -0.5000953E-04 Eh
 * total energy  :   -43.9188685 Eh     change       -0.5387365E-04 Eh
 * total energy  :   -43.9189139 Eh     change       -0.4538139E-04 Eh
 * total energy  :   -43.9189474 Eh     change       -0.3351834E-04 Eh
 * total energy  :   -43.9189719 Eh     change       -0.2452752E-04 Eh
 * total energy  :   -43.9189886 Eh     change       -0.1673189E-04 Eh
 * total energy  :   -43.9189958 Eh     change       -0.7147225E-05 Eh
 * total energy  :   -43.9189975 Eh     change       -0.1693194E-05 Eh
   *** GEOMETRY OPTIMIZATION CONVERGED AFTER 18 ITERATIONS ***

 final structure:
================
39
 xtb: 6.7.1 (edcfbbe)
C            0.62907117719983        0.08656852985100        0.47188718811033
C            0.49126191259409        1.28897579380277       -0.45409025394025
C            1.17471304034874        1.09169826966696       -1.80957670129607
C            0.64623275180418       -0.09007670914316       -2.62694946718986
C           -0.84972814920952       -0.03987750863148       -2.95142896763764
C           -1.39399057115632        1.19295770159052       -3.67880291556681
N           -1.03650816584417        1.39244175106034       -5.11951602250675
C           -1.05565452173247        0.11765685642942       -5.88056841945580
C           -0.90543219676691        0.43048358319402       -7.39046803398127
N           -0.51667885247441        1.81074605587362       -7.57327717739943
C            0.65601065154516        2.09506819743888       -6.77727870049906
C            0.30127891571240        2.02190088237795       -5.27181617847983
C           -1.59876861495990        2.67646825289694       -7.16237773833481
C           -2.04211336640169        2.31090759226828       -5.72541297830769
H            0.06947042516655       -0.77012747830465        0.10431363284287
H            0.24931545799153        0.33360034234382        1.45941368055827
H            1.67333188482841       -0.19864653579862        0.57168831499333
H           -0.56645442390102        1.52588550725690       -0.59084179533282
H            0.95362117727392        2.15372333502246        0.02531209135429
H            1.09354622401147        2.02043498303434       -2.38102651084484
H            2.23829032790029        0.91972389879792       -1.63430986124659
H            1.24195841112704       -0.19349217487865       -3.53766556982148
H            0.81324321907381       -1.00278134798481       -2.05427326676487
H           -1.12896744740312       -0.94940323952951       -3.48459954768492
H           -1.39116174898569       -0.06345042171696       -2.00377099787738
H           -2.48436942605375        1.12909570154413       -3.63842855733716
H           -1.08972541241032        2.09399315108380       -3.14330918228421
H           -1.99428380115069       -0.39796688346650       -5.67491819230306
H           -0.22928848353988       -0.50036889014611       -5.53096316309219
H           -0.14578014678359       -0.21162421110311       -7.83814562760539
H           -1.84121512251429        0.26201291741776       -7.92422708520278
H            1.43208359165218        1.37379243427307       -7.03596218891702
H            1.02484384549546        3.08885686096538       -7.03478878695851
H            1.03560837030517        1.43535309069449       -4.72477060204123
H            0.25446134447294        3.01893944871928       -4.83073327465048
H           -1.25671073301775        3.71009370123339       -7.22129937696954
H           -2.42963156431476        2.55929985416309       -7.85926862325119
H           -3.00593361550405        1.79951462356238       -5.73263458719581
H           -2.12667636437909        3.19896208414116       -5.09793455588170

          :  Hamiltonian                  GFN2-xTB          :
         :: total energy             -43.918997479544 Eh    ::
         :: gradient norm              0.000313520845 Eh/a0 ::
         :: HOMO-LUMO gap              7.317526442807 eV    ::
         :: SCC energy               -44.510164895970 Eh    ::
         :: -> dispersion             -0.033315274993 Eh    ::
         :: repulsion energy           0.591167416426 Eh    ::

    * Orbital Energies and Occupations

         #    Occupation            Energy/Eh            Energy/eV
      -------------------------------------------------------------
         1        2.0000           -0.8630006             -23.4834
       ...           ...                  ...                  ...
        29        2.0000           -0.6145669             -16.7232
        30        2.0000           -0.5986760             -16.2908
        31        2.0000           -0.5940719             -16.1655
        32        2.0000           -0.5933586             -16.1461
        33        2.0000           -0.5924437             -16.1212
        34        2.0000           -0.5899601             -16.0536
        35        2.0000           -0.5746649             -15.6374
        36        2.0000           -0.5650938             -15.3770
        37        2.0000           -0.5583206             -15.1927
        38        2.0000           -0.5374779             -14.6255
        39        2.0000           -0.5296991             -14.4138
        40        2.0000           -0.5243141             -14.2673
        41        2.0000           -0.5116415             -13.9225 (HOMO)
        42                         -0.2427274              -6.6049 (LUMO)
        43                         -0.1715479              -4.6681
        44                         -0.1652476              -4.4966
        45                         -0.1569665              -4.2713
        46                         -0.0971285              -2.6430
        47                         -0.0935393              -2.5453
        48                         -0.0902476              -2.4558
        49                         -0.0768978              -2.0925
        50                         -0.0597715              -1.6265
        51                         -0.0460446              -1.2529
        52                         -0.0376424              -1.0243
       ...                                ...                  ...
        81                          0.2016135               5.4862
      -------------------------------------------------------------
                  HL-Gap            0.2689141 Eh            7.3175 eV

     #   Z          covCN         q      C6AA      α(0)
     1   6 C        3.752    -0.110    22.656     6.788
     2   6 C        3.799    -0.057    21.604     6.618
     3   6 C        3.800    -0.064    21.733     6.638
     4   6 C        3.799    -0.066    21.764     6.642
     5   6 C        3.799    -0.074    21.923     6.667
     6   6 C        3.752    -0.037    21.294     6.581
     7   7 N        3.625     0.118    19.212     6.510
     8   6 C        3.763    -0.035    21.233     6.568
     9   6 C        3.785    -0.015    20.852     6.504
    10   7 N        2.731    -0.150    24.240     7.312
    11   6 C        3.785    -0.015    20.851     6.504
    12   6 C        3.765    -0.037    21.267     6.573
    13   6 C        3.786    -0.014    20.838     6.502
    14   6 C        3.772    -0.035    21.239     6.567
    15   1 H        0.925     0.035     2.521     2.483
    16   1 H        0.925     0.047     2.355     2.400
    17   1 H        0.925     0.045     2.382     2.413
    18   1 H        0.924     0.026     2.650     2.546
    19   1 H        0.924     0.043     2.403     2.424
    20   1 H        0.924     0.018     2.759     2.597
    21   1 H        0.924     0.050     2.314     2.379
    22   1 H        0.924     0.024     2.669     2.555
    23   1 H        0.924     0.065     2.139     2.287
    24   1 H        0.924     0.051     2.304     2.374
    25   1 H        0.924     0.081     1.973     2.197
    26   1 H        0.924     0.075     2.035     2.231
    27   1 H        0.924     0.084     1.937     2.177
    28   1 H        0.924     0.078     1.997     2.210
    29   1 H        0.925     0.085     1.930     2.172
    30   1 H        0.924     0.079     1.992     2.207
    31   1 H        0.924     0.074     2.037     2.232
    32   1 H        0.924     0.074     2.046     2.237
    33   1 H        0.924     0.079     1.993     2.208
    34   1 H        0.925     0.090     1.876     2.142
    35   1 H        0.924     0.075     2.032     2.229
    36   1 H        0.924     0.075     2.030     2.228
    37   1 H        0.924     0.079     1.985     2.203
    38   1 H        0.924     0.078     2.004     2.214
    39   1 H        0.924     0.078     2.000     2.212

Wiberg/Mayer (AO) data.
largest (>0.10) Wiberg bond orders for each atom

     #   Z sym  total        # sym  WBO       # sym  WBO       # sym  WBO
 ---------------------------------------------------------------------------
     1   6 C    3.995 --     2 C    1.021    17 H    0.987    16 H    0.986
                            15 H    0.986
     2   6 C    3.997 --     1 C    1.021     3 C    1.007    19 H    0.977
                            18 H    0.976
     3   6 C    3.995 --     4 C    1.007     2 C    1.007    21 H    0.975
                            20 H    0.974
     4   6 C    3.992 --     3 C    1.007     5 C    1.006    23 H    0.969
                            22 H    0.968
     5   6 C    3.983 --     4 C    1.006     6 C    1.005    24 H    0.971
                            25 H    0.960
     6   6 C    3.931 --     5 C    1.005    26 H    0.968    27 H    0.964
                             7 N    0.924
     7   7 N    3.805 --     8 C    0.942    12 C    0.941    14 C    0.940
                             6 C    0.924
     8   6 C    3.936 --     9 C    0.977    28 H    0.971    29 H    0.969
                             7 N    0.942
     9   6 C    3.978 --    10 N    1.013     8 C    0.977    31 H    0.971
                            30 H    0.969
    10   7 N    3.153 --     9 C    1.013    13 C    1.013    11 C    1.013
    11   6 C    3.978 --    10 N    1.013    12 C    0.979    32 H    0.971
                            33 H    0.969
    12   6 C    3.934 --    11 C    0.979    35 H    0.972    34 H    0.961
                             7 N    0.941
    13   6 C    3.977 --    10 N    1.013    14 C    0.979    36 H    0.971
                            37 H    0.969
    14   6 C    3.937 --    13 C    0.979    39 H    0.972    38 H    0.971
                             7 N    0.940
    15   1 H    0.999 --     1 C    0.986
    16   1 H    0.998 --     1 C    0.986
    17   1 H    0.998 --     1 C    0.987
    18   1 H    0.999 --     2 C    0.976
    19   1 H    0.998 --     2 C    0.977
    20   1 H    1.000 --     3 C    0.974
    21   1 H    0.997 --     3 C    0.975
    22   1 H    0.999 --     4 C    0.968
    23   1 H    0.995 --     4 C    0.969
    24   1 H    0.997 --     5 C    0.971
    25   1 H    0.993 --     5 C    0.960
    26   1 H    0.994 --     6 C    0.968
    27   1 H    0.993 --     6 C    0.964
    28   1 H    0.994 --     8 C    0.971
    29   1 H    0.993 --     8 C    0.969
    30   1 H    0.994 --     9 C    0.969
    31   1 H    0.994 --     9 C    0.971
    32   1 H    0.995 --    11 C    0.971
    33   1 H    0.994 --    11 C    0.969
    34   1 H    0.992 --    12 C    0.961
    35   1 H    0.994 --    12 C    0.972
    36   1 H    0.994 --    13 C    0.971
    37   1 H    0.993 --    13 C    0.969
    38   1 H    0.994 --    14 C    0.971
    39   1 H    0.994 --    14 C    0.972
 ---------------------------------------------------------------------------

molecular dipole:
                 x           y           z       tot (Debye)
 q only:       -1.603       2.465      -9.594
   full:       -1.777       2.438      -9.183      24.568

           -------------------------------------------------
          | TOTAL ENERGY              -43.918997479544 Eh   |
          | GRADIENT NORM               0.000313520845 Eh/α |
          | HOMO-LUMO GAP               7.317526442807 eV   |
           -------------------------------------------------

 * finished run on 2024/12/20 at 06:48:32.978
