   * xtb version 6.7.1 (edcfbbe) compiled by 'conda@3ef47c1a292c' on 2024-11-25

   ID    Z sym.   atoms
    1    6 C      1-4, 6, 7, 9, 10
    2    7 N      5
    3    8 O      8
    4    1 H      11-28

          program call               : xtb C0568.xyz --opt --namespace C0568 --charge +1
          :  Hamiltonian                  GFN2-xTB          :
 * total energy  :   -32.8811695 Eh     change       -0.2659561E-09 Eh
 * total energy  :   -32.8863145 Eh     change       -0.5144981E-02 Eh
 * total energy  :   -32.8876925 Eh     change       -0.1377996E-02 Eh
 * total energy  :   -32.8882369 Eh     change       -0.5443889E-03 Eh
 * total energy  :   -32.8888896 Eh     change       -0.6527293E-03 Eh
 * total energy  :   -32.8893181 Eh     change       -0.4285173E-03 Eh
 * total energy  :   -32.8898873 Eh     change       -0.5691975E-03 Eh
 * total energy  :   -32.8900601 Eh     change       -0.1727645E-03 Eh
 * total energy  :   -32.8901913 Eh     change       -0.1312717E-03 Eh
 * total energy  :   -32.8903192 Eh     change       -0.1278870E-03 Eh
 * total energy  :   -32.8905156 Eh     change       -0.5832621E-04 Eh
 * total energy  :   -32.8905448 Eh     change       -0.2917316E-04 Eh
 * total energy  :   -32.8905861 Eh     change       -0.4129571E-04 Eh
 * total energy  :   -32.8906075 Eh     change       -0.2143229E-04 Eh
 * total energy  :   -32.8906372 Eh     change       -0.2967894E-04 Eh
 * total energy  :   -32.8906650 Eh     change       -0.2775897E-04 Eh
 * total energy  :   -32.8906750 Eh     change       -0.1006213E-04 Eh
 * total energy  :   -32.8906883 Eh     change       -0.1326732E-04 Eh
 * total energy  :   -32.8906931 Eh     change       -0.4795995E-05 Eh
   *** GEOMETRY OPTIMIZATION CONVERGED AFTER 21 ITERATIONS ***

 final structure:
================
28
 xtb: 6.7.1 (edcfbbe)
C            1.63341761566558       -0.16559845118635        0.50599340655633
C            0.83680053214421       -0.10879844760766       -0.79258592409622
C            0.88017469906967       -1.41389913341503       -1.59165787344436
C            0.31384101550175       -2.67868868752097       -0.94266774547440
N           -1.14568309133662       -2.72420625013969       -0.58476522501224
C           -1.41138607902304       -2.10886833985377        0.72196642443932
C           -1.56565968778809       -4.17863705482035       -0.59161365120928
O           -1.62108197918210       -4.49752477144351       -1.92393149943852
C           -2.29409594014789       -3.42252357175104       -2.56408825600693
C           -2.02091020322636       -2.19519664632750       -1.66369632960819
H            1.22791187001650       -0.88390882677130        1.21438586694940
H            1.62979590600002        0.81010941910043        0.98340373008374
H            2.66653310756160       -0.43339623504540        0.30104908907002
H           -0.19228898478006        0.20327171439027       -0.59947542167281
H            1.27677793151216        0.66367756432160       -1.42548649376691
H            0.43292573532044       -1.25262968007706       -2.57397729229925
H            1.93097041914252       -1.65156642071161       -1.77540688579069
H            0.47898926404723       -3.49768865715572       -1.64762312768614
H            0.86595997417489       -2.89418878043633       -0.02713464797705
H           -0.82476573790973       -2.61007144241566        1.49020160338938
H           -1.14766578671303       -1.05496786874993        0.70577672288530
H           -2.46602241848139       -2.20450123891991        0.97690958202363
H           -2.54499517926404       -4.24531143171956       -0.09331504054980
H           -0.83994281947950       -4.82000400024274       -0.08864955333766
H           -1.87883863933158       -3.33093008703922       -3.56857194209745
H           -3.36731857313900       -3.62944270593161       -2.63780390731047
H           -1.53775374938770       -1.38074549439082       -2.19553680061867
H           -2.94595920096674       -1.82282447413990       -1.22255880799936

          :  Hamiltonian                  GFN2-xTB          :
         :: total energy             -32.890693091318 Eh    ::
         :: gradient norm              0.000648804836 Eh/a0 ::
         :: HOMO-LUMO gap              8.528902833831 eV    ::
         :: SCC energy               -33.295355536723 Eh    ::
         :: -> dispersion             -0.020241709044 Eh    ::
         :: repulsion energy           0.404662445405 Eh    ::

    * Orbital Energies and Occupations

         #    Occupation            Energy/Eh            Energy/eV
      -------------------------------------------------------------
         1        2.0000           -0.8999038             -24.4876
       ...           ...                  ...                  ...
        18        2.0000           -0.6698464             -18.2274
        19        2.0000           -0.6587232             -17.9248
        20        2.0000           -0.6560875             -17.8531
        21        2.0000           -0.6525260             -17.7561
        22        2.0000           -0.6450487             -17.5527
        23        2.0000           -0.6336982             -17.2438
        24        2.0000           -0.6261261             -17.0378
        25        2.0000           -0.6144656             -16.7205
        26        2.0000           -0.6022449             -16.3879
        27        2.0000           -0.5809090             -15.8073
        28        2.0000           -0.5768717             -15.6975
        29        2.0000           -0.5672476             -15.4356
        30        2.0000           -0.5610712             -15.2675 (HOMO)
        31                         -0.2476398              -6.7386 (LUMO)
        32                         -0.2216535              -6.0315
        33                         -0.1758507              -4.7851
        34                         -0.1627759              -4.4294
        35                         -0.1045076              -2.8438
        36                         -0.0905263              -2.4633
        37                         -0.0805284              -2.1913
        38                         -0.0649305              -1.7668
        39                         -0.0474863              -1.2922
        40                         -0.0316349              -0.8608
        41                         -0.0274915              -0.7481
       ...                                ...                  ...
        58                          0.1727899               4.7019
      -------------------------------------------------------------
                  HL-Gap            0.3134314 Eh            8.5289 eV

     #   Z          covCN         q      C6AA      α(0)
     1   6 C        3.751    -0.118    22.814     6.811
     2   6 C        3.799    -0.063    21.712     6.635
     3   6 C        3.799    -0.074    21.919     6.666
     4   6 C        3.749    -0.041    21.370     6.593
     5   7 N        3.626     0.103    19.471     6.554
     6   6 C        3.702    -0.094    22.464     6.777
     7   6 C        3.780     0.112    18.770     6.172
     8   8 O        1.705    -0.261    18.332     5.781
     9   6 C        3.782     0.054    19.692     6.321
    10   6 C        3.795    -0.044    21.359     6.581
    11   1 H        0.925     0.032     2.562     2.503
    12   1 H        0.925     0.058     2.220     2.330
    13   1 H        0.925     0.054     2.269     2.356
    14   1 H        0.924     0.029     2.600     2.522
    15   1 H        0.924     0.063     2.165     2.301
    16   1 H        0.924     0.054     2.269     2.356
    17   1 H        0.924     0.083     1.948     2.183
    18   1 H        0.924     0.099     1.794     2.094
    19   1 H        0.924     0.089     1.893     2.152
    20   1 H        0.925     0.097     1.815     2.107
    21   1 H        0.925     0.116     1.642     2.004
    22   1 H        0.925     0.093     1.852     2.128
    23   1 H        0.923     0.077     2.014     2.220
    24   1 H        0.924     0.104     1.752     2.070
    25   1 H        0.924     0.098     1.799     2.098
    26   1 H        0.924     0.081     1.972     2.196
    27   1 H        0.925     0.108     1.715     2.048
    28   1 H        0.924     0.093     1.854     2.130

Wiberg/Mayer (AO) data.
largest (>0.10) Wiberg bond orders for each atom

     #   Z sym  total        # sym  WBO       # sym  WBO       # sym  WBO
 ---------------------------------------------------------------------------
     1   6 C    3.992 --     2 C    1.020    13 H    0.986    11 H    0.984
                            12 H    0.984
     2   6 C    3.993 --     1 C    1.020     3 C    1.006    15 H    0.972
                            14 H    0.970
     3   6 C    3.983 --     4 C    1.007     2 C    1.006    16 H    0.967
                            17 H    0.959
     4   6 C    3.917 --     3 C    1.007    19 H    0.965    18 H    0.963
                             5 N    0.913
     5   7 N    3.796 --     6 C    0.964    10 C    0.945     4 C    0.913
                             7 C    0.899
     6   6 C    3.924 --    20 H    0.974    22 H    0.973     5 N    0.964
                            21 H    0.963
     7   6 C    3.924 --     8 O    1.049    24 H    0.959    23 H    0.954
                             5 N    0.899
     8   8 O    2.135 --     7 C    1.049     9 C    0.967
     9   6 C    3.932 --    10 C    0.991    25 H    0.968    26 H    0.968
                             8 O    0.967
    10   6 C    3.935 --     9 C    0.991    28 H    0.970    27 H    0.960
                             5 N    0.945
    11   1 H    0.999 --     1 C    0.984
    12   1 H    0.997 --     1 C    0.984
    13   1 H    0.997 --     1 C    0.986
    14   1 H    0.999 --     2 C    0.970
    15   1 H    0.996 --     2 C    0.972
    16   1 H    0.997 --     3 C    0.967
    17   1 H    0.993 --     3 C    0.959
    18   1 H    0.990 --     4 C    0.963
    19   1 H    0.992 --     4 C    0.965
    20   1 H    0.991 --     6 C    0.974
    21   1 H    0.986 --     6 C    0.963
    22   1 H    0.991 --     6 C    0.973
    23   1 H    0.994 --     7 C    0.954
    24   1 H    0.989 --     7 C    0.959
    25   1 H    0.990 --     9 C    0.968
    26   1 H    0.993 --     9 C    0.968
    27   1 H    0.988 --    10 C    0.960
    28   1 H    0.991 --    10 C    0.970
 ---------------------------------------------------------------------------

molecular dipole:
                 x           y           z       tot (Debye)
 q only:       -1.991      -4.400      -1.268
   full:       -2.105      -4.384      -1.122      12.685

           -------------------------------------------------
          | TOTAL ENERGY              -32.890693091318 Eh   |
          | GRADIENT NORM               0.000648804836 Eh/α |
          | HOMO-LUMO GAP               8.528902833831 eV   |
           -------------------------------------------------

 * finished run on 2024/12/20 at 06:48:49.845
