   * xtb version 6.7.1 (edcfbbe) compiled by 'conda@3ef47c1a292c' on 2024-11-25

   ID    Z sym.   atoms
    1    6 C      1, 3, 5-7, 10, 13, 16, 19, 22, 26, 27
    2    7 N      2, 4
    3    9 F      8, 9, 11, 12, 14, 15, 17, 18, 20, 21, 23-25
    4    1 H      28-37

          program call               : xtb C0565.xyz --opt --namespace C0565 --charge +1
          :  Hamiltonian                  GFN2-xTB          :
 * total energy  :   -97.7321388 Eh     change       -0.1401901E-09 Eh
 * total energy  :   -97.7438668 Eh     change       -0.1172806E-01 Eh
 * total energy  :   -97.7478789 Eh     change       -0.4012096E-02 Eh
 * total energy  :   -97.7487036 Eh     change       -0.8246656E-03 Eh
 * total energy  :   -97.7490985 Eh     change       -0.3949779E-03 Eh
 * total energy  :   -97.7493093 Eh     change       -0.2107882E-03 Eh
 * total energy  :   -97.7495645 Eh     change       -0.2551468E-03 Eh
 * total energy  :   -97.7498058 Eh     change       -0.2413330E-03 Eh
 * total energy  :   -97.7499787 Eh     change       -0.1728937E-03 Eh
 * total energy  :   -97.7500611 Eh     change       -0.8238039E-04 Eh
 * total energy  :   -97.7507396 Eh     change       -0.3893159E-04 Eh
 * total energy  :   -97.7507810 Eh     change       -0.4133865E-04 Eh
 * total energy  :   -97.7508029 Eh     change       -0.2191395E-04 Eh
 * total energy  :   -97.7508329 Eh     change       -0.2998637E-04 Eh
 * total energy  :   -97.7508682 Eh     change       -0.3531808E-04 Eh
 * total energy  :   -97.7508840 Eh     change       -0.1586075E-04 Eh
 * total energy  :   -97.7509061 Eh     change       -0.2211463E-04 Eh
 * total energy  :   -97.7509121 Eh     change       -0.5917208E-05 Eh
 * total energy  :   -97.7509157 Eh     change       -0.3677375E-05 Eh
   *** GEOMETRY OPTIMIZATION CONVERGED AFTER 30 ITERATIONS ***

 final structure:
================
37
 xtb: 6.7.1 (edcfbbe)
C           -1.24734799143831       -0.43305809363707        1.14631430902769
N           -0.62886735966814        0.66671574045356        1.83529103855542
C           -0.63130005422728        1.93806655475278        1.45802180826203
N            0.05939425532351        2.66329774029338        2.33859521610476
C            0.29729415813336        4.09065782493916        2.28792519555326
C            1.78313739203983        4.46068362206443        2.21157954272743
C            2.38601686630843        4.41748902265723        0.80342997806864
F            1.65843192260191        5.18347596991168       -0.03936269541841
F            3.62201933109827        4.94161236107829        0.84109385844687
C            2.44513316665447        2.98700025385903        0.16625810237764
F            2.60014915936677        2.05652965637515        1.13574941400341
F            1.23614941193536        2.73315513660825       -0.37921851331439
C            3.58040792357630        2.80554674756123       -0.88912441743228
F            3.56871112815389        3.82950614707340       -1.74751918940264
F            4.74914449329843        2.81460517859685       -0.23236738960757
C            3.45091221235190        1.45771861058992       -1.67231889543803
F            3.53995318817380        0.44308661804965       -0.79237577069247
F            2.23160894769075        1.37102691298915       -2.23052369032275
C            4.51802228610357        1.30261715988779       -2.80110108171978
F            4.14401350310890        2.06014335465007       -3.84086268975152
F            5.71617184041230        1.73453238766229       -2.38862402546406
C            4.65048405531402       -0.18734791180635       -3.26349739958991
F            5.30882281287316       -0.89098132994264       -2.35163301614415
F            3.44872571502409       -0.73749954990505       -3.41883219922693
F            5.29814658709090       -0.25952918780695       -4.40888575225387
C            0.50386289254221        1.82153881464300        3.31668311107110
C            0.07484317122734        0.57084018431763        2.99777597543267
H           -1.76648018553349       -0.07299412481570        0.26123541284569
H           -1.95978841319834       -0.93268624825169        1.80334356716690
H           -0.48961742446102       -1.15681127638461        0.84379099390091
H           -1.10459725401225        2.32242897966237        0.57443568330277
H           -0.23628384532728        4.50537511279322        1.42894775157961
H           -0.11522776215771        4.53543306246926        3.19852790671302
H            1.89831448839503        5.49894278125452        2.53403224692697
H            2.39358373091253        3.83505620164680        2.86477383810397
H            1.07453321815170        2.15631181824432        4.15835223298492
H            0.22207243216379       -0.35883623253306        3.50914954262307

          :  Hamiltonian                  GFN2-xTB          :
         :: total energy             -97.750915744374 Eh    ::
         :: gradient norm              0.000700446634 Eh/a0 ::
         :: HOMO-LUMO gap              4.910891544871 eV    ::
         :: SCC energy               -98.307369867494 Eh    ::
         :: -> dispersion             -0.035509732909 Eh    ::
         :: repulsion energy           0.556454123120 Eh    ::

    * Orbital Energies and Occupations

         #    Occupation            Energy/Eh            Energy/eV
      -------------------------------------------------------------
         1        2.0000           -1.0448839             -28.4327
       ...           ...                  ...                  ...
        67        2.0000           -0.6630484             -18.0425
        68        2.0000           -0.6610224             -17.9873
        69        2.0000           -0.6602072             -17.9652
        70        2.0000           -0.6590873             -17.9347
        71        2.0000           -0.6565971             -17.8669
        72        2.0000           -0.6535837             -17.7849
        73        2.0000           -0.6480985             -17.6357
        74        2.0000           -0.6472921             -17.6137
        75        2.0000           -0.6396971             -17.4070
        76        2.0000           -0.6241825             -16.9849
        77        2.0000           -0.6165342             -16.7767
        78        2.0000           -0.6055080             -16.4767
        79        2.0000           -0.6030522             -16.4099 (HOMO)
        80                         -0.4225802             -11.4990 (LUMO)
        81                         -0.3863930             -10.5143
        82                         -0.2619055              -7.1268
        83                         -0.2277348              -6.1970
        84                         -0.2087069              -5.6792
        85                         -0.1910076              -5.1976
        86                         -0.1634811              -4.4485
        87                         -0.1539084              -4.1881
        88                         -0.1498893              -4.0787
        89                         -0.1477911              -4.0216
        90                         -0.1393720              -3.7925
       ...                                ...                  ...
       118                          0.4492282              12.2241
      -------------------------------------------------------------
                  HL-Gap            0.1804719 Eh            4.9109 eV

     #   Z          covCN         q      C6AA      α(0)
     1   6 C        3.693    -0.093    22.462     6.781
     2   7 N        2.868     0.092    19.656     6.585
     3   6 C        3.094     0.046    26.849     8.493
     4   7 N        2.869     0.061    20.168     6.670
     5   6 C        3.740    -0.030    21.197     6.569
     6   6 C        3.802    -0.092    22.256     6.716
     7   6 C        3.516     0.324    16.872     6.063
     8   9 F        0.789    -0.189    11.125     3.940
     9   9 F        0.789    -0.183    11.057     3.928
    10   6 C        3.516     0.313    17.014     6.088
    11   9 F        0.789    -0.199    11.226     3.958
    12   9 F        0.789    -0.194    11.171     3.948
    13   6 C        3.515     0.329    16.814     6.055
    14   9 F        0.788    -0.159    10.820     3.886
    15   9 F        0.789    -0.161    10.844     3.890
    16   6 C        3.516     0.319    16.939     6.076
    17   9 F        0.789    -0.178    11.012     3.920
    18   9 F        0.789    -0.169    10.924     3.904
    19   6 C        3.515     0.316    16.982     6.084
    20   9 F        0.789    -0.157    10.797     3.881
    21   9 F        0.788    -0.160    10.830     3.887
    22   6 C        3.326     0.492    17.342     6.616
    23   9 F        0.791    -0.159    10.817     3.885
    24   9 F        0.791    -0.168    10.908     3.901
    25   9 F        0.791    -0.141    10.647     3.854
    26   6 C        3.067    -0.006    28.093     8.691
    27   6 C        3.073    -0.006    28.087     8.689
    28   1 H        0.925     0.106     1.729     2.056
    29   1 H        0.924     0.114     1.667     2.019
    30   1 H        0.924     0.115     1.655     2.012
    31   1 H        0.926     0.127     1.560     1.953
    32   1 H        0.924     0.110     1.695     2.036
    33   1 H        0.924     0.115     1.657     2.013
    34   1 H        0.924     0.127     1.557     1.951
    35   1 H        0.924     0.103     1.754     2.071
    36   1 H        0.926     0.114     1.664     2.017
    37   1 H        0.926     0.120     1.612     1.985

Wiberg/Mayer (AO) data.
largest (>0.10) Wiberg bond orders for each atom

     #   Z sym  total        # sym  WBO       # sym  WBO       # sym  WBO
 ---------------------------------------------------------------------------
     1   6 C    3.927 --     2 N    0.989    28 H    0.974    29 H    0.961
                            30 H    0.959
     2   7 N    3.732 --     3 C    1.380    27 C    1.224     1 C    0.989
     3   6 C    3.945 --     2 N    1.380     4 N    1.349    31 H    0.950
     4   7 N    3.706 --     3 C    1.349    26 C    1.218     5 C    0.978
     5   6 C    3.945 --     6 C    1.000     4 N    0.978    32 H    0.962
                            33 H    0.953
     6   6 C    3.971 --     5 C    1.000     7 C    0.962    35 H    0.962
                            34 H    0.954
     7   6 C    3.870 --     9 F    0.972     6 C    0.962     8 F    0.961
                            10 C    0.901
     8   9 F    1.077 --     7 C    0.961
     9   9 F    1.087 --     7 C    0.972
    10   6 C    3.864 --    12 F    0.963    11 F    0.960    13 C    0.909
                             7 C    0.901
    11   9 F    1.067 --    10 C    0.960
    12   9 F    1.073 --    10 C    0.963
    13   6 C    3.896 --    14 F    0.987    15 F    0.982    10 C    0.909
                            16 C    0.903
    14   9 F    1.107 --    13 C    0.987
    15   9 F    1.102 --    13 C    0.982
    16   6 C    3.887 --    18 F    0.978    17 F    0.972    19 C    0.906
                            13 C    0.903
    17   9 F    1.086 --    16 C    0.972
    18   9 F    1.093 --    16 C    0.978
    19   6 C    3.896 --    20 F    0.985    21 F    0.985    16 C    0.906
                            22 C    0.882
    20   9 F    1.105 --    19 C    0.985
    21   9 F    1.104 --    19 C    0.985
    22   6 C    3.884 --    25 F    0.995    23 F    0.978    24 F    0.970
                            19 C    0.882
    23   9 F    1.115 --    22 C    0.978
    24   9 F    1.105 --    22 C    0.970
    25   9 F    1.135 --    22 C    0.995
    26   6 C    3.947 --    27 C    1.601     4 N    1.218    36 H    0.960
    27   6 C    3.948 --    26 C    1.601     2 N    1.224    37 H    0.959
    28   1 H    0.988 --     1 C    0.974
    29   1 H    0.987 --     1 C    0.961
    30   1 H    0.986 --     1 C    0.959
    31   1 H    0.984 --     3 C    0.950
    32   1 H    0.987 --     5 C    0.962
    33   1 H    0.986 --     5 C    0.953
    34   1 H    0.983 --     6 C    0.954
    35   1 H    0.989 --     6 C    0.962
    36   1 H    0.987 --    26 C    0.960
    37   1 H    0.985 --    27 C    0.959
 ---------------------------------------------------------------------------

molecular dipole:
                 x           y           z       tot (Debye)
 q only:       -0.806       3.306       4.704
   full:       -0.785       3.330       4.659      14.692

           -------------------------------------------------
          | TOTAL ENERGY              -97.750915744374 Eh   |
          | GRADIENT NORM               0.000700446634 Eh/α |
          | HOMO-LUMO GAP               4.910891544871 eV   |
           -------------------------------------------------

 * finished run on 2024/12/20 at 06:48:47.777
