   * xtb version 6.7.1 (edcfbbe) compiled by 'conda@3ef47c1a292c' on 2024-11-25

   ID    Z sym.   atoms
    1    6 C      1, 3-5, 7-12, 15
    2    7 N      2, 6
    3    8 O      13, 14
    4    1 H      16-28

          program call               : xtb C0564.xyz --opt --namespace C0564 --charge +1
          :  Hamiltonian                  GFN2-xTB          :
 * total energy  :   -43.6799733 Eh     change       -0.2388163E-08 Eh
 * total energy  :   -43.7137432 Eh     change       -0.3376992E-01 Eh
 * total energy  :   -43.7158000 Eh     change       -0.2056805E-02 Eh
 * total energy  :   -43.7162915 Eh     change       -0.4915037E-03 Eh
 * total energy  :   -43.7165032 Eh     change       -0.2117035E-03 Eh
 * total energy  :   -43.7166513 Eh     change       -0.1480626E-03 Eh
 * total energy  :   -43.7167465 Eh     change       -0.9518543E-04 Eh
 * total energy  :   -43.7168347 Eh     change       -0.8824715E-04 Eh
 * total energy  :   -43.7169147 Eh     change       -0.8000372E-04 Eh
 * total energy  :   -43.7169709 Eh     change       -0.5616450E-04 Eh
 * total energy  :   -43.7171230 Eh     change       -0.2824830E-04 Eh
 * total energy  :   -43.7171338 Eh     change       -0.1082984E-04 Eh
 * total energy  :   -43.7171527 Eh     change       -0.1886809E-04 Eh
 * total energy  :   -43.7171611 Eh     change       -0.8456980E-05 Eh
 * total energy  :   -43.7171713 Eh     change       -0.1020886E-04 Eh
 * total energy  :   -43.7171830 Eh     change       -0.1170382E-04 Eh
 * total energy  :   -43.7171898 Eh     change       -0.6723112E-05 Eh
 * total energy  :   -43.7171960 Eh     change       -0.6291835E-05 Eh
 * total energy  :   -43.7171976 Eh     change       -0.1594389E-05 Eh
   *** GEOMETRY OPTIMIZATION CONVERGED AFTER 22 ITERATIONS ***

 final structure:
================
28
 xtb: 6.7.1 (edcfbbe)
C            1.09616359246037        0.41545688579431       -0.06310378556249
N           -0.01614173883046        0.66290093136009       -0.14070540710505
C            2.51342964168440        0.14217742408915       -0.06150881554796
C            2.94636740155388       -0.59223924139072       -1.33900271207584
C            2.39832851837807        0.04193325843344       -2.62648779938490
N            2.85253009173888        1.41471918838188       -2.78829329605832
C            2.07481002192270        2.42287976350721       -2.38266363744995
C            2.50789565848970        3.73488573190430       -2.47160727136479
C            3.76743299381675        4.00289619203193       -3.00452676000410
C            4.55348586173387        2.93845994391411       -3.42471883274103
C            4.06847150098199        1.65286811244511       -3.29915495129919
C            1.64762811316470        4.88700803197953       -1.99890651923776
O            2.00465154986263        6.02646244874598       -2.09702097304582
O            0.51460285415694        4.45588563030906       -1.47562487861051
C           -0.38501930580380        5.45044386205596       -0.97844906412287
H            3.04232421302975        1.09442839812964        0.05051018447659
H            2.74930023702408       -0.47244537954923        0.81033971263863
H            4.03663343593268       -0.63112011877568       -1.37099781256091
H            2.57476381382142       -1.61741248230946       -1.30826580466237
H            2.73200784273512       -0.54527667469299       -3.48461699056958
H            1.30667541722320        0.03449122814916       -2.59992003642213
H            1.09858145907101        2.19042300442357       -1.97860450216067
H            4.09889245828398        5.02879187605234       -3.07916125823858
H            5.53246221842328        3.10240743546343       -3.84646657015885
H            4.64823032201591        0.79685257537982       -3.61327430709438
H            0.13780090787439        6.12740976580282       -0.30170387537957
H           -0.79943155711483        6.02640544637648       -1.80678577939643
H           -1.16956752363110        4.90905676198883       -0.45740825686017

          :  Hamiltonian                  GFN2-xTB          :
         :: total energy             -43.717197640118 Eh    ::
         :: gradient norm              0.000568320601 Eh/a0 ::
         :: HOMO-LUMO gap              2.148930777015 eV    ::
         :: SCC energy               -44.369273599301 Eh    ::
         :: -> dispersion             -0.024228973815 Eh    ::
         :: repulsion energy           0.652075959184 Eh    ::

    * Orbital Energies and Occupations

         #    Occupation            Energy/Eh            Energy/eV
      -------------------------------------------------------------
         1        2.0000           -0.8932157             -24.3056
       ...           ...                  ...                  ...
        27        2.0000           -0.6402497             -17.4221
        28        2.0000           -0.6357463             -17.2995
        29        2.0000           -0.6346303             -17.2692
        30        2.0000           -0.6302366             -17.1496
        31        2.0000           -0.6242097             -16.9856
        32        2.0000           -0.6216643             -16.9163
        33        2.0000           -0.6162818             -16.7699
        34        2.0000           -0.5974981             -16.2587
        35        2.0000           -0.5923440             -16.1185
        36        2.0000           -0.5894647             -16.0402
        37        2.0000           -0.5708923             -15.5348
        38        2.0000           -0.5625484             -15.3077
        39        2.0000           -0.5508757             -14.9901 (HOMO)
        40                         -0.4719040             -12.8412 (LUMO)
        41                         -0.4514456             -12.2845
        42                         -0.3664588              -9.9719
        43                         -0.3377259              -9.1900
        44                         -0.3317734              -9.0280
        45                         -0.2916523              -7.9363
        46                         -0.1907924              -5.1917
        47                         -0.1332538              -3.6260
        48                         -0.0972872              -2.6473
        49                         -0.0800681              -2.1788
        50                         -0.0620254              -1.6878
       ...                                ...                  ...
        73                          1.0164106              27.6579
      -------------------------------------------------------------
                  HL-Gap            0.0789718 Eh            2.1489 eV

     #   Z          covCN         q      C6AA      α(0)
     1   6 C        1.897     0.109    28.404     8.608
     2   7 N        0.911    -0.212    25.621     7.321
     3   6 C        3.803    -0.063    21.701     6.632
     4   6 C        3.806    -0.063    21.711     6.633
     5   6 C        3.758    -0.039    21.314     6.582
     6   7 N        2.749     0.113    19.304     6.526
     7   6 C        2.890     0.032    27.293     8.565
     8   6 C        2.967     0.006    27.879     8.661
     9   6 C        2.926     0.017    27.622     8.619
    10   6 C        2.914    -0.008    28.227     8.712
    11   6 C        2.890     0.032    27.276     8.563
    12   6 C        2.726     0.356    20.954     7.494
    13   8 O        0.857    -0.356    20.816     6.117
    14   8 O        1.704    -0.236    17.919     5.715
    15   6 C        3.655     0.016    20.603     6.516
    16   1 H        0.924     0.067     2.117     2.276
    17   1 H        0.924     0.103     1.761     2.075
    18   1 H        0.924     0.067     2.119     2.276
    19   1 H        0.924     0.090     1.878     2.143
    20   1 H        0.924     0.099     1.795     2.095
    21   1 H        0.924     0.104     1.753     2.071
    22   1 H        0.925     0.132     1.520     1.928
    23   1 H        0.926     0.131     1.528     1.933
    24   1 H        0.926     0.117     1.641     2.003
    25   1 H        0.926     0.114     1.665     2.018
    26   1 H        0.924     0.087     1.906     2.159
    27   1 H        0.924     0.087     1.908     2.160
    28   1 H        0.925     0.098     1.804     2.100

Wiberg/Mayer (AO) data.
largest (>0.10) Wiberg bond orders for each atom

     #   Z sym  total        # sym  WBO       # sym  WBO       # sym  WBO
 ---------------------------------------------------------------------------
     1   6 C    3.949 --     2 N    2.858     3 C    1.049
     2   7 N    3.017 --     1 C    2.858
     3   6 C    3.994 --     1 C    1.049     4 C    0.985    16 H    0.946
                            17 H    0.938
     4   6 C    3.984 --     3 C    0.985     5 C    0.982    18 H    0.972
                            19 H    0.966
     5   6 C    3.933 --     4 C    0.982     6 N    0.962    21 H    0.960
                            20 H    0.960
     6   7 N    3.767 --     7 C    1.338    11 C    1.318     5 C    0.962
     7   6 C    3.951 --     8 C    1.423     6 N    1.338    22 H    0.942
     8   6 C    3.983 --     7 C    1.423     9 C    1.392    12 C    0.948
     9   6 C    3.959 --    10 C    1.420     8 C    1.392    23 H    0.952
    10   6 C    3.978 --    11 C    1.466     9 C    1.420    24 H    0.957
    11   6 C    3.955 --    10 C    1.466     6 N    1.318    25 H    0.954
    12   6 C    3.941 --    13 O    1.757    14 O    1.175     8 C    0.948
    13   8 O    2.087 --    12 C    1.757    14 O    0.200
    14   8 O    2.352 --    12 C    1.175    15 C    0.932    13 O    0.200
    15   6 C    3.891 --    28 H    0.977    26 H    0.973    27 H    0.971
                            14 O    0.932
    16   1 H    0.995 --     3 C    0.946
    17   1 H    0.989 --     3 C    0.938
    18   1 H    0.995 --     4 C    0.972
    19   1 H    0.991 --     4 C    0.966
    20   1 H    0.990 --     5 C    0.960
    21   1 H    0.989 --     5 C    0.960
    22   1 H    0.983 --     7 C    0.942
    23   1 H    0.983 --     9 C    0.952
    24   1 H    0.986 --    10 C    0.957
    25   1 H    0.986 --    11 C    0.954
    26   1 H    0.992 --    15 C    0.973
    27   1 H    0.992 --    15 C    0.971
    28   1 H    0.990 --    15 C    0.977
 ---------------------------------------------------------------------------

molecular dipole:
                 x           y           z       tot (Debye)
 q only:        5.808       3.113      -4.621
   full:        6.258       2.900      -4.622      21.103

           -------------------------------------------------
          | TOTAL ENERGY              -43.717197640118 Eh   |
          | GRADIENT NORM               0.000568320601 Eh/α |
          | HOMO-LUMO GAP               2.148930777015 eV   |
           -------------------------------------------------

 * finished run on 2024/12/20 at 06:48:46.310
