   * xtb version 6.7.1 (edcfbbe) compiled by 'conda@3ef47c1a292c' on 2024-11-25

   ID    Z sym.   atoms
    1    6 C      1-7, 9, 11-31
    2    7 N      8, 10
    3    1 H      32-56

          program call               : xtb C0560.xyz --opt --namespace C0560 --charge +1
          :  Hamiltonian                  GFN2-xTB          :
 * total energy  :   -80.3044712 Eh     change       -0.4018503E-08 Eh
 * total energy  :   -80.3139679 Eh     change       -0.9496714E-02 Eh
 * total energy  :   -80.3159712 Eh     change       -0.2003251E-02 Eh
 * total energy  :   -80.3163360 Eh     change       -0.3648551E-03 Eh
 * total energy  :   -80.3166639 Eh     change       -0.3278830E-03 Eh
 * total energy  :   -80.3168022 Eh     change       -0.1382776E-03 Eh
 * total energy  :   -80.3169152 Eh     change       -0.1130067E-03 Eh
 * total energy  :   -80.3170056 Eh     change       -0.9043642E-04 Eh
 * total energy  :   -80.3171142 Eh     change       -0.1085855E-03 Eh
 * total energy  :   -80.3171730 Eh     change       -0.5875568E-04 Eh
 * total energy  :   -80.3173544 Eh     change       -0.1890781E-04 Eh
 * total energy  :   -80.3173633 Eh     change       -0.8887574E-05 Eh
 * total energy  :   -80.3173701 Eh     change       -0.6883535E-05 Eh
 * total energy  :   -80.3173809 Eh     change       -0.1075881E-04 Eh
 * total energy  :   -80.3173908 Eh     change       -0.9880434E-05 Eh
 * total energy  :   -80.3173965 Eh     change       -0.5701982E-05 Eh
 * total energy  :   -80.3174023 Eh     change       -0.5851640E-05 Eh
 * total energy  :   -80.3174008 Eh     change        0.1577180E-05 Eh
 * total energy  :   -80.3174056 Eh     change       -0.4802344E-05 Eh
   *** GEOMETRY OPTIMIZATION CONVERGED AFTER 25 ITERATIONS ***

 final structure:
================
56
 xtb: 6.7.1 (edcfbbe)
C            1.03962413617288       -0.84383411305000        0.89499825545024
C            1.04381066486037        0.39322138874487        0.27342629717512
C           -0.13833146883668        0.94093709126469       -0.19473404782496
C           -1.33238039059766        0.24950700602218       -0.04415761536252
C           -1.33315003071799       -0.98914850300711        0.58469336873860
C           -0.15027757016226       -1.53606368507250        1.04872272443665
C           -2.63459274244893        0.85407421399363       -0.52043299802227
N           -3.31707112039597        1.46850325627180        0.60292917653487
C           -4.21664673406973        0.86597454424168        1.37437072613991
N           -4.50671594809440        1.64007548005717        2.41793405384396
C           -3.76388886203279        2.78821864132592        2.31809336230970
C           -3.01146059769044        2.67961816839821        1.16888293892880
C           -2.03959557954873        3.63171233935727        0.63010331529496
C           -2.17534921804365        4.14312573059188       -0.65847877058647
C           -1.24571366975177        5.04376287569263       -1.14609772375492
C           -0.17926822732684        5.43971300735290       -0.35536613852525
C           -0.05041198674788        4.94536611741105        0.93264513609409
C           -0.97766741777238        4.04804532207840        1.42871888719113
C           -3.80411327619139        3.90359828459266        3.26206966029856
C           -3.62191079569614        3.69937885473872        4.62853849687044
C           -3.65498956737798        4.77413549455809        5.49863714180747
C           -3.86678276244055        6.05510362086066        5.01614830406323
C           -4.03291380704006        6.26444162004868        3.65641074111641
C           -3.99889862057379        5.19639742099436        2.77983506745891
C           -5.56135363074773        1.35831884142231        3.37447334177303
C           -6.90535319645679        1.45393543160482        2.69006648584243
C           -7.40066477292062        2.70140585359645        2.33016383822062
C           -8.61963191105741        2.80424899326946        1.68429371970559
C           -9.34960564986561        1.66310385817944        1.39404322674120
C           -8.85838263549118        0.41854111493831        1.74960427740097
C           -7.63627615535176        0.31285684342486        2.39173239354029
H            1.96238174466957       -1.27139503355125        1.25471075823823
H            1.96898751649471        0.93377068488116        0.14799283446136
H           -0.12807109965885        1.90274312456187       -0.68572933966462
H           -2.25871676933757       -1.53586279368583        0.69895783273768
H           -0.15724758868245       -2.50372844615796        1.52594287829807
H           -2.44057148298012        1.61448857079246       -1.27703074168910
H           -3.28943830990295        0.08578791045833       -0.93652509241001
H           -4.65909080000595       -0.09108270385163        1.18201382826002
H           -3.02149261869940        3.85976496242905       -1.26869238116099
H           -1.35641632883975        5.43878498286153       -2.14404243649879
H            0.54646894755265        6.13832904953505       -0.74105113580461
H            0.77424978888132        5.25947441627184        1.55289386083207
H           -0.87881425669954        3.65602048558639        2.42945283209076
H           -3.42110474947419        2.70719046459460        5.00728038644415
H           -3.51043372193784        4.61013537579837        6.55518208217314
H           -3.89542817695777        6.89003677294546        5.69838095865499
H           -4.19016885208266        7.26206130125292        3.27735048261178
H           -4.13266630189334        5.35498760314246        1.72037184120215
H           -5.40874371046850        0.35755211142038        3.78557176427864
H           -5.49569304424473        2.09352956750053        4.17788002292506
H           -6.83505965635560        3.59214387963624        2.56601775871228
H           -9.00270315145006        3.77581252111508        1.41347079610400
H          -10.30290819271934        1.74467788587189        0.89594036474016
H           -9.42682339088512       -0.47174141801363        1.53002181590425
H           -7.26045224990208       -0.65953638929462        2.67649038566136

          :  Hamiltonian                  GFN2-xTB          :
         :: total energy             -80.317405558475 Eh    ::
         :: gradient norm              0.000518512739 Eh/a0 ::
         :: HOMO-LUMO gap              3.393029235289 eV    ::
         :: SCC energy               -81.818739583578 Eh    ::
         :: -> dispersion             -0.069307690825 Eh    ::
         :: repulsion energy           1.501334025103 Eh    ::

    * Orbital Energies and Occupations

         #    Occupation            Energy/Eh            Energy/eV
      -------------------------------------------------------------
         1        2.0000           -0.8625641             -23.4716
       ...           ...                  ...                  ...
        63        2.0000           -0.5305107             -14.4359
        64        2.0000           -0.5300028             -14.4221
        65        2.0000           -0.5275645             -14.3558
        66        2.0000           -0.5256580             -14.3039
        67        2.0000           -0.5254322             -14.2977
        68        2.0000           -0.5173390             -14.0775
        69        2.0000           -0.5156710             -14.0321
        70        2.0000           -0.5152423             -14.0205
        71        2.0000           -0.5098347             -13.8733
        72        2.0000           -0.5094172             -13.8619
        73        2.0000           -0.5093308             -13.8596
        74        2.0000           -0.5087126             -13.8428
        75        2.0000           -0.5048079             -13.7365 (HOMO)
        76                         -0.3801164             -10.3435 (LUMO)
        77                         -0.3656874              -9.9509
        78                         -0.3372318              -9.1765
        79                         -0.3356374              -9.1332
        80                         -0.3340532              -9.0900
        81                         -0.3328511              -9.0573
        82                         -0.3305638              -8.9951
        83                         -0.3276392              -8.9155
        84                         -0.3274981              -8.9117
        85                         -0.3036481              -8.2627
        86                         -0.2090595              -5.6888
       ...                                ...                  ...
       149                          0.5748933              15.6436
      -------------------------------------------------------------
                  HL-Gap            0.1246915 Eh            3.3930 eV

     #   Z          covCN         q      C6AA      α(0)
     1   6 C        2.920    -0.021    28.538     8.760
     2   6 C        2.920    -0.023    28.570     8.765
     3   6 C        2.922    -0.033    28.834     8.806
     4   6 C        2.973    -0.001    28.048     8.687
     5   6 C        2.923    -0.037    28.921     8.819
     6   6 C        2.919    -0.024    28.592     8.769
     7   6 C        3.748    -0.021    21.008     6.537
     8   7 N        2.857     0.036    20.606     6.742
     9   6 C        3.073     0.048    26.842     8.495
    10   7 N        2.858     0.034    20.642     6.748
    11   6 C        3.109     0.031    27.172     8.540
    12   6 C        3.113     0.030    27.176     8.540
    13   6 C        2.973     0.006    27.880     8.661
    14   6 C        2.923    -0.033    28.813     8.803
    15   6 C        2.919    -0.023    28.579     8.767
    16   6 C        2.920    -0.019    28.493     8.753
    17   6 C        2.919    -0.021    28.520     8.758
    18   6 C        2.925    -0.028    28.703     8.786
    19   6 C        2.973     0.004    27.927     8.668
    20   6 C        2.922    -0.034    28.836     8.806
    21   6 C        2.919    -0.022    28.561     8.764
    22   6 C        2.920    -0.018    28.469     8.750
    23   6 C        2.919    -0.021    28.521     8.758
    24   6 C        2.925    -0.029    28.732     8.790
    25   6 C        3.748    -0.022    21.035     6.541
    26   6 C        2.973    -0.003    28.107     8.696
    27   6 C        2.923    -0.036    28.894     8.815
    28   6 C        2.919    -0.023    28.585     8.767
    29   6 C        2.920    -0.022    28.549     8.762
    30   6 C        2.919    -0.023    28.583     8.767
    31   6 C        2.922    -0.037    28.923     8.819
    32   1 H        0.926     0.056     2.242     2.342
    33   1 H        0.926     0.053     2.285     2.364
    34   1 H        0.926     0.039     2.462     2.453
    35   1 H        0.926     0.033     2.550     2.497
    36   1 H        0.926     0.053     2.286     2.365
    37   1 H        0.925     0.086     1.915     2.164
    38   1 H        0.924     0.076     2.024     2.225
    39   1 H        0.926     0.096     1.826     2.113
    40   1 H        0.926     0.036     2.499     2.472
    41   1 H        0.926     0.055     2.256     2.349
    42   1 H        0.926     0.058     2.218     2.329
    43   1 H        0.926     0.056     2.249     2.345
    44   1 H        0.926     0.039     2.461     2.453
    45   1 H        0.926     0.038     2.474     2.460
    46   1 H        0.926     0.056     2.248     2.345
    47   1 H        0.926     0.059     2.210     2.325
    48   1 H        0.926     0.056     2.243     2.342
    49   1 H        0.926     0.040     2.449     2.447
    50   1 H        0.924     0.076     2.022     2.224
    51   1 H        0.924     0.089     1.891     2.151
    52   1 H        0.926     0.035     2.521     2.483
    53   1 H        0.926     0.052     2.298     2.371
    54   1 H        0.926     0.056     2.247     2.344
    55   1 H        0.926     0.054     2.269     2.356
    56   1 H        0.926     0.038     2.472     2.459

Wiberg/Mayer (AO) data.
largest (>0.10) Wiberg bond orders for each atom

     #   Z sym  total        # sym  WBO       # sym  WBO       # sym  WBO
 ---------------------------------------------------------------------------
     1   6 C    3.989 --     2 C    1.442     6 C    1.436    32 H    0.969
                             4 C    0.109
     2   6 C    3.990 --     1 C    1.442     3 C    1.440    33 H    0.969
                             5 C    0.112
     3   6 C    3.992 --     2 C    1.440     4 C    1.417    34 H    0.968
                             6 C    0.111
     4   6 C    3.980 --     3 C    1.417     5 C    1.413     7 C    0.979
                             1 C    0.109
     5   6 C    3.992 --     6 C    1.446     4 C    1.413    35 H    0.969
                             2 C    0.112
     6   6 C    3.991 --     5 C    1.446     1 C    1.436    36 H    0.969
                             3 C    0.111
     7   6 C    3.940 --     4 C    0.979    38 H    0.965    37 H    0.959
                             8 N    0.959
     8   7 N    3.693 --     9 C    1.353    12 C    1.184     7 C    0.959
     9   6 C    3.940 --     8 N    1.353    10 N    1.348    39 H    0.956
    10   7 N    3.690 --     9 C    1.348    11 C    1.184    25 C    0.958
    11   6 C    3.944 --    12 C    1.472    10 N    1.184    19 C    1.043
    12   6 C    3.943 --    11 C    1.472     8 N    1.184    13 C    1.036
    13   6 C    3.982 --    14 C    1.389    18 C    1.388    12 C    1.036
                            16 C    0.107
    14   6 C    3.989 --    15 C    1.447    13 C    1.389    40 H    0.968
                            17 C    0.109
    15   6 C    3.990 --    14 C    1.447    16 C    1.436    41 H    0.968
                            18 C    0.109
    16   6 C    3.986 --    15 C    1.436    17 C    1.436    42 H    0.969
                            13 C    0.107
    17   6 C    3.990 --    18 C    1.449    16 C    1.436    43 H    0.968
                            14 C    0.109
    18   6 C    3.991 --    17 C    1.449    13 C    1.388    44 H    0.970
                            15 C    0.109
    19   6 C    3.982 --    20 C    1.386    24 C    1.384    11 C    1.043
                            22 C    0.106
    20   6 C    3.989 --    21 C    1.447    19 C    1.386    45 H    0.968
                            23 C    0.108
    21   6 C    3.990 --    20 C    1.447    22 C    1.437    46 H    0.968
                            24 C    0.109
    22   6 C    3.985 --    21 C    1.437    23 C    1.434    47 H    0.969
                            19 C    0.106
    23   6 C    3.990 --    24 C    1.451    22 C    1.434    48 H    0.968
                            20 C    0.108
    24   6 C    3.991 --    23 C    1.451    19 C    1.384    49 H    0.969
                            21 C    0.109
    25   6 C    3.939 --    26 C    0.982    50 H    0.962    10 N    0.958
                            51 H    0.957
    26   6 C    3.980 --    31 C    1.419    27 C    1.411    25 C    0.982
                            29 C    0.109
    27   6 C    3.992 --    28 C    1.447    26 C    1.411    52 H    0.969
                            30 C    0.112
    28   6 C    3.991 --    27 C    1.447    29 C    1.436    53 H    0.969
                            31 C    0.110
    29   6 C    3.989 --    30 C    1.442    28 C    1.436    54 H    0.969
                            26 C    0.109
    30   6 C    3.990 --    29 C    1.442    31 C    1.439    55 H    0.969
                            27 C    0.112
    31   6 C    3.990 --    30 C    1.439    26 C    1.419    56 H    0.968
                            28 C    0.110
    32   1 H    0.996 --     1 C    0.969
    33   1 H    0.997 --     2 C    0.969
    34   1 H    0.998 --     3 C    0.968
    35   1 H    0.999 --     5 C    0.969
    36   1 H    0.997 --     6 C    0.969
    37   1 H    0.992 --     7 C    0.959
    38   1 H    0.993 --     7 C    0.965
    39   1 H    0.990 --     9 C    0.956
    40   1 H    0.999 --    14 C    0.968
    41   1 H    0.996 --    15 C    0.968
    42   1 H    0.996 --    16 C    0.969
    43   1 H    0.996 --    17 C    0.968
    44   1 H    0.998 --    18 C    0.970
    45   1 H    0.999 --    20 C    0.968
    46   1 H    0.996 --    21 C    0.968
    47   1 H    0.996 --    22 C    0.969
    48   1 H    0.996 --    23 C    0.968
    49   1 H    0.998 --    24 C    0.969
    50   1 H    0.993 --    25 C    0.962
    51   1 H    0.991 --    25 C    0.957
    52   1 H    0.999 --    27 C    0.969
    53   1 H    0.997 --    28 C    0.969
    54   1 H    0.996 --    29 C    0.969
    55   1 H    0.997 --    30 C    0.969
    56   1 H    0.999 --    31 C    0.968
 ---------------------------------------------------------------------------

molecular dipole:
                 x           y           z       tot (Debye)
 q only:       -6.759       4.062       3.033
   full:       -6.857       3.888       3.019      21.455

           -------------------------------------------------
          | TOTAL ENERGY              -80.317405558475 Eh   |
          | GRADIENT NORM               0.000518512739 Eh/α |
          | HOMO-LUMO GAP               3.393029235289 eV   |
           -------------------------------------------------

 * finished run on 2024/12/20 at 06:48:31.844
