   * xtb version 6.7.1 (edcfbbe) compiled by 'conda@3ef47c1a292c' on 2024-11-25

   ID    Z sym.   atoms
    1    6 C      1-4, 7-11, 13, 15-17, 19-24
    2    8 O      5, 6, 18
    3    7 N      12, 14
    4   35 Br     25
    5    1 H      26-47

          program call               : xtb C0573.xyz --opt --namespace C0573 --charge +1
          :  Hamiltonian                  GFN2-xTB          :
 * total energy  :   -73.6512556 Eh     change       -0.2371010E-08 Eh
 * total energy  :   -73.6603444 Eh     change       -0.9088782E-02 Eh
 * total energy  :   -73.6624106 Eh     change       -0.2066228E-02 Eh
 * total energy  :   -73.6629867 Eh     change       -0.5761478E-03 Eh
 * total energy  :   -73.6635182 Eh     change       -0.5314515E-03 Eh
 * total energy  :   -73.6639107 Eh     change       -0.3925612E-03 Eh
 * total energy  :   -73.6643917 Eh     change       -0.4809780E-03 Eh
 * total energy  :   -73.6649451 Eh     change       -0.5533537E-03 Eh
 * total energy  :   -73.6654686 Eh     change       -0.5235582E-03 Eh
 * total energy  :   -73.6658994 Eh     change       -0.4308081E-03 Eh
 * total energy  :   -73.6808328 Eh     change       -0.1973782E-04 Eh
 * total energy  :   -73.6808511 Eh     change       -0.1826674E-04 Eh
 * total energy  :   -73.6808414 Eh     change        0.9685819E-05 Eh
 * total energy  :   -73.6808792 Eh     change       -0.3778727E-04 Eh
 * total energy  :   -73.6808963 Eh     change       -0.1706208E-04 Eh
 * total energy  :   -73.6809102 Eh     change       -0.1391148E-04 Eh
 * total energy  :   -73.6809230 Eh     change       -0.1282418E-04 Eh
 * total energy  :   -73.6809300 Eh     change       -0.7007932E-05 Eh
 * total energy  :   -73.6809331 Eh     change       -0.3113598E-05 Eh
   *** GEOMETRY OPTIMIZATION CONVERGED AFTER 95 ITERATIONS ***

 final structure:
================
47
 xtb: 6.7.1 (edcfbbe)
C           -0.90085217729092       -0.99153939059070        0.10613100420241
C           -0.77356347801434       -0.56918095765680       -1.35508967023686
C            0.27283605830696       -1.29537080954747       -2.21087174419452
C            0.35935991420361       -2.80811913947183       -2.02286272466606
O           -0.46515254560307       -3.56318975254681       -1.61769595880985
O            1.60478489330726       -3.21661247597368       -2.38579852749715
C            2.35734086968920       -2.10915978405413       -2.85530356667223
C            1.75809607859885       -0.90017875825765       -2.12883717587966
C            2.24673876106938       -0.81598681285825       -0.66753288497168
C            3.72400977362392       -0.90410025181507       -0.53602378492848
C            4.68716953418102        0.04177328802500       -0.74601091490529
N            5.90083847199340       -0.53569477227622       -0.51151549474870
C            5.68795307924450       -1.79754728260281       -0.14278107990136
N            4.38226911169301       -2.05101237890661       -0.16202094910790
C            3.77444928361289       -3.30720444655423        0.19588161726239
C            7.16625062096341        0.13035493225427       -0.41216896414044
C            7.64903129297762        0.03374555960168        1.06485323112504
O            7.04938379938153       -0.70127150416743        1.81537533324628
C            8.81223234052444        0.82942646990139        1.44001118924844
C            9.56249308399598        1.58980303219355        0.53468208750529
C           10.65995562105133        2.30162988777479        0.96804680533452
C           11.02182706758771        2.26800137858472        2.31205127238391
C           10.29004640542705        1.51820341900795        3.22638372978565
C            9.19739293240582        0.80456338462062        2.78873909848191
Br          12.52743895696959        3.25305843917708        2.89489834001200
H           -0.99190761336811       -2.07068793680159        0.18428016889786
H           -1.80725053496839       -0.55304409660432        0.51506285433504
H           -0.07115450004858       -0.65262228688281        0.71969861974043
H           -1.73994254392105       -0.75272698552691       -1.82662470913131
H           -0.57925502671807        0.50380594383839       -1.41767683699988
H           -0.02872187402478       -1.15828650820738       -3.25870087788546
H            2.22491280215471       -2.01476056405300       -3.93943421729111
H            3.41169902126890       -2.29955614386576       -2.65244719698497
H            1.97884635944683        0.02969019964074       -2.65280281376101
H            1.90980750993469        0.13228467984190       -0.24805190822959
H            1.79214093869964       -1.62696033610444       -0.09978138517109
H            4.58548256837117        1.06613632527990       -1.04006377322448
H            6.45030299733048       -2.50546767000119        0.11527922591864
H            4.55047682275327       -4.05774768730653        0.32514857360772
H            3.22892480141997       -3.20628646960530        1.13555030523508
H            3.08255500491812       -3.64112838108857       -0.57880456929780
H            7.91013929282974       -0.35894146675492       -1.04735272712986
H            7.05147233050387        1.17051585252489       -0.71610246273504
H            9.30717633943649        1.62436942415011       -0.51233773251671
H           11.24233609950592        2.88427267735036        0.27179768027184
H           10.58120929337963        1.49677093026525        4.26433845573083
H            8.61538016141281        0.21389922595721        3.48043505869682

          :  Hamiltonian                  GFN2-xTB          :
         :: total energy             -73.680933135840 Eh    ::
         :: gradient norm              0.000805916515 Eh/a0 ::
         :: HOMO-LUMO gap              2.260701913798 eV    ::
         :: SCC energy               -74.656933408791 Eh    ::
         :: -> dispersion             -0.049319482662 Eh    ::
         :: repulsion energy           0.976000272950 Eh    ::

    * Orbital Energies and Occupations

         #    Occupation            Energy/Eh            Energy/eV
      -------------------------------------------------------------
         1        2.0000           -0.9286140             -25.2689
       ...           ...                  ...                  ...
        54        2.0000           -0.5703281             -15.5194
        55        2.0000           -0.5632161             -15.3259
        56        2.0000           -0.5578982             -15.1812
        57        2.0000           -0.5542473             -15.0818
        58        2.0000           -0.5517500             -15.0139
        59        2.0000           -0.5480069             -14.9120
        60        2.0000           -0.5405610             -14.7094
        61        2.0000           -0.5397712             -14.6879
        62        2.0000           -0.5353170             -14.5667
        63        2.0000           -0.5262339             -14.3196
        64        2.0000           -0.5060080             -13.7692
        65        2.0000           -0.5053395             -13.7510
        66        2.0000           -0.5023245             -13.6689 (HOMO)
        67                         -0.4192452             -11.4082 (LUMO)
        68                         -0.3947928             -10.7429
        69                         -0.3615067              -9.8371
        70                         -0.3564838              -9.7004
        71                         -0.3298889              -8.9767
        72                         -0.3297053              -8.9717
        73                         -0.2973596              -8.0916
        74                         -0.2230616              -6.0698
        75                         -0.1748907              -4.7590
        76                         -0.1371961              -3.7333
        77                         -0.1050719              -2.8592
       ...                                ...                  ...
       127                          0.5932986              16.1445
      -------------------------------------------------------------
                  HL-Gap            0.0830793 Eh            2.2607 eV

     #   Z          covCN         q      C6AA      α(0)
     1   6 C        3.750    -0.117    22.813     6.812
     2   6 C        3.799    -0.060    21.647     6.625
     3   6 C        3.890    -0.056    21.530     6.596
     4   6 C        2.781     0.355    20.977     7.502
     5   8 O        0.856    -0.343    20.572     6.081
     6   8 O        1.706    -0.273    18.527     5.811
     7   6 C        3.785     0.065    19.506     6.291
     8   6 C        3.875    -0.029    21.049     6.523
     9   6 C        3.805    -0.078    21.988     6.675
    10   6 C        3.094     0.044    26.913     8.503
    11   6 C        3.070    -0.027    28.597     8.768
    12   7 N        2.860     0.064    20.132     6.664
    13   6 C        3.081     0.057    26.642     8.462
    14   7 N        2.867     0.057    20.248     6.683
    15   6 C        3.692    -0.085    22.307     6.758
    16   6 C        3.743    -0.049    21.529     6.619
    17   6 C        2.822     0.227    23.243     7.900
    18   8 O        0.857    -0.354    20.781     6.112
    19   6 C        2.969    -0.019    28.481     8.754
    20   6 C        2.920    -0.026    28.653     8.778
    21   6 C        2.992    -0.028    28.685     8.786
    22   6 C        2.915     0.102    25.737     8.319
    23   6 C        2.988    -0.026    28.648     8.780
    24   6 C        2.929    -0.009    28.238     8.715
    25  35 Br       1.071    -0.090   187.487    22.077
    26   1 H        0.925     0.060     2.198     2.318
    27   1 H        0.925     0.056     2.247     2.344
    28   1 H        0.925     0.031     2.576     2.510
    29   1 H        0.924     0.064     2.152     2.294
    30   1 H        0.924     0.046     2.368     2.406
    31   1 H        0.923     0.074     2.043     2.235
    32   1 H        0.924     0.060     2.196     2.317
    33   1 H        0.924     0.048     2.345     2.395
    34   1 H        0.925     0.055     2.261     2.351
    35   1 H        0.924     0.087     1.906     2.159
    36   1 H        0.925     0.087     1.910     2.161
    37   1 H        0.926     0.094     1.837     2.119
    38   1 H        0.926     0.117     1.638     2.001
    39   1 H        0.925     0.095     1.827     2.113
    40   1 H        0.924     0.102     1.764     2.077
    41   1 H        0.924     0.117     1.634     1.999
    42   1 H        0.924     0.100     1.788     2.091
    43   1 H        0.925     0.100     1.783     2.088
    44   1 H        0.926     0.054     2.275     2.359
    45   1 H        0.926     0.080     1.974     2.197
    46   1 H        0.926     0.084     1.933     2.174
    47   1 H        0.926     0.086     1.920     2.167

Wiberg/Mayer (AO) data.
largest (>0.10) Wiberg bond orders for each atom

     #   Z sym  total        # sym  WBO       # sym  WBO       # sym  WBO
 ---------------------------------------------------------------------------
     1   6 C    3.992 --     2 C    1.020    28 H    0.985    27 H    0.984
                            26 H    0.983
     2   6 C    3.989 --     1 C    1.020     3 C    0.989    30 H    0.975
                            29 H    0.974
     3   6 C    3.986 --     2 C    0.989     8 C    0.978     4 C    0.950
                            31 H    0.934
     4   6 C    3.913 --     5 O    1.822     6 O    1.075     3 C    0.950
     5   8 O    2.112 --     4 C    1.822     6 O    0.159
     6   8 O    2.277 --     4 C    1.075     7 C    0.963     5 O    0.159
     7   6 C    3.940 --     8 C    0.988    33 H    0.969    32 H    0.966
                             6 O    0.963
     8   6 C    3.991 --     7 C    0.988     3 C    0.978     9 C    0.970
                            34 H    0.970
     9   6 C    3.984 --    10 C    1.026     8 C    0.970    36 H    0.959
                            35 H    0.956
    10   6 C    3.951 --    11 C    1.557    14 N    1.187     9 C    1.026
    11   6 C    3.940 --    10 C    1.557    12 N    1.203    37 H    0.963
    12   7 N    3.702 --    13 C    1.344    11 C    1.203    16 C    0.996
    13   6 C    3.945 --    14 N    1.358    12 N    1.344    38 H    0.953
    14   7 N    3.703 --    13 C    1.358    10 C    1.187    15 C    0.988
    15   6 C    3.931 --    14 N    0.988    39 H    0.975    40 H    0.959
                            41 H    0.957
    16   6 C    3.948 --    12 N    0.996    43 H    0.957    42 H    0.943
                            17 C    0.922
    17   6 C    3.921 --    18 O    1.803    19 C    1.083    16 C    0.922
    18   8 O    2.090 --    17 C    1.803
    19   6 C    3.983 --    20 C    1.346    24 C    1.341    17 C    1.083
    20   6 C    3.991 --    21 C    1.483    19 C    1.346    44 H    0.964
    21   6 C    3.987 --    20 C    1.483    22 C    1.373    45 H    0.964
    22   6 C    3.950 --    23 C    1.382    21 C    1.373    25 Br   1.042
    23   6 C    3.986 --    24 C    1.477    22 C    1.382    46 H    0.963
    24   6 C    3.983 --    23 C    1.477    19 C    1.341    47 H    0.961
    25  35 Br   1.202 --    22 C    1.042
    26   1 H    0.996 --     1 C    0.983
    27   1 H    0.997 --     1 C    0.984
    28   1 H    0.999 --     1 C    0.985
    29   1 H    0.996 --     2 C    0.974
    30   1 H    0.998 --     2 C    0.975
    31   1 H    0.993 --     3 C    0.934
    32   1 H    0.996 --     7 C    0.966
    33   1 H    0.997 --     7 C    0.969
    34   1 H    0.997 --     8 C    0.970
    35   1 H    0.992 --     9 C    0.956
    36   1 H    0.992 --     9 C    0.959
    37   1 H    0.991 --    11 C    0.963
    38   1 H    0.986 --    13 C    0.953
    39   1 H    0.990 --    15 C    0.975
    40   1 H    0.989 --    15 C    0.959
    41   1 H    0.986 --    15 C    0.957
    42   1 H    0.989 --    16 C    0.943
    43   1 H    0.989 --    16 C    0.957
    44   1 H    0.997 --    20 C    0.964
    45   1 H    0.993 --    21 C    0.964
    46   1 H    0.992 --    23 C    0.963
    47   1 H    0.993 --    24 C    0.961
 ---------------------------------------------------------------------------

molecular dipole:
                 x           y           z       tot (Debye)
 q only:       10.721      -0.281      -0.892
   full:       10.940      -0.158      -1.285      28.002

           -------------------------------------------------
          | TOTAL ENERGY              -73.680933135840 Eh   |
          | GRADIENT NORM               0.000805916515 Eh/α |
          | HOMO-LUMO GAP               2.260701913798 eV   |
           -------------------------------------------------

 * finished run on 2024/12/20 at 06:49:04.390
