   * xtb version 6.7.1 (edcfbbe) compiled by 'conda@3ef47c1a292c' on 2024-11-25

   ID    Z sym.   atoms
    1    8 O      1, 3, 29, 30
    2    7 N      2, 11, 13, 14, 28
    3    6 C      4-10, 12, 15-27
    4    1 H      31-48

          program call               : xtb C0570.xyz --opt --namespace C0570 --charge +1
          :  Hamiltonian                  GFN2-xTB          :
 * total energy  :   -84.4675013 Eh     change       -0.5995702E-09 Eh
 * total energy  :   -84.4789452 Eh     change       -0.1144392E-01 Eh
 * total energy  :   -84.4803030 Eh     change       -0.1357810E-02 Eh
 * total energy  :   -84.4802685 Eh     change        0.3451144E-04 Eh
 * total energy  :   -84.4806829 Eh     change       -0.4143916E-03 Eh
 * total energy  :   -84.4807677 Eh     change       -0.8478479E-04 Eh
 * total energy  :   -84.4808807 Eh     change       -0.1130152E-03 Eh
 * total energy  :   -84.4809554 Eh     change       -0.7474154E-04 Eh
 * total energy  :   -84.4810242 Eh     change       -0.6871338E-04 Eh
 * total energy  :   -84.4810975 Eh     change       -0.7332130E-04 Eh
 * total energy  :   -84.4819254 Eh     change       -0.1796175E-04 Eh
 * total energy  :   -84.4819449 Eh     change       -0.1947975E-04 Eh
 * total energy  :   -84.4819614 Eh     change       -0.1649630E-04 Eh
 * total energy  :   -84.4819743 Eh     change       -0.1293279E-04 Eh
 * total energy  :   -84.4819887 Eh     change       -0.1437145E-04 Eh
 * total energy  :   -84.4819926 Eh     change       -0.3912042E-05 Eh
 * total energy  :   -84.4820023 Eh     change       -0.9710526E-05 Eh
 * total energy  :   -84.4820067 Eh     change       -0.4410961E-05 Eh
 * total energy  :   -84.4820117 Eh     change       -0.4979972E-05 Eh
   *** GEOMETRY OPTIMIZATION CONVERGED AFTER 44 ITERATIONS ***

 final structure:
================
48
 xtb: 6.7.1 (edcfbbe)
O            1.55427658172308       -0.03724090486931       -0.40118250231862
N            2.72092467994489        0.27151675437680       -0.41246814357783
O            3.35979986625093        0.60082267322981       -1.38246242102431
C            3.42677745823497        0.23275467449511        0.86014235540384
C            4.77286052190665        0.56914317634333        0.90063323440006
C            5.44096440578392        0.52386870541866        2.10858769338079
C            4.77069210048291        0.14177876422230        3.26779772082879
C            3.42113226694638       -0.19109334806730        3.20986327770311
C            2.74139464510713       -0.14104810588679        2.00640004034208
C            5.51482770769240        0.10027601629702        4.58203811316023
N            6.75778903306209       -0.63547281690525        4.47050807577337
C            6.85563013576171       -1.93855215587346        4.15749326810754
N            5.81698848957824       -2.74216282870402        3.91862253137574
N            8.14388054618732       -2.31995076605569        4.13234517569467
C            8.92601949817468       -1.21270075506992        4.44859149596739
C            8.04522976732158       -0.13935168299608        4.65354051006682
C            8.51217928211581        1.12340221358543        4.97599306080073
C            9.88228027606355        1.27753015356982        5.09169969389056
C           10.75582344280076        0.21140717680814        4.89388278314458
C           10.29585880182000       -1.05229775288572        4.56852001946720
C            8.60819235501130       -3.66310551036878        3.85114561547718
C            8.09483715738167       -4.65476202199638        4.86901523825349
C            8.21772766268088       -4.37358704969837        6.22711452546700
C            7.75075770197255       -5.26933145128623        7.16889547264664
C            7.16513128393175       -6.45332721398182        6.74288485851632
C            7.04703618975344       -6.75570449236130        5.39460344338890
C            7.50803459476679       -5.84742754987340        4.45909812996411
N            6.66257682954209       -7.39522663179030        7.73214038958640
O            6.73419516456553       -7.06167236755180        8.89028620704382
O            6.20342180236307       -8.43163883834151        7.31834586826243
H            5.27033665753145        0.86713002748506       -0.00951987072068
H            6.48501668851429        0.79604413034488        2.15384244690078
H            2.89231344248337       -0.47012806354029        4.10943000687376
H            1.69226315184088       -0.38550209540777        1.94035179243705
H            5.76545543477618        1.11612804324171        4.89531781740916
H            4.89378461359077       -0.34947665133828        5.36375148938887
H            5.96098888825596       -3.71919195787362        3.72899193691688
H            4.88698732880876       -2.36496285172643        3.84973120422393
H            7.84779438213243        1.95743349163124        5.13203114375920
H           10.28270922413073        2.24655384891256        5.34176728747399
H           11.81646016828864        0.37428465450666        4.99582398345598
H           10.98384101706324       -1.86792354746614        4.41755225908696
H            8.30167207717759       -3.95246792802324        2.84037731688977
H            9.69996463552675       -3.64122211469443        3.87670185426861
H            8.68694709622765       -3.45547174356110        6.54786762423024
H            7.83646934088052       -5.07321655119572        8.22651299811841
H            6.59695183812620       -7.69103267712706        5.09900551926187
H            7.42788376574141       -6.07891407794476        3.40715745883173

          :  Hamiltonian                  GFN2-xTB          :
         :: total energy             -84.482011708428 Eh    ::
         :: gradient norm              0.000475018471 Eh/a0 ::
         :: HOMO-LUMO gap              3.032204885783 eV    ::
         :: SCC energy               -85.680674552528 Eh    ::
         :: -> dispersion             -0.056410715173 Eh    ::
         :: repulsion energy           1.198662844100 Eh    ::

    * Orbital Energies and Occupations

         #    Occupation            Energy/Eh            Energy/eV
      -------------------------------------------------------------
         1        2.0000           -0.8920126             -24.2729
       ...           ...                  ...                  ...
        63        2.0000           -0.5670910             -15.4313
        64        2.0000           -0.5615982             -15.2819
        65        2.0000           -0.5612281             -15.2718
        66        2.0000           -0.5573489             -15.1662
        67        2.0000           -0.5558559             -15.1256
        68        2.0000           -0.5551944             -15.1076
        69        2.0000           -0.5547090             -15.0944
        70        2.0000           -0.5447320             -14.8229
        71        2.0000           -0.5420250             -14.7493
        72        2.0000           -0.5416421             -14.7388
        73        2.0000           -0.5402861             -14.7019
        74        2.0000           -0.5305119             -14.4360
        75        2.0000           -0.5301348             -14.4257 (HOMO)
        76                         -0.4187034             -11.3935 (LUMO)
        77                         -0.4180919             -11.3769
        78                         -0.3969256             -10.8009
        79                         -0.3733820             -10.1602
        80                         -0.3728135             -10.1448
        81                         -0.3642425              -9.9115
        82                         -0.3534970              -9.6191
        83                         -0.3509983              -9.5512
        84                         -0.3492814              -9.5044
        85                         -0.2418369              -6.5807
        86                         -0.2393389              -6.5127
       ...                                ...                  ...
       138                          0.5427543              14.7691
      -------------------------------------------------------------
                  HL-Gap            0.1114315 Eh            3.0322 eV

     #   Z          covCN         q      C6AA      α(0)
     1   8 O        0.930    -0.360    20.867     6.126
     2   7 N        2.758     0.553    13.448     5.447
     3   8 O        0.930    -0.362    20.903     6.132
     4   6 C        2.917     0.009    27.827     8.650
     5   6 C        2.917    -0.018    28.463     8.749
     6   6 C        2.924    -0.033    28.824     8.804
     7   6 C        2.970     0.005    27.919     8.667
     8   6 C        2.923    -0.038    28.956     8.824
     9   6 C        2.917    -0.018    28.459     8.748
    10   6 C        3.746    -0.022    21.031     6.542
    11   7 N        2.820    -0.026    21.752     6.927
    12   6 C        2.995     0.195    23.843     8.010
    13   7 N        2.638    -0.243    26.341     7.622
    14   7 N        2.820    -0.026    21.754     6.927
    15   6 C        3.085     0.037    27.078     8.530
    16   6 C        3.084     0.037    27.078     8.530
    17   6 C        2.910    -0.036    28.893     8.814
    18   6 C        2.926    -0.021    28.529     8.759
    19   6 C        2.926    -0.021    28.529     8.759
    20   6 C        2.910    -0.036    28.892     8.814
    21   6 C        3.745    -0.021    21.024     6.541
    22   6 C        2.970     0.005    27.911     8.666
    23   6 C        2.924    -0.033    28.821     8.804
    24   6 C        2.917    -0.018    28.462     8.749
    25   6 C        2.918     0.009    27.826     8.650
    26   6 C        2.917    -0.018    28.456     8.748
    27   6 C        2.923    -0.038    28.946     8.823
    28   7 N        2.758     0.553    13.447     5.446
    29   8 O        0.930    -0.363    20.915     6.133
    30   8 O        0.930    -0.360    20.862     6.126
    31   1 H        0.926     0.097     1.809     2.104
    32   1 H        0.926     0.055     2.259     2.350
    33   1 H        0.926     0.059     2.209     2.324
    34   1 H        0.926     0.100     1.788     2.091
    35   1 H        0.924     0.100     1.781     2.087
    36   1 H        0.924     0.076     2.017     2.221
    37   1 H        0.860     0.223     0.997     1.564
    38   1 H        0.860     0.223     0.995     1.562
    39   1 H        0.926     0.066     2.130     2.282
    40   1 H        0.926     0.079     1.990     2.206
    41   1 H        0.926     0.079     1.990     2.206
    42   1 H        0.926     0.066     2.130     2.282
    43   1 H        0.924     0.076     2.026     2.226
    44   1 H        0.924     0.100     1.781     2.087
    45   1 H        0.926     0.054     2.265     2.353
    46   1 H        0.926     0.097     1.811     2.105
    47   1 H        0.926     0.100     1.789     2.091
    48   1 H        0.926     0.059     2.212     2.326

Wiberg/Mayer (AO) data.
largest (>0.10) Wiberg bond orders for each atom

     #   Z sym  total        # sym  WBO       # sym  WBO       # sym  WBO
 ---------------------------------------------------------------------------
     1   8 O    1.962 --     2 N    1.469     3 O    0.381
     2   7 N    3.915 --     1 O    1.469     3 O    1.468     4 C    0.940
     3   8 O    1.960 --     2 N    1.468     1 O    0.381
     4   6 C    3.970 --     9 C    1.399     5 C    1.392     2 N    0.940
     5   6 C    3.983 --     6 C    1.454     4 C    1.392    31 H    0.957
                             8 C    0.107
     6   6 C    3.991 --     5 C    1.454     7 C    1.405    32 H    0.967
                             9 C    0.109
     7   6 C    3.986 --     8 C    1.410     6 C    1.405    10 C    0.994
     8   6 C    3.989 --     9 C    1.444     7 C    1.410    33 H    0.965
                             5 C    0.107
     9   6 C    3.982 --     8 C    1.444     4 C    1.399    34 H    0.957
                             6 C    0.109
    10   6 C    3.948 --     7 C    0.994    11 N    0.968    36 H    0.960
                            35 H    0.949
    11   7 N    3.595 --    12 C    1.265    16 C    1.082    10 C    0.968
    12   6 C    3.972 --    13 N    1.277    11 N    1.265    14 N    1.265
    13   7 N    3.368 --    12 C    1.277    37 H    0.924    38 H    0.923
    14   7 N    3.595 --    12 C    1.265    15 C    1.082    21 C    0.969
    15   6 C    3.947 --    20 C    1.369    16 C    1.286    14 N    1.082
    16   6 C    3.947 --    17 C    1.369    15 C    1.286    11 N    1.082
    17   6 C    3.986 --    18 C    1.463    16 C    1.369    39 H    0.962
                            20 C    0.114
    18   6 C    3.980 --    17 C    1.463    19 C    1.408    40 H    0.966
    19   6 C    3.980 --    20 C    1.463    18 C    1.408    41 H    0.966
    20   6 C    3.986 --    19 C    1.463    15 C    1.369    42 H    0.962
                            17 C    0.114
    21   6 C    3.948 --    22 C    0.994    14 N    0.969    43 H    0.959
                            44 H    0.949
    22   6 C    3.985 --    27 C    1.411    23 C    1.405    21 C    0.994
    23   6 C    3.991 --    24 C    1.454    22 C    1.405    45 H    0.967
                            26 C    0.109
    24   6 C    3.983 --    23 C    1.454    25 C    1.392    46 H    0.957
                            27 C    0.107
    25   6 C    3.970 --    26 C    1.399    24 C    1.392    28 N    0.940
    26   6 C    3.982 --    27 C    1.444    25 C    1.399    47 H    0.957
                            23 C    0.109
    27   6 C    3.989 --    26 C    1.444    22 C    1.411    48 H    0.965
                            24 C    0.107
    28   7 N    3.915 --    30 O    1.470    29 O    1.467    25 C    0.940
    29   8 O    1.959 --    28 N    1.467    30 O    0.381
    30   8 O    1.962 --    28 N    1.470    29 O    0.381
    31   1 H    0.990 --     5 C    0.957
    32   1 H    0.996 --     6 C    0.967
    33   1 H    0.996 --     8 C    0.965
    34   1 H    0.990 --     9 C    0.957
    35   1 H    0.989 --    10 C    0.949
    36   1 H    0.993 --    10 C    0.960
    37   1 H    0.950 --    13 N    0.924
    38   1 H    0.950 --    13 N    0.923
    39   1 H    0.995 --    17 C    0.962
    40   1 H    0.993 --    18 C    0.966
    41   1 H    0.993 --    19 C    0.966
    42   1 H    0.995 --    20 C    0.962
    43   1 H    0.993 --    21 C    0.959
    44   1 H    0.988 --    21 C    0.949
    45   1 H    0.997 --    23 C    0.967
    46   1 H    0.990 --    24 C    0.957
    47   1 H    0.990 --    26 C    0.957
    48   1 H    0.996 --    27 C    0.965
 ---------------------------------------------------------------------------

molecular dipole:
                 x           y           z       tot (Debye)
 q only:       14.870      -2.206       8.294
   full:       14.798      -2.261       8.253      43.447

           -------------------------------------------------
          | TOTAL ENERGY              -84.482011708428 Eh   |
          | GRADIENT NORM               0.000475018471 Eh/α |
          | HOMO-LUMO GAP               3.032204885783 eV   |
           -------------------------------------------------

 * finished run on 2024/12/20 at 06:48:52.913
