   * xtb version 6.7.1 (edcfbbe) compiled by 'conda@3ef47c1a292c' on 2024-11-25

   ID    Z sym.   atoms
    1    6 C      1-3, 5, 6, 9, 11-16, 18-23
    2    7 N      4, 7
    3    8 O      8, 10, 17
    4   17 Cl     24
    5    1 H      25-46

          program call               : xtb C0579.xyz --opt --namespace C0579 --charge +1
          :  Hamiltonian                  GFN2-xTB          :
 * total energy  :   -71.9340856 Eh     change       -0.7201493E-09 Eh
 * total energy  :   -71.9450861 Eh     change       -0.1100048E-01 Eh
 * total energy  :   -71.9482815 Eh     change       -0.3195414E-02 Eh
 * total energy  :   -71.9493865 Eh     change       -0.1105013E-02 Eh
 * total energy  :   -71.9502292 Eh     change       -0.8426655E-03 Eh
 * total energy  :   -71.9507679 Eh     change       -0.5387272E-03 Eh
 * total energy  :   -71.9513806 Eh     change       -0.6127073E-03 Eh
 * total energy  :   -71.9519417 Eh     change       -0.5610606E-03 Eh
 * total energy  :   -71.9523850 Eh     change       -0.4433464E-03 Eh
 * total energy  :   -71.9526957 Eh     change       -0.3106754E-03 Eh
 * total energy  :   -71.9571249 Eh     change       -0.3841796E-04 Eh
 * total energy  :   -71.9571765 Eh     change       -0.5159476E-04 Eh
 * total energy  :   -71.9572003 Eh     change       -0.2385740E-04 Eh
 * total energy  :   -71.9572207 Eh     change       -0.2034253E-04 Eh
 * total energy  :   -71.9572452 Eh     change       -0.2454588E-04 Eh
 * total energy  :   -71.9572683 Eh     change       -0.2305518E-04 Eh
 * total energy  :   -71.9572781 Eh     change       -0.9848112E-05 Eh
 * total energy  :   -71.9572857 Eh     change       -0.7572161E-05 Eh
 * total energy  :   -71.9572906 Eh     change       -0.4967832E-05 Eh
   *** GEOMETRY OPTIMIZATION CONVERGED AFTER 46 ITERATIONS ***

 final structure:
================
46
 xtb: 6.7.1 (edcfbbe)
C            1.81813966331532       -1.09980720722316        0.83222636506916
C            0.52735030878454       -0.71212109779007        1.57201344785872
C            0.82444358223085       -0.00240097909067        2.83527146925625
N            0.86729517553724        1.31335562036136        3.07214348924675
C            1.21116295627269        1.51493479087293        4.38110670978479
C            1.38216542462429        0.30103189996913        4.96108033415362
N            1.12463569757578       -0.61721425310688        3.98893183118882
O            1.18505451886717       -1.96843563530542        4.14928273439749
C            2.48153905849353       -2.50742203334788        4.11510072008276
O            3.41148899123085       -1.78415305826663        3.94193791636695
C            2.46898854772073       -3.99129240265060        4.34842674998708
C            1.07702979369708       -4.59895384294573        4.19272872625849
C            3.45533451159446       -4.62511462033854        3.36036426484609
C            2.97845487252689       -4.18033784970471        5.78863575177318
C            0.53715399723278        2.35872451106330        2.13424723012693
C            1.36944144066604        2.29784374631746        0.82179047419923
O            0.81264751007460        1.92837646621040       -0.18462165486564
C            2.77338125190245        2.69764707025225        0.87614686505162
C            3.44197129028806        3.07352111488334        2.04680171101797
C            4.76857099643408        3.44321320054576        2.00615336388015
C            5.45446386377215        3.45142595327624        0.79347369282341
C            4.80531452318749        3.07943487233807       -0.38123533733046
C            3.48206696216027        2.70545385217732       -0.33479906917304
Cl           7.09834702051236        3.92686308376830        0.75089075768134
H            2.36335783630574       -0.21561794213505        0.51546755713254
H            1.55926391441779       -1.67449475334920       -0.05135079523044
H            2.47199618513765       -1.70057986679937        1.45847791792803
H           -0.07764886458410       -0.08219477711185        0.91954603806160
H           -0.03451788256182       -1.61825861221183        1.81062562368866
H            1.29177223820317        2.49191714723705        4.81283062052846
H            1.65597148740637        0.02435474606854        5.95833498422228
H            0.69106076922686       -4.44088009772675        3.18900138437747
H            1.13573944596911       -5.66950186725162        4.36800715777191
H            0.37724998935584       -4.17462923586598        4.90713646806663
H            4.42804563936094       -4.14591362442206        3.43117890235719
H            3.56904368707562       -5.68057632261016        3.58843661838151
H            3.09369600813371       -4.53160215672872        2.33893494847972
H            3.96012606793778       -3.72975767535982        5.91085790432895
H            2.29189965973326       -3.73705936178035        6.50640719431289
H            3.05591690017161       -5.24281306813309        5.99988306309673
H           -0.51251757318336        2.25953465529273        1.83685475255846
H            0.67519867770710        3.32613727146455        2.61809818382436
H            2.93867487287764        3.08401005813224        2.99976585674275
H            5.28157703092533        3.73343758729204        2.90872411200097
H            5.33991949190192        3.08944517014751       -1.31727703960749
H            2.96007245978303        2.41821952356242       -1.23520999671954

          :  Hamiltonian                  GFN2-xTB          :
         :: total energy             -71.957290648989 Eh    ::
         :: gradient norm              0.000899957085 Eh/a0 ::
         :: HOMO-LUMO gap              2.521982966549 eV    ::
         :: SCC energy               -72.910993133753 Eh    ::
         :: -> dispersion             -0.048408787119 Eh    ::
         :: repulsion energy           0.953702484764 Eh    ::

    * Orbital Energies and Occupations

         #    Occupation            Energy/Eh            Energy/eV
      -------------------------------------------------------------
         1        2.0000           -1.1500887             -31.2955
       ...           ...                  ...                  ...
        52        2.0000           -0.5736930             -15.6110
        53        2.0000           -0.5710493             -15.5390
        54        2.0000           -0.5692049             -15.4889
        55        2.0000           -0.5638884             -15.3442
        56        2.0000           -0.5617788             -15.2868
        57        2.0000           -0.5532053             -15.0535
        58        2.0000           -0.5516955             -15.0124
        59        2.0000           -0.5516563             -15.0113
        60        2.0000           -0.5435725             -14.7914
        61        2.0000           -0.5356947             -14.5770
        62        2.0000           -0.5295052             -14.4086
        63        2.0000           -0.5154598             -14.0264
        64        2.0000           -0.5064742             -13.7819 (HOMO)
        65                         -0.4137930             -11.2599 (LUMO)
        66                         -0.4029762             -10.9655
        67                         -0.3815559             -10.3827
        68                         -0.3703360             -10.0774
        69                         -0.3512933              -9.5592
        70                         -0.3240868              -8.8189
        71                         -0.2545706              -6.9272
        72                         -0.2274282              -6.1886
        73                         -0.2171176              -5.9081
        74                         -0.1474683              -4.0128
        75                         -0.0874693              -2.3802
       ...                                ...                  ...
       123                          0.5414485              14.7336
      -------------------------------------------------------------
                  HL-Gap            0.0926812 Eh            2.5220 eV

     #   Z          covCN         q      C6AA      α(0)
     1   6 C        3.753    -0.109    22.644     6.786
     2   6 C        3.803    -0.069    21.811     6.649
     3   6 C        3.071     0.097    25.782     8.326
     4   7 N        2.874     0.049    20.386     6.706
     5   6 C        3.065    -0.010    28.195     8.707
     6   6 C        3.011    -0.014    28.349     8.734
     7   7 N        2.930     0.187    18.127     6.324
     8   8 O        1.770    -0.199    17.310     5.618
     9   6 C        2.724     0.353    21.001     7.502
    10   8 O        0.856    -0.356    20.813     6.117
    11   6 C        3.901     0.015    20.276     6.401
    12   6 C        3.758    -0.124    22.932     6.827
    13   6 C        3.763    -0.119    22.827     6.810
    14   6 C        3.768    -0.115    22.746     6.797
    15   6 C        3.739    -0.051    21.572     6.627
    16   6 C        2.819     0.225    23.277     7.905
    17   8 O        0.858    -0.332    20.369     6.051
    18   6 C        2.968    -0.023    28.587     8.770
    19   6 C        2.920    -0.027    28.673     8.781
    20   6 C        2.955    -0.034    28.844     8.809
    21   6 C        2.887     0.117    25.415     8.265
    22   6 C        2.952    -0.031    28.768     8.797
    23   6 C        2.928    -0.011    28.288     8.722
    24  17 Cl       0.971    -0.099   102.251    15.470
    25   1 H        0.925     0.058     2.224     2.332
    26   1 H        0.925     0.080     1.974     2.197
    27   1 H        0.925     0.054     2.268     2.355
    28   1 H        0.925     0.101     1.777     2.085
    29   1 H        0.924     0.090     1.884     2.146
    30   1 H        0.926     0.110     1.700     2.039
    31   1 H        0.926     0.119     1.623     1.992
    32   1 H        0.925     0.051     2.310     2.377
    33   1 H        0.925     0.072     2.069     2.249
    34   1 H        0.925     0.057     2.230     2.335
    35   1 H        0.925     0.067     2.122     2.278
    36   1 H        0.925     0.073     2.057     2.243
    37   1 H        0.925     0.051     2.305     2.374
    38   1 H        0.925     0.064     2.158     2.297
    39   1 H        0.925     0.051     2.303     2.373
    40   1 H        0.925     0.078     2.000     2.212
    41   1 H        0.924     0.107     1.727     2.055
    42   1 H        0.924     0.099     1.791     2.093
    43   1 H        0.926     0.048     2.351     2.398
    44   1 H        0.926     0.078     1.996     2.209
    45   1 H        0.926     0.086     1.921     2.167
    46   1 H        0.926     0.089     1.889     2.149

Wiberg/Mayer (AO) data.
largest (>0.10) Wiberg bond orders for each atom

     #   Z sym  total        # sym  WBO       # sym  WBO       # sym  WBO
 ---------------------------------------------------------------------------
     1   6 C    3.982 --    27 H    0.985    25 H    0.984    26 H    0.979
                             2 C    0.975
     2   6 C    3.973 --     3 C    1.032     1 C    0.975    28 H    0.955
                            29 H    0.955
     3   6 C    3.937 --     4 N    1.327     7 N    1.292     2 C    1.032
     4   7 N    3.694 --     3 C    1.327     5 C    1.201    15 C    0.976
     5   6 C    3.944 --     6 C    1.606     4 N    1.201    30 H    0.958
     6   6 C    3.942 --     5 C    1.606     7 N    1.195    31 H    0.959
     7   7 N    3.688 --     3 C    1.292     6 C    1.195     8 O    0.994
     8   8 O    2.223 --     7 N    0.994     9 C    0.960    10 O    0.144
     9   6 C    3.877 --    10 O    1.842    11 C    0.961     8 O    0.960
    10   8 O    2.111 --     9 C    1.842     8 O    0.144
    11   6 C    3.977 --    12 C    0.997    13 C    0.975     9 C    0.961
                            14 C    0.953
    12   6 C    3.989 --    11 C    0.997    32 H    0.984    34 H    0.982
                            33 H    0.981
    13   6 C    3.985 --    37 H    0.985    35 H    0.983    36 H    0.979
                            11 C    0.975
    14   6 C    3.985 --    39 H    0.985    38 H    0.984    40 H    0.974
                            11 C    0.953
    15   6 C    3.933 --     4 N    0.976    42 H    0.958    41 H    0.951
                            16 C    0.921
    16   6 C    3.927 --    17 O    1.820    18 C    1.084    15 C    0.921
    17   8 O    2.089 --    16 C    1.820
    18   6 C    3.986 --    19 C    1.347    23 C    1.338    16 C    1.084
    19   6 C    3.991 --    20 C    1.485    18 C    1.347    43 H    0.963
    20   6 C    3.987 --    19 C    1.485    21 C    1.366    44 H    0.964
    21   6 C    3.928 --    22 C    1.371    20 C    1.366    24 Cl   1.038
    22   6 C    3.985 --    23 C    1.483    21 C    1.371    45 H    0.962
    23   6 C    3.983 --    22 C    1.483    18 C    1.338    46 H    0.961
    24  17 Cl   1.197 --    21 C    1.038
    25   1 H    0.997 --     1 C    0.984
    26   1 H    0.992 --     1 C    0.979
    27   1 H    0.997 --     1 C    0.985
    28   1 H    0.989 --     2 C    0.955
    29   1 H    0.992 --     2 C    0.955
    30   1 H    0.988 --     5 C    0.958
    31   1 H    0.985 --     6 C    0.959
    32   1 H    0.997 --    12 C    0.984
    33   1 H    0.995 --    12 C    0.981
    34   1 H    0.997 --    12 C    0.982
    35   1 H    0.996 --    13 C    0.983
    36   1 H    0.994 --    13 C    0.979
    37   1 H    0.997 --    13 C    0.985
    38   1 H    0.996 --    14 C    0.984
    39   1 H    0.997 --    14 C    0.985
    40   1 H    0.993 --    14 C    0.974
    41   1 H    0.988 --    15 C    0.951
    42   1 H    0.989 --    15 C    0.958
    43   1 H    0.998 --    19 C    0.963
    44   1 H    0.993 --    20 C    0.964
    45   1 H    0.992 --    22 C    0.962
    46   1 H    0.992 --    23 C    0.961
 ---------------------------------------------------------------------------

molecular dipole:
                 x           y           z       tot (Debye)
 q only:        2.930      -0.163       6.287
   full:        3.209       0.152       6.585      18.624

           -------------------------------------------------
          | TOTAL ENERGY              -71.957290648989 Eh   |
          | GRADIENT NORM               0.000899957085 Eh/α |
          | HOMO-LUMO GAP               2.521982966549 eV   |
           -------------------------------------------------

 * finished run on 2024/12/20 at 06:49:22.466
