   * xtb version 6.7.1 (edcfbbe) compiled by 'conda@3ef47c1a292c' on 2024-11-25

   ID    Z sym.   atoms
    1    6 C      1-4, 6-8, 10-12, 14-18, 20-23, 26, 27, 29-36, 39-42
    2    7 N      5, 13, 19, 28
    3   17 Cl     9, 37, 38, 45
    4    8 O      24, 25, 43, 44
    5    1 H      46-84

          program call               : xtb C0575.xyz --opt --namespace C0575 --charge +1
          :  Hamiltonian                  GFN2-xTB          :
 * total energy  :  -136.4416285 Eh     change       -0.5542176E-08 Eh
 * total energy  :  -136.4638568 Eh     change       -0.2222837E-01 Eh
 * total energy  :  -136.4742259 Eh     change       -0.1036909E-01 Eh
 * total energy  :  -136.4789585 Eh     change       -0.4732538E-02 Eh
 * total energy  :  -136.4828227 Eh     change       -0.3864248E-02 Eh
 * total energy  :  -136.4854438 Eh     change       -0.2621076E-02 Eh
 * total energy  :  -136.4876198 Eh     change       -0.2176027E-02 Eh
 * total energy  :  -136.4896595 Eh     change       -0.2039686E-02 Eh
 * total energy  :  -136.4915549 Eh     change       -0.1895342E-02 Eh
 * total energy  :  -136.4933894 Eh     change       -0.1834582E-02 Eh
 * total energy  :  -136.5154487 Eh     change       -0.2639639E-04 Eh
 * total energy  :  -136.5154628 Eh     change       -0.1410522E-04 Eh
 * total energy  :  -136.5154767 Eh     change       -0.1389444E-04 Eh
 * total energy  :  -136.5154942 Eh     change       -0.1750709E-04 Eh
 * total energy  :  -136.5155026 Eh     change       -0.8380750E-05 Eh
 * total energy  :  -136.5155225 Eh     change       -0.1983894E-04 Eh
 * total energy  :  -136.5155281 Eh     change       -0.5677143E-05 Eh
 * total energy  :  -136.5155342 Eh     change       -0.6097775E-05 Eh
 * total energy  :  -136.5155375 Eh     change       -0.3218196E-05 Eh
   *** GEOMETRY OPTIMIZATION CONVERGED AFTER 67 ITERATIONS ***

 final structure:
================
84
 xtb: 6.7.1 (edcfbbe)
C            0.97173009625578       -1.71659261314805        1.42479186798375
C            0.51704678115368       -0.42803132031882        2.09930252745212
C            1.18417770116078        0.82023438751301        1.52177329839920
C            0.65613761442088        1.20740501436616        0.13658731811543
N           -0.63256443846262        1.85033658497433        0.21136752213575
C           -1.81863971753336        1.18893154993902        0.00420446115173
C           -2.09557712759429       -0.11853401158697       -0.36129578734141
C           -3.42562837838656       -0.49220733370212       -0.47543127057808
Cl          -3.80639788127812       -2.11311968889689       -0.90462205240984
C           -4.45898717111758        0.42610763508669       -0.24454234319544
C           -4.18538821244112        1.73757243519220        0.11398709653617
C           -2.85661972820479        2.10546453206891        0.24728476582790
N           -2.26514027653289        3.29387935552525        0.60291458640631
C           -0.90035870513191        3.12434535883279        0.60916249538348
C           -0.04548021059820        4.16687728411501        0.96710212224771
C            1.33475575148742        4.24677381820855        1.05790438797989
C            1.90980068918196        5.41984687926195        1.52987630221887
C            3.22667558181256        5.81607989812919        1.73956233127129
N            4.40828245874809        5.16438239763547        1.50618715923330
C            4.65157533792633        3.87720276964198        0.90552901480381
C            4.85046965801112        4.00934022837887       -0.61064508421534
C            5.52666762276690        2.78184787793766       -1.21332116000587
C            4.67799233980641        1.54027342345466       -1.11031995714710
O            3.57738123532888        1.49402833318886       -0.62080719398760
O            5.28703853393771        0.48257215612146       -1.63071487002778
C            5.45316166948017        6.00205785267032        1.83349690170688
C            4.89498686886577        7.19386743696165        2.32012711973115
N            3.52954610989268        7.05115695052518        2.26351167384070
C            2.63779351327385        8.09520970861176        2.71344468551645
C            2.45226542238123        9.19334645712881        1.65917682369442
C            1.57509489334917        8.78149928878623        0.47566258084734
C            0.09086283618774        8.74322137580771        0.82314143095448
C            5.69406916242570        8.24093737389605        2.74763982845859
C            7.06928921659038        8.07053225752378        2.67259869855334
C            7.62720869046955        6.88260960702357        2.17951307368092
C            6.82476129164528        5.83343117763215        1.75334214572340
Cl           9.33602500724617        6.71386694121210        2.09218680692817
Cl           8.09864427388750        9.34640751628665        3.18968518772112
C           -3.00181675556248        4.41987738683505        1.12272425430447
C           -3.04381877260851        4.43301223137834        2.65713663233362
C           -3.65412748721385        3.15749664152001        3.24090520383677
C           -2.67610953657711        1.99462532622176        3.18110511698764
O           -1.48608499936259        2.13373419943222        3.13094179502000
O           -3.21684751872650        0.77126465824056        3.20529055931210
Cl          -6.10003510265138       -0.07289843278748       -0.39250665636620
H            0.75182796795950       -1.71879490349368        0.35960468603502
H            0.47072508096246       -2.57106146251705        1.87164153051679
H            2.04456758099926       -1.84906319891750        1.54685624369088
H           -0.56702419239384       -0.32685544378403        2.03224819436313
H            0.76627719282334       -0.48554261102887        3.15961837879295
H            1.01184305399848        1.65260717381632        2.20490627223893
H            2.25865874810367        0.65406460740317        1.43540228759469
H            1.35734912730094        1.86758248269386       -0.37262359997269
H            0.54321658720205        0.31854927908204       -0.48268993161730
H           -1.32493717031907       -0.84787649791762       -0.53985068418733
H           -5.00126230679858        2.42340391911703        0.27050586256083
H           -0.56576921822583        5.06901471738395        1.25489488593370
H            1.94585320392794        3.41185746791789        0.77024970297950
H            1.19173565365101        6.18144739297413        1.79339162948548
H            5.56101444771067        3.47788381126502        1.36225355880119
H            3.83783374672430        3.19355035030300        1.13595583695117
H            3.88350902641862        4.16697856041631       -1.09099364654636
H            5.47524954362933        4.88263237249672       -0.80634759448572
H            5.73949442688582        2.94623990104552       -2.27128367081655
H            6.48183969890788        2.57691909703559       -0.72587077444534
H            4.73899725560424       -0.31637344014789       -1.57150439318444
H            1.67989225675052        7.66381659426611        3.00102422427619
H            3.08518944363310        8.52934187838660        3.61140219763421
H            2.00804929727606       10.06244294108202        2.14622142046987
H            3.43803353716753        9.48434247379089        1.29203866597868
H            1.72012337642637        9.50642275802628       -0.32653076041595
H            1.89712400499745        7.80876703396168        0.09826369450273
H           -0.24896714197044        9.72775141613365        1.13469827251691
H           -0.48948733481685        8.44201786048651       -0.04532239949373
H           -0.11935136898757        8.04499659266791        1.63061494400385
H            5.28921538257214        9.16403094036813        3.12558190531444
H            7.28248143087871        4.93483522110181        1.37700605634956
H           -2.56044383151812        5.34894884461386        0.75408076010809
H           -4.01543270487501        4.35604277872958        0.72313912445368
H           -2.03078458031514        4.53024272092412        3.05054806546078
H           -3.62638203643760        5.29864277280189        2.97234430322723
H           -3.87866656698020        3.32161825772173        4.29883156145884
H           -4.58699025258415        2.90050984523578        2.73547721553082
H           -4.18009070399886        0.76573258789725        3.28361457280245

          :  Hamiltonian                  GFN2-xTB          :
         :: total energy            -136.515537462146 Eh    ::
         :: gradient norm              0.000739909083 Eh/a0 ::
         :: HOMO-LUMO gap              1.658638072371 eV    ::
         :: SCC energy              -138.216934218687 Eh    ::
         :: -> dispersion             -0.111103135054 Eh    ::
         :: repulsion energy           1.701396756541 Eh    ::

    * Orbital Energies and Occupations

         #    Occupation            Energy/Eh            Energy/eV
      -------------------------------------------------------------
         1        2.0000           -1.1363530             -30.9217
       ...           ...                  ...                  ...
       109        2.0000           -0.5130071             -13.9596
       110        2.0000           -0.5108556             -13.9011
       111        2.0000           -0.5065252             -13.7833
       112        2.0000           -0.5026500             -13.6778
       113        2.0000           -0.5008608             -13.6291
       114        2.0000           -0.4996139             -13.5952
       115        2.0000           -0.4979545             -13.5500
       116        2.0000           -0.4963619             -13.5067
       117        2.0000           -0.4884294             -13.2908
       118        2.0000           -0.4876768             -13.2704
       119        2.0000           -0.4841678             -13.1749
       120        2.0000           -0.4766343             -12.9699
       121        2.0000           -0.4423749             -12.0376 (HOMO)
       122                         -0.3814211             -10.3790 (LUMO)
       123                         -0.3404161              -9.2632
       124                         -0.3292171              -8.9585
       125                         -0.3287671              -8.9462
       126                         -0.3250334              -8.8446
       127                         -0.3242135              -8.8223
       128                         -0.3222181              -8.7680
       129                         -0.2791022              -7.5948
       130                         -0.2282842              -6.2119
       131                         -0.2255028              -6.1362
       132                         -0.2225016              -6.0546
       ...                                ...                  ...
       239                          0.5829979              15.8642
      -------------------------------------------------------------
                  HL-Gap            0.0609538 Eh            1.6586 eV

     #   Z          covCN         q      C6AA      α(0)
     1   6 C        3.751    -0.106    22.591     6.778
     2   6 C        3.800    -0.060    21.651     6.625
     3   6 C        3.802    -0.070    21.832     6.652
     4   6 C        3.742    -0.020    21.003     6.538
     5   7 N        2.817     0.001    21.246     6.846
     6   6 C        3.076     0.045    26.915     8.506
     7   6 C        2.953    -0.054    29.347     8.885
     8   6 C        2.920     0.086    26.088     8.376
     9  17 Cl       0.998    -0.114   102.717    15.505
    10   6 C        2.922     0.083    26.161     8.388
    11   6 C        2.953    -0.066    29.652     8.931
    12   6 C        3.065     0.037    27.111     8.538
    13   7 N        2.824    -0.027    21.760     6.928
    14   6 C        3.025     0.120    25.330     8.256
    15   6 C        2.911    -0.088    30.211     9.013
    16   6 C        2.891    -0.020    28.495     8.752
    17   6 C        2.911    -0.099    30.493     9.055
    18   6 C        3.008     0.109    25.576     8.296
    19   7 N        2.817    -0.022    21.668     6.914
    20   6 C        3.743    -0.018    20.965     6.532
    21   6 C        3.803    -0.065    21.740     6.638
    22   6 C        3.804    -0.098    22.360     6.732
    23   6 C        2.689     0.364    20.827     7.469
    24   8 O        0.856    -0.432    22.329     6.335
    25   8 O        1.660    -0.361    20.106     6.053
    26   6 C        3.070     0.036    27.125     8.540
    27   6 C        3.062     0.039    27.069     8.532
    28   7 N        2.824    -0.022    21.678     6.915
    29   6 C        3.741    -0.014    20.898     6.522
    30   6 C        3.802    -0.071    21.852     6.655
    31   6 C        3.800    -0.059    21.642     6.624
    32   6 C        3.751    -0.107    22.598     6.779
    33   6 C        2.953    -0.060    29.492     8.907
    34   6 C        2.922     0.086    26.081     8.375
    35   6 C        2.922     0.085    26.100     8.378
    36   6 C        2.953    -0.061    29.506     8.909
    37  17 Cl       0.999    -0.114   102.723    15.506
    38  17 Cl       0.999    -0.113   102.673    15.502
    39   6 C        3.740    -0.013    20.886     6.521
    40   6 C        3.802    -0.069    21.817     6.650
    41   6 C        3.801    -0.106    22.528     6.758
    42   6 C        2.688     0.359    20.915     7.484
    43   8 O        0.857    -0.385    21.380     6.199
    44   8 O        1.659    -0.367    20.227     6.071
    45  17 Cl       0.996    -0.121   102.938    15.522
    46   1 H        0.925     0.027     2.625     2.534
    47   1 H        0.925     0.044     2.399     2.422
    48   1 H        0.925     0.037     2.482     2.464
    49   1 H        0.924     0.044     2.395     2.420
    50   1 H        0.924     0.047     2.361     2.403
    51   1 H        0.924     0.057     2.229     2.335
    52   1 H        0.924     0.059     2.217     2.328
    53   1 H        0.925     0.084     1.933     2.174
    54   1 H        0.925     0.074     2.046     2.237
    55   1 H        0.926     0.088     1.897     2.154
    56   1 H        0.926     0.073     2.055     2.241
    57   1 H        0.926     0.050     2.315     2.379
    58   1 H        0.926     0.062     2.177     2.307
    59   1 H        0.926     0.057     2.239     2.340
    60   1 H        0.924     0.070     2.084     2.258
    61   1 H        0.925     0.086     1.914     2.164
    62   1 H        0.924     0.061     2.188     2.313
    63   1 H        0.924     0.058     2.220     2.330
    64   1 H        0.924     0.091     1.868     2.137
    65   1 H        0.924     0.084     1.942     2.179
    66   1 H        0.804     0.341     0.610     1.227
    67   1 H        0.925     0.070     2.087     2.259
    68   1 H        0.924     0.068     2.105     2.269
    69   1 H        0.924     0.060     2.201     2.320
    70   1 H        0.924     0.049     2.329     2.387
    71   1 H        0.924     0.047     2.355     2.400
    72   1 H        0.924     0.035     2.522     2.483
    73   1 H        0.925     0.046     2.373     2.409
    74   1 H        0.925     0.040     2.445     2.445
    75   1 H        0.925     0.027     2.628     2.535
    76   1 H        0.926     0.083     1.948     2.183
    77   1 H        0.926     0.080     1.978     2.199
    78   1 H        0.924     0.069     2.093     2.262
    79   1 H        0.924     0.073     2.052     2.240
    80   1 H        0.924     0.074     2.038     2.233
    81   1 H        0.925     0.065     2.147     2.291
    82   1 H        0.924     0.082     1.955     2.187
    83   1 H        0.924     0.058     2.227     2.334
    84   1 H        0.805     0.330     0.638     1.255

Wiberg/Mayer (AO) data.
largest (>0.10) Wiberg bond orders for each atom

     #   Z sym  total        # sym  WBO       # sym  WBO       # sym  WBO
 ---------------------------------------------------------------------------
     1   6 C    3.996 --     2 C    1.021    48 H    0.987    47 H    0.986
                            46 H    0.982
     2   6 C    3.994 --     1 C    1.021     3 C    1.008    50 H    0.976
                            49 H    0.974
     3   6 C    3.986 --     2 C    1.008     4 C    0.988    51 H    0.972
                            52 H    0.970
     4   6 C    3.944 --     3 C    0.988     5 N    0.974    54 H    0.961
                            53 H    0.952
     5   7 N    3.596 --    14 C    1.219     6 C    1.149     4 C    0.974
     6   6 C    3.965 --     7 C    1.355    12 C    1.248     5 N    1.149
     7   6 C    3.965 --     8 C    1.416     6 C    1.355    55 H    0.954
     8   6 C    3.917 --     7 C    1.416    10 C    1.324     9 Cl   1.014
     9  17 Cl   1.161 --     8 C    1.014
    10   6 C    3.911 --    11 C    1.412     8 C    1.324    45 Cl   1.009
    11   6 C    3.966 --    10 C    1.412    12 C    1.357    56 H    0.958
    12   6 C    3.962 --    11 C    1.357     6 C    1.248    13 N    1.142
    13   7 N    3.562 --    14 C    1.180    12 C    1.142    39 C    0.985
    14   6 C    3.918 --    15 C    1.309     5 N    1.219    13 N    1.180
    15   6 C    3.936 --    16 C    1.433    14 C    1.309    57 H    0.950
    16   6 C    3.959 --    15 C    1.433    17 C    1.407    58 H    0.947
    17   6 C    3.935 --    16 C    1.407    18 C    1.330    59 H    0.943
    18   6 C    3.913 --    17 C    1.330    19 N    1.191    28 N    1.186
    19   7 N    3.568 --    18 C    1.191    26 C    1.133    20 C    0.984
    20   6 C    3.954 --    21 C    0.991    19 N    0.984    60 H    0.963
                            61 H    0.956
    21   6 C    3.989 --    22 C    1.009    20 C    0.991    62 H    0.975
                            63 H    0.974
    22   6 C    3.992 --    21 C    1.009    23 C    0.981    65 H    0.950
                            64 H    0.947
    23   6 C    3.913 --    24 O    1.731    25 O    1.163    22 C    0.981
    24   8 O    2.016 --    23 C    1.731    25 O    0.174
    25   8 O    2.225 --    23 C    1.163    66 H    0.858    24 O    0.174
    26   6 C    3.962 --    36 C    1.362    27 C    1.255    19 N    1.133
    27   6 C    3.964 --    33 C    1.358    26 C    1.255    28 N    1.144
    28   7 N    3.570 --    18 C    1.186    27 C    1.144    29 C    0.980
    29   6 C    3.955 --    30 C    0.991    28 N    0.980    68 H    0.963
                            67 H    0.959
    30   6 C    3.987 --    31 C    1.008    29 C    0.991    70 H    0.975
                            69 H    0.971
    31   6 C    3.996 --    32 C    1.021    30 C    1.008    71 H    0.976
                            72 H    0.975
    32   6 C    3.996 --    31 C    1.021    74 H    0.987    73 H    0.987
                            75 H    0.982
    33   6 C    3.966 --    34 C    1.411    27 C    1.358    76 H    0.959
    34   6 C    3.916 --    33 C    1.411    35 C    1.327    38 Cl   1.016
    35   6 C    3.914 --    36 C    1.409    34 C    1.327    37 Cl   1.014
    36   6 C    3.967 --    35 C    1.409    26 C    1.362    77 H    0.959
    37  17 Cl   1.162 --    35 C    1.014
    38  17 Cl   1.164 --    34 C    1.016
    39   6 C    3.960 --    40 C    0.993    13 N    0.985    79 H    0.964
                            78 H    0.962
    40   6 C    3.987 --    41 C    1.007    39 C    0.993    81 H    0.972
                            80 H    0.969
    41   6 C    3.995 --    40 C    1.007    42 C    0.969    83 H    0.964
                            82 H    0.945
    42   6 C    3.915 --    43 O    1.772    44 O    1.134    41 C    0.969
    43   8 O    2.058 --    42 C    1.772    44 O    0.161
    44   8 O    2.213 --    42 C    1.134    84 H    0.868    43 O    0.161
    45  17 Cl   1.154 --    10 C    1.009
    46   1 H    0.999 --     1 C    0.982
    47   1 H    0.998 --     1 C    0.986
    48   1 H    0.999 --     1 C    0.987
    49   1 H    0.998 --     2 C    0.974
    50   1 H    0.997 --     2 C    0.976
    51   1 H    0.997 --     3 C    0.972
    52   1 H    0.996 --     3 C    0.970
    53   1 H    0.991 --     4 C    0.952
    54   1 H    0.994 --     4 C    0.961
    55   1 H    0.992 --     7 C    0.954
    56   1 H    0.994 --    11 C    0.958
    57   1 H    0.996 --    15 C    0.950
    58   1 H    0.996 --    16 C    0.947
    59   1 H    0.996 --    17 C    0.943
    60   1 H    0.994 --    20 C    0.963
    61   1 H    0.992 --    20 C    0.956
    62   1 H    0.996 --    21 C    0.975
    63   1 H    0.996 --    21 C    0.974
    64   1 H    0.991 --    22 C    0.947
    65   1 H    0.993 --    22 C    0.950
    66   1 H    0.883 --    25 O    0.858
    67   1 H    0.994 --    29 C    0.959
    68   1 H    0.994 --    29 C    0.963
    69   1 H    0.995 --    30 C    0.971
    70   1 H    0.998 --    30 C    0.975
    71   1 H    0.997 --    31 C    0.976
    72   1 H    0.999 --    31 C    0.975
    73   1 H    0.998 --    32 C    0.987
    74   1 H    0.998 --    32 C    0.987
    75   1 H    0.999 --    32 C    0.982
    76   1 H    0.993 --    33 C    0.959
    77   1 H    0.993 --    36 C    0.959
    78   1 H    0.994 --    39 C    0.962
    79   1 H    0.994 --    39 C    0.964
    80   1 H    0.994 --    40 C    0.969
    81   1 H    0.995 --    40 C    0.972
    82   1 H    0.993 --    41 C    0.945
    83   1 H    0.997 --    41 C    0.964
    84   1 H    0.891 --    44 O    0.868
 ---------------------------------------------------------------------------

molecular dipole:
                 x           y           z       tot (Debye)
 q only:        1.493       8.569       2.051
   full:        1.267       8.243       2.008      21.804

           -------------------------------------------------
          | TOTAL ENERGY             -136.515537462146 Eh   |
          | GRADIENT NORM               0.000739909083 Eh/α |
          | HOMO-LUMO GAP               1.658638072371 eV   |
           -------------------------------------------------

 * finished run on 2024/12/20 at 06:49:16.562
