   * xtb version 6.7.1 (edcfbbe) compiled by 'conda@3ef47c1a292c' on 2024-11-25

   ID    Z sym.   atoms
    1    8 O      1
    2    6 C      2-4, 6-16
    3    7 N      5
    4    1 H      17-40

          program call               : xtb C0571.xyz --opt --namespace C0571 --charge +1
          :  Hamiltonian                  GFN2-xTB          :
 * total energy  :   -48.7844960 Eh     change       -0.2719574E-08 Eh
 * total energy  :   -48.7933840 Eh     change       -0.8887999E-02 Eh
 * total energy  :   -48.7962031 Eh     change       -0.2819087E-02 Eh
 * total energy  :   -48.7966804 Eh     change       -0.4772855E-03 Eh
 * total energy  :   -48.7969539 Eh     change       -0.2734519E-03 Eh
 * total energy  :   -48.7969355 Eh     change        0.1837780E-04 Eh
 * total energy  :   -48.7970758 Eh     change       -0.1402839E-03 Eh
 * total energy  :   -48.7972815 Eh     change       -0.2057808E-03 Eh
 * total energy  :   -48.7975075 Eh     change       -0.2260007E-03 Eh
 * total energy  :   -48.7977030 Eh     change       -0.1954436E-03 Eh
 * total energy  :   -48.8086113 Eh     change       -0.6698336E-04 Eh
 * total energy  :   -48.8086514 Eh     change       -0.4008381E-04 Eh
 * total energy  :   -48.8087045 Eh     change       -0.5318551E-04 Eh
 * total energy  :   -48.8087253 Eh     change       -0.2070729E-04 Eh
 * total energy  :   -48.8087653 Eh     change       -0.3999619E-04 Eh
 * total energy  :   -48.8087805 Eh     change       -0.1522614E-04 Eh
 * total energy  :   -48.8087954 Eh     change       -0.1487494E-04 Eh
 * total energy  :   -48.8088042 Eh     change       -0.8844254E-05 Eh
 * total energy  :   -48.8088090 Eh     change       -0.4836904E-05 Eh
   *** GEOMETRY OPTIMIZATION CONVERGED AFTER 101 ITERATIONS ***

 final structure:
================
40
 xtb: 6.7.1 (edcfbbe)
O            1.93797496579424       -0.50208324339325        0.86370506022567
C            0.78191825227071        0.20724484734236        0.46401614877485
C            0.49920944172739        1.34496829215920        1.46835357785251
C            1.73173821852638        1.83134633727041        2.23202354425768
N            2.61362207706503        2.83624358171041        1.56724139118368
C            1.91461558919987        4.16672960461908        1.50308781439441
C            2.74981315027994        5.27522344323986        0.90980074393507
C            2.71668415762852        5.42356668781898       -0.47660612651442
C            3.46719875898342        6.39460555118033       -1.10581767190580
C            4.25899882241200        7.23592562274397       -0.34680074256524
C            4.28008197590766        7.13940786473210        1.03669479165486
C            3.51173949453363        6.15876249558563        1.68370798623985
C            3.53770557902653        6.14165325742510        3.18440554431266
C            5.11828953876457        8.09469149407866        1.82505555493657
C            3.84118125133290        2.94989848834637        2.37546641857495
C            2.99813088822622        2.38443940070786        0.22033950869783
H            1.92183980983061       -1.38362758162978        0.48011731938759
H            0.92515577352078        0.60103486263932       -0.55179151155217
H           -0.09045790181385       -0.45243400179677        0.43762964092849
H           -0.02434813102305        2.15368610806919        0.96130473246902
H           -0.17684493155543        0.95530219604018        2.23016200458219
H            1.40857182235736        2.26666099328258        3.17916090577532
H            2.33837148883978        0.94810579135908        2.44381966057811
H            1.59186496253063        4.41549349172541        2.51389363599558
H            1.02245264675824        4.03507537147981        0.88925795536936
H            2.08059681222904        4.78386713204779       -1.07024198265555
H            3.43114182639597        6.49712516627470       -2.17844833378139
H            4.85460750135503        7.99274564753877       -0.83328506008992
H            4.52555780955053        5.86412515185810        3.55035326890356
H            3.32974219381463        7.14227806373465        3.55683938141759
H            2.80781731308142        5.47333414151884        3.62755542829734
H            4.48956065469644        8.74985306602525        2.42729670698188
H            5.78979786223692        7.56737163049428        2.50041828487977
H            5.71365503310093        8.71520787586451        1.16168138400209
H            4.38992247366059        2.01049597295574        2.34639314913208
H            4.47087488111386        3.74129028006378        1.97384468934360
H            3.59620483313602        3.18076190715771        3.40970158098535
H            3.33610612008227        1.35064791297164        0.27001008219559
H            2.14933389176712        2.44573680137121       -0.45411646614398
H            3.79664309271232        3.01361829336615       -0.16756000106530

          :  Hamiltonian                  GFN2-xTB          :
         :: total energy             -48.808809035663 Eh    ::
         :: gradient norm              0.000809052401 Eh/a0 ::
         :: HOMO-LUMO gap              4.280345160267 eV    ::
         :: SCC energy               -49.536214950228 Eh    ::
         :: -> dispersion             -0.036556591079 Eh    ::
         :: repulsion energy           0.727405914564 Eh    ::

    * Orbital Energies and Occupations

         #    Occupation            Energy/Eh            Energy/eV
      -------------------------------------------------------------
         1        2.0000           -0.8465040             -23.0345
       ...           ...                  ...                  ...
        33        2.0000           -0.5935031             -16.1500
        34        2.0000           -0.5873458             -15.9825
        35        2.0000           -0.5835454             -15.8791
        36        2.0000           -0.5809750             -15.8091
        37        2.0000           -0.5792161             -15.7613
        38        2.0000           -0.5745594             -15.6346
        39        2.0000           -0.5676322             -15.4461
        40        2.0000           -0.5548679             -15.0987
        41        2.0000           -0.5368529             -14.6085
        42        2.0000           -0.5340515             -14.5323
        43        2.0000           -0.5292140             -14.4006
        44        2.0000           -0.5116986             -13.9240
        45        2.0000           -0.5004798             -13.6187 (HOMO)
        46                         -0.3431800              -9.3384 (LUMO)
        47                         -0.3310452              -9.0082
        48                         -0.2243965              -6.1061
        49                         -0.1945822              -5.2949
        50                         -0.1416273              -3.8539
        51                         -0.1321973              -3.5973
        52                         -0.1260724              -3.4306
        53                         -0.0967869              -2.6337
        54                         -0.0688706              -1.8741
        55                         -0.0504108              -1.3717
        56                         -0.0311191              -0.8468
       ...                                ...                  ...
        88                          0.5363262              14.5942
      -------------------------------------------------------------
                  HL-Gap            0.1572998 Eh            4.2803 eV

     #   Z          covCN         q      C6AA      α(0)
     1   8 O        1.655    -0.447    21.788     6.301
     2   6 C        3.671     0.073    19.597     6.345
     3   6 C        3.798    -0.075    21.937     6.669
     4   6 C        3.765    -0.041    21.343     6.585
     5   7 N        3.621     0.131    19.009     6.475
     6   6 C        3.762    -0.039    21.309     6.580
     7   6 C        2.966    -0.020    28.514     8.759
     8   6 C        2.926    -0.048    29.204     8.862
     9   6 C        2.915    -0.031    28.781     8.797
    10   6 C        2.925    -0.034    28.836     8.806
    11   6 C        2.971     0.017    27.622     8.621
    12   6 C        2.968     0.001    28.004     8.680
    13   6 C        3.758    -0.120    22.856     6.816
    14   6 C        3.759    -0.118    22.815     6.810
    15   6 C        3.729    -0.095    22.411     6.758
    16   6 C        3.719    -0.095    22.432     6.765
    17   1 H        0.805     0.306     0.704     1.318
    18   1 H        0.923     0.033     2.547     2.496
    19   1 H        0.924     0.046     2.366     2.406
    20   1 H        0.925     0.057     2.233     2.337
    21   1 H        0.924     0.081     1.971     2.195
    22   1 H        0.924     0.077     2.015     2.220
    23   1 H        0.924     0.116     1.643     2.004
    24   1 H        0.925     0.078     1.998     2.210
    25   1 H        0.924     0.080     1.982     2.202
    26   1 H        0.926     0.033     2.544     2.494
    27   1 H        0.926     0.052     2.297     2.370
    28   1 H        0.926     0.055     2.256     2.349
    29   1 H        0.925     0.056     2.250     2.346
    30   1 H        0.925     0.069     2.093     2.262
    31   1 H        0.925     0.035     2.514     2.480
    32   1 H        0.925     0.062     2.177     2.308
    33   1 H        0.925     0.057     2.239     2.340
    34   1 H        0.925     0.058     2.225     2.333
    35   1 H        0.925     0.095     1.829     2.115
    36   1 H        0.925     0.103     1.760     2.074
    37   1 H        0.925     0.093     1.849     2.126
    38   1 H        0.925     0.111     1.684     2.029
    39   1 H        0.925     0.094     1.837     2.120
    40   1 H        0.925     0.095     1.832     2.117

Wiberg/Mayer (AO) data.
largest (>0.10) Wiberg bond orders for each atom

     #   Z sym  total        # sym  WBO       # sym  WBO       # sym  WBO
 ---------------------------------------------------------------------------
     1   8 O    1.956 --     2 C    0.999    17 H    0.892
     2   6 C    3.956 --     1 O    0.999     3 C    0.996    19 H    0.975
                            18 H    0.968
     3   6 C    3.989 --     4 C    1.012     2 C    0.996    20 H    0.970
                            21 H    0.969
     4   6 C    3.932 --     3 C    1.012    22 H    0.969    23 H    0.954
                             5 N    0.930
     5   7 N    3.810 --    15 C    0.960    16 C    0.959     4 C    0.930
                             6 C    0.911
     6   6 C    3.930 --     7 C    1.004    25 H    0.961    24 H    0.958
                             5 N    0.911
     7   6 C    3.973 --     8 C    1.395    12 C    1.392     6 C    1.004
                            10 C    0.102
     8   6 C    3.991 --     9 C    1.450     7 C    1.395    26 H    0.967
                            11 C    0.105
     9   6 C    3.991 --     8 C    1.450    10 C    1.431    27 H    0.969
                            12 C    0.101
    10   6 C    3.990 --     9 C    1.431    11 C    1.422    28 H    0.966
                             7 C    0.102
    11   6 C    3.988 --    10 C    1.422    12 C    1.365    14 C    1.035
                             8 C    0.105
    12   6 C    3.987 --     7 C    1.392    11 C    1.365    13 C    1.031
                             9 C    0.101
    13   6 C    3.994 --    12 C    1.031    31 H    0.976    30 H    0.966
                            29 H    0.964
    14   6 C    3.993 --    11 C    1.035    34 H    0.983    33 H    0.968
                            32 H    0.961
    15   6 C    3.930 --    35 H    0.975    37 H    0.975    36 H    0.969
                             5 N    0.960
    16   6 C    3.926 --    40 H    0.973    39 H    0.971    38 H    0.968
                             5 N    0.959
    17   1 H    0.907 --     1 O    0.892
    18   1 H    0.999 --     2 C    0.968
    19   1 H    0.998 --     2 C    0.975
    20   1 H    0.997 --     3 C    0.970
    21   1 H    0.993 --     3 C    0.969
    22   1 H    0.994 --     4 C    0.969
    23   1 H    0.986 --     4 C    0.954
    24   1 H    0.994 --     6 C    0.958
    25   1 H    0.993 --     6 C    0.961
    26   1 H    0.998 --     8 C    0.967
    27   1 H    0.996 --     9 C    0.969
    28   1 H    0.996 --    10 C    0.966
    29   1 H    0.997 --    13 C    0.964
    30   1 H    0.995 --    13 C    0.966
    31   1 H    0.998 --    13 C    0.976
    32   1 H    0.996 --    14 C    0.961
    33   1 H    0.997 --    14 C    0.968
    34   1 H    0.996 --    14 C    0.983
    35   1 H    0.991 --    15 C    0.975
    36   1 H    0.989 --    15 C    0.969
    37   1 H    0.991 --    15 C    0.975
    38   1 H    0.987 --    16 C    0.968
    39   1 H    0.991 --    16 C    0.971
    40   1 H    0.991 --    16 C    0.973
 ---------------------------------------------------------------------------

molecular dipole:
                 x           y           z       tot (Debye)
 q only:        5.049       5.816       2.740
   full:        4.835       5.650       2.661      20.075

           -------------------------------------------------
          | TOTAL ENERGY              -48.808809035663 Eh   |
          | GRADIENT NORM               0.000809052401 Eh/α |
          | HOMO-LUMO GAP               4.280345160267 eV   |
           -------------------------------------------------

 * finished run on 2024/12/20 at 06:48:55.361
