   * xtb version 6.7.1 (edcfbbe) compiled by 'conda@3ef47c1a292c' on 2024-11-25

   ID    Z sym.   atoms
    1   17 Cl     1
    2    6 C      2-8, 10, 11, 13-30
    3    7 N      9, 12, 32
    4    8 O      31
    5    1 H      33-59

          program call               : xtb C0572.xyz --opt --namespace C0572 --charge +1
          :  Hamiltonian                  GFN2-xTB          :
 * total energy  :   -88.6062766 Eh     change       -0.3752248E-08 Eh
 * total energy  :   -88.6200748 Eh     change       -0.1379824E-01 Eh
 * total energy  :   -88.6247019 Eh     change       -0.4627048E-02 Eh
 * total energy  :   -88.6260648 Eh     change       -0.1362956E-02 Eh
 * total energy  :   -88.6268434 Eh     change       -0.7785689E-03 Eh
 * total energy  :   -88.6272574 Eh     change       -0.4140271E-03 Eh
 * total energy  :   -88.6275452 Eh     change       -0.2878288E-03 Eh
 * total energy  :   -88.6278218 Eh     change       -0.2765685E-03 Eh
 * total energy  :   -88.6281244 Eh     change       -0.3025798E-03 Eh
 * total energy  :   -88.6284710 Eh     change       -0.3466142E-03 Eh
 * total energy  :   -88.6319322 Eh     change       -0.3408947E-04 Eh
 * total energy  :   -88.6319683 Eh     change       -0.3602869E-04 Eh
 * total energy  :   -88.6320026 Eh     change       -0.3432697E-04 Eh
 * total energy  :   -88.6320338 Eh     change       -0.3121761E-04 Eh
 * total energy  :   -88.6320608 Eh     change       -0.2702104E-04 Eh
 * total energy  :   -88.6320839 Eh     change       -0.2304033E-04 Eh
 * total energy  :   -88.6321043 Eh     change       -0.2039464E-04 Eh
 * total energy  :   -88.6321187 Eh     change       -0.1440950E-04 Eh
 * total energy  :   -88.6321225 Eh     change       -0.3880705E-05 Eh
   *** GEOMETRY OPTIMIZATION CONVERGED AFTER 68 ITERATIONS ***

 final structure:
================
59
 xtb: 6.7.1 (edcfbbe)
Cl          -1.84769964847693       -0.94911788914874        0.69452699356729
C           -0.13045100852651       -0.81444001200491        0.61370601112052
C            0.67053522599972       -1.88033421281572        0.99649312543588
C            2.04696345468650       -1.75229386722100        0.92886830530496
C            2.62230314577864       -0.57438836354009        0.48494937926920
C            1.81780997509974        0.49135431429267        0.09902857049305
C            0.43764171432150        0.37057723366400        0.16721519768694
C            2.44897185989063        1.77513510663349       -0.39132829158060
N            3.32261285736526        2.35027477971901        0.60685188675874
C            4.68538995214771        2.36210032420985        0.55423226350071
C            5.12077155734249        2.99191210427007        1.67162391989603
N            4.01878512218606        3.35193606923459        2.39706246821169
C            2.92932887041152        2.95643599538858        1.73244386322949
C            1.51676845294807        3.08688210522420        2.13643253754953
C            4.10841206981827        4.18101997442317        3.57644883881701
C            4.55554754766612        5.61267967328366        3.23459494206503
C            3.43505590411745        6.63040801511989        2.89530716129414
C            2.28534433002437        6.46130547529501        3.87662079803471
C            2.54508106439948        6.57185347444849        5.24174522905053
C            1.53299350044740        6.41466373642351        6.16997084169706
C            0.24038935461473        6.14114926289404        5.75250091075029
C           -0.02972832117860        6.03424842916612        4.40046636522190
C            0.98472576419789        6.19391374820204        3.46888405082125
C            4.00852090877956        8.04586372069290        2.97086087105383
C            5.23474435069349        8.33718221161703        2.38089662860506
C            5.74461993579097        9.62304199292261        2.40536117904631
C            5.03326390479764       10.64579504618197        3.00846645725512
C            3.80232280813841       10.37282415441186        3.57747178541233
C            3.29122172556696        9.08604724024257        3.55409537793194
C            2.95539864497400        6.42544817344769        1.44555793390968
O            3.12359328034031        5.38897388141842        0.82812795883871
N            2.31877298124867        7.47866317091044        0.91228198515059
H            0.22013474321898       -2.79789698031994        1.33831279152599
H            2.67439618666197       -2.57994902200190        1.21979145411288
H            3.69743921582396       -0.48844512337670        0.42958081521534
H           -0.20210433618384        1.18387662823352       -0.13826104600795
H            3.05036658327305        1.57865653023443       -1.28218110782012
H            1.67747397404813        2.50455721861087       -0.64847661470428
H            5.23417582475141        1.94136837958677       -0.26267467752381
H            6.11616620543010        3.20342825061201        2.00320514515548
H            1.05843327300005        2.10092415144984        2.21658877522958
H            1.41513276354847        3.60743451890536        3.08306000643158
H            0.97372753397383        3.64979940441212        1.37818172061333
H            3.15160878525634        4.18744822547248        4.09821234911083
H            4.85573815998332        3.72953133436112        4.23444603637762
H            5.10651478941448        6.00467956832408        4.08945589089032
H            5.24347318116285        5.55639923670425        2.39109155933932
H            3.54309773474373        6.80454451889436        5.58063439281932
H            1.75340458529501        6.51147617687043        7.22177640241259
H           -0.55044802007164        6.02090587637982        6.47603211746775
H           -1.03467427671995        5.83138512962279        4.06275834561110
H            0.74818135331547        6.11720191002983        2.41834813202165
H            5.80197699064039        7.56388837454072        1.88635786174939
H            6.70001941621159        9.82522770561023        1.94609336960688
H            5.43161818227542       11.64793091052423        3.02725731034697
H            3.23123140883309       11.16220749220582        4.04149583714529
H            2.32674084985591        8.89695622162864        4.00193786475867
H            2.23601881921425        8.35084196316194        1.40763681965965
H            2.02162478738965        7.43697633013057       -0.04939709656549

          :  Hamiltonian                  GFN2-xTB          :
         :: total energy             -88.632122548762 Eh    ::
         :: gradient norm              0.000341991028 Eh/a0 ::
         :: HOMO-LUMO gap              3.323991234620 eV    ::
         :: SCC energy               -90.059582308009 Eh    ::
         :: -> dispersion             -0.075681140306 Eh    ::
         :: repulsion energy           1.427459759247 Eh    ::

    * Orbital Energies and Occupations

         #    Occupation            Energy/Eh            Energy/eV
      -------------------------------------------------------------
         1        2.0000           -1.1373789             -30.9497
       ...           ...                  ...                  ...
        69        2.0000           -0.5299465             -14.4206
        70        2.0000           -0.5240173             -14.2592
        71        2.0000           -0.5195342             -14.1372
        72        2.0000           -0.5183747             -14.1057
        73        2.0000           -0.5163452             -14.0505
        74        2.0000           -0.5085402             -13.8381
        75        2.0000           -0.5074632             -13.8088
        76        2.0000           -0.5030903             -13.6898
        77        2.0000           -0.5025082             -13.6739
        78        2.0000           -0.4959458             -13.4954
        79        2.0000           -0.4938885             -13.4394
        80        2.0000           -0.4895911             -13.3225
        81        2.0000           -0.4858388             -13.2203 (HOMO)
        82                         -0.3636844              -9.8964 (LUMO)
        83                         -0.3424717              -9.3191
        84                         -0.3369064              -9.1677
        85                         -0.3331027              -9.0642
        86                         -0.3240970              -8.8191
        87                         -0.3221688              -8.7667
        88                         -0.3208999              -8.7321
        89                         -0.3141891              -8.5495
        90                         -0.3109017              -8.4601
        91                         -0.2184913              -5.9455
        92                         -0.2149711              -5.8497
       ...                                ...                  ...
       160                          0.5738107              15.6142
      -------------------------------------------------------------
                  HL-Gap            0.1221544 Eh            3.3240 eV

     #   Z          covCN         q      C6AA      α(0)
     1  17 Cl       0.967    -0.145   103.677    15.578
     2   6 C        2.886     0.104    25.688     8.309
     3   6 C        2.953    -0.035    28.864     8.812
     4   6 C        2.921    -0.022    28.558     8.763
     5   6 C        2.922    -0.043    29.077     8.843
     6   6 C        2.972     0.004    27.928     8.669
     7   6 C        2.960    -0.052    29.281     8.876
     8   6 C        3.748    -0.028    21.137     6.557
     9   7 N        2.882     0.050    20.372     6.704
    10   6 C        3.046    -0.008    28.164     8.704
    11   6 C        3.062    -0.009    28.170     8.704
    12   7 N        2.872     0.050    20.371     6.703
    13   6 C        3.104     0.127    25.102     8.210
    14   6 C        3.755    -0.130    23.050     6.846
    15   6 C        3.741    -0.017    20.962     6.532
    16   6 C        3.806    -0.061    21.676     6.628
    17   6 C        3.910    -0.020    20.872     6.494
    18   6 C        2.974     0.002    27.969     8.675
    19   6 C        2.925    -0.037    28.922     8.819
    20   6 C        2.919    -0.027    28.686     8.783
    21   6 C        2.919    -0.028    28.692     8.784
    22   6 C        2.919    -0.031    28.771     8.796
    23   6 C        2.922    -0.047    29.169     8.857
    24   6 C        2.977    -0.003    28.099     8.695
    25   6 C        2.924    -0.040    29.002     8.832
    26   6 C        2.920    -0.026    28.648     8.777
    27   6 C        2.919    -0.026    28.645     8.777
    28   6 C        2.919    -0.027    28.682     8.782
    29   6 C        2.923    -0.042    29.050     8.839
    30   6 C        2.751     0.290    22.088     7.696
    31   8 O        0.859    -0.472    23.163     6.453
    32   7 N        2.638    -0.259    26.723     7.678
    33   1 H        0.926     0.077     2.015     2.220
    34   1 H        0.926     0.066     2.132     2.283
    35   1 H        0.926     0.046     2.373     2.409
    36   1 H        0.926     0.064     2.149     2.292
    37   1 H        0.924     0.093     1.849     2.127
    38   1 H        0.924     0.090     1.880     2.144
    39   1 H        0.927     0.095     1.831     2.116
    40   1 H        0.927     0.094     1.839     2.121
    41   1 H        0.924     0.093     1.847     2.125
    42   1 H        0.925     0.086     1.918     2.166
    43   1 H        0.925     0.102     1.768     2.079
    44   1 H        0.925     0.079     1.993     2.208
    45   1 H        0.924     0.078     1.995     2.209
    46   1 H        0.925     0.066     2.125     2.280
    47   1 H        0.925     0.064     2.154     2.295
    48   1 H        0.926     0.039     2.463     2.454
    49   1 H        0.926     0.047     2.351     2.398
    50   1 H        0.926     0.048     2.340     2.392
    51   1 H        0.926     0.042     2.417     2.431
    52   1 H        0.926     0.028     2.622     2.532
    53   1 H        0.926     0.030     2.587     2.515
    54   1 H        0.926     0.046     2.367     2.406
    55   1 H        0.926     0.049     2.327     2.386
    56   1 H        0.926     0.046     2.368     2.406
    57   1 H        0.926     0.035     2.514     2.479
    58   1 H        0.860     0.199     1.109     1.649
    59   1 H        0.860     0.203     1.090     1.635

Wiberg/Mayer (AO) data.
largest (>0.10) Wiberg bond orders for each atom

     #   Z sym  total        # sym  WBO       # sym  WBO       # sym  WBO
 ---------------------------------------------------------------------------
     1  17 Cl   1.147 --     2 C    0.999
     2   6 C    3.926 --     3 C    1.400     7 C    1.395     1 Cl   0.999
     3   6 C    3.986 --     4 C    1.441     2 C    1.400    33 H    0.965
                             6 C    0.105
     4   6 C    3.989 --     3 C    1.441     5 C    1.440    34 H    0.967
                             7 C    0.106
     5   6 C    3.991 --     4 C    1.440     6 C    1.408    35 H    0.968
     6   6 C    3.984 --     7 C    1.420     5 C    1.408     8 C    0.986
                             3 C    0.105
     7   6 C    3.987 --     6 C    1.420     2 C    1.395    36 H    0.964
                             4 C    0.106
     8   6 C    3.945 --     6 C    0.986     9 N    0.970    37 H    0.957
                            38 H    0.957
     9   7 N    3.693 --    13 C    1.326    10 C    1.204     8 C    0.970
    10   6 C    3.949 --    11 C    1.616     9 N    1.204    39 H    0.963
    11   6 C    3.949 --    10 C    1.616    12 N    1.200    40 H    0.963
    12   7 N    3.692 --    13 C    1.331    11 C    1.200    15 C    0.975
    13   6 C    3.954 --    12 N    1.331     9 N    1.326    14 C    1.046
    14   6 C    3.980 --    13 C    1.046    42 H    0.967    41 H    0.951
                            43 H    0.948
    15   6 C    3.947 --    16 C    0.987    12 N    0.975    45 H    0.964
                            44 H    0.958
    16   6 C    3.987 --    15 C    0.987    46 H    0.969    17 C    0.969
                            47 H    0.967
    17   6 C    3.988 --    18 C    0.971    16 C    0.969    24 C    0.961
                            30 C    0.925
    18   6 C    3.986 --    23 C    1.420    19 C    1.397    17 C    0.971
                            21 C    0.110
    19   6 C    3.991 --    20 C    1.454    18 C    1.397    48 H    0.967
                            22 C    0.112
    20   6 C    3.990 --    19 C    1.454    21 C    1.430    49 H    0.970
                            23 C    0.109
    21   6 C    3.990 --    22 C    1.447    20 C    1.430    50 H    0.970
                            18 C    0.110
    22   6 C    3.991 --    21 C    1.447    23 C    1.432    51 H    0.970
                            19 C    0.112
    23   6 C    3.991 --    22 C    1.432    18 C    1.420    52 H    0.965
                            20 C    0.109
    24   6 C    3.983 --    29 C    1.411    25 C    1.409    17 C    0.961
                            27 C    0.109
    25   6 C    3.991 --    26 C    1.447    24 C    1.409    53 H    0.967
                            28 C    0.111
    26   6 C    3.991 --    25 C    1.447    27 C    1.436    54 H    0.970
                            29 C    0.110
    27   6 C    3.989 --    28 C    1.442    26 C    1.436    55 H    0.970
                            24 C    0.109
    28   6 C    3.991 --    27 C    1.442    29 C    1.439    56 H    0.970
                            25 C    0.111
    29   6 C    3.991 --    28 C    1.439    24 C    1.411    57 H    0.965
                            26 C    0.110
    30   6 C    3.941 --    31 O    1.657    32 N    1.296    17 C    0.925
    31   8 O    1.972 --    30 C    1.657    32 N    0.197
    32   7 N    3.407 --    30 C    1.296    59 H    0.937    58 H    0.932
                            31 O    0.197
    33   1 H    0.994 --     3 C    0.965
    34   1 H    0.995 --     4 C    0.967
    35   1 H    0.997 --     5 C    0.968
    36   1 H    0.996 --     7 C    0.964
    37   1 H    0.991 --     8 C    0.957
    38   1 H    0.991 --     8 C    0.957
    39   1 H    0.990 --    10 C    0.963
    40   1 H    0.991 --    11 C    0.963
    41   1 H    0.991 --    14 C    0.951
    42   1 H    0.992 --    14 C    0.967
    43   1 H    0.989 --    14 C    0.948
    44   1 H    0.993 --    15 C    0.958
    45   1 H    0.993 --    15 C    0.964
    46   1 H    0.995 --    16 C    0.969
    47   1 H    0.995 --    16 C    0.967
    48   1 H    0.998 --    19 C    0.967
    49   1 H    0.997 --    20 C    0.970
    50   1 H    0.997 --    21 C    0.970
    51   1 H    0.998 --    22 C    0.970
    52   1 H    0.999 --    23 C    0.965
    53   1 H    0.999 --    25 C    0.967
    54   1 H    0.997 --    26 C    0.970
    55   1 H    0.997 --    27 C    0.970
    56   1 H    0.997 --    28 C    0.970
    57   1 H    0.999 --    29 C    0.965
    58   1 H    0.960 --    32 N    0.932
    59   1 H    0.958 --    32 N    0.937
 ---------------------------------------------------------------------------

molecular dipole:
                 x           y           z       tot (Debye)
 q only:        6.375       7.340       3.795
   full:        6.042       7.559       3.750      26.378

           -------------------------------------------------
          | TOTAL ENERGY              -88.632122548762 Eh   |
          | GRADIENT NORM               0.000341991028 Eh/α |
          | HOMO-LUMO GAP               3.323991234620 eV   |
           -------------------------------------------------

 * finished run on 2024/12/20 at 06:49:00.317
