   * xtb version 6.7.1 (edcfbbe) compiled by 'conda@3ef47c1a292c' on 2024-11-25

   ID    Z sym.   atoms
    1    6 C      1-4, 7, 9-12
    2    7 N      5, 6, 8
    3    9 F      13-15
    4    1 H      16-30

          program call               : xtb C0577.xyz --opt --namespace C0577 --charge +1
          :  Hamiltonian                  GFN2-xTB          :
 * total energy  :   -49.5079667 Eh     change       -0.3650058E-10 Eh
 * total energy  :   -49.5130367 Eh     change       -0.5070014E-02 Eh
 * total energy  :   -49.5141759 Eh     change       -0.1139231E-02 Eh
 * total energy  :   -49.5143872 Eh     change       -0.2112854E-03 Eh
 * total energy  :   -49.5145961 Eh     change       -0.2088986E-03 Eh
 * total energy  :   -49.5147217 Eh     change       -0.1255850E-03 Eh
 * total energy  :   -49.5149030 Eh     change       -0.1812919E-03 Eh
 * total energy  :   -49.5151514 Eh     change       -0.2484690E-03 Eh
 * total energy  :   -49.5154046 Eh     change       -0.2531756E-03 Eh
 * total energy  :   -49.5157155 Eh     change       -0.3108839E-03 Eh
 * total energy  :   -49.5175512 Eh     change       -0.6754481E-04 Eh
 * total energy  :   -49.5175664 Eh     change       -0.1518298E-04 Eh
 * total energy  :   -49.5175866 Eh     change       -0.2022316E-04 Eh
 * total energy  :   -49.5176007 Eh     change       -0.1406668E-04 Eh
 * total energy  :   -49.5176214 Eh     change       -0.2072039E-04 Eh
 * total energy  :   -49.5176370 Eh     change       -0.1561396E-04 Eh
 * total energy  :   -49.5176466 Eh     change       -0.9552767E-05 Eh
 * total energy  :   -49.5176525 Eh     change       -0.5926350E-05 Eh
 * total energy  :   -49.5176565 Eh     change       -0.4044299E-05 Eh
   *** GEOMETRY OPTIMIZATION CONVERGED AFTER 29 ITERATIONS ***

 final structure:
================
30
 xtb: 6.7.1 (edcfbbe)
C            1.63285890852007        0.04426878264687       -0.89125108789584
C            1.02764928285691       -1.11088938526144       -1.68104245918233
C            1.16179107465013       -2.46224081410978       -0.98075255863858
C            0.41429890290718       -2.55259047434112        0.35702729105289
N           -1.00554220110031       -2.43970790270346        0.15811275208223
N           -1.76094441142828       -3.52027212713803       -0.00000338475355
C           -2.96443445538707       -3.09712238127521       -0.21935510554967
N           -2.99983739409452       -1.73523858825554       -0.21696978602133
C           -1.73698685882146       -1.34808442544836        0.02381464392830
C           -4.16086563831895       -0.88393159088620       -0.35551812460739
C           -4.89124215039459       -0.69492587320719        0.98034889681831
C           -3.96949562315617       -0.11714049668636        2.04849356603445
F           -3.22121792505401        0.88967598524895        1.56484671130862
F           -4.62497134984706        0.32669614064119        3.10436445824950
F           -3.08280376628735       -1.04279928004873        2.47737467985081
H            1.10263996735984        0.23322932220566        0.04003246981980
H            1.60157800551767        0.95527147443359       -1.48214211804143
H            2.67208846555045       -0.16545551275372       -0.65386550823075
H           -0.02279435459320       -0.90233081703275       -1.90757870970911
H            1.54524084734628       -1.18411310954937       -2.63808713533476
H            0.80331242336361       -3.25576453628737       -1.63871445778935
H            2.21423036031535       -2.65288043596994       -0.77245699789315
H            0.59197961490969       -3.52802434770491        0.81197137228817
H            0.74229771999009       -1.76406341275444        1.03483929603727
H           -3.81007201281896       -3.73333878420890       -0.38568022746134
H           -1.39760366111054       -0.33439055904607        0.11948684144910
H           -3.83384493028580        0.08559857166288       -0.74016268969100
H           -4.84435428277869       -1.33906933127223       -1.07537088954769
H           -5.72100579965599       -0.00004509025165        0.84020598117338
H           -5.28738875815724       -1.63855100065339        1.36137228025531

          :  Hamiltonian                  GFN2-xTB          :
         :: total energy             -49.517656545195 Eh    ::
         :: gradient norm              0.000278633580 Eh/a0 ::
         :: HOMO-LUMO gap              3.339731572093 eV    ::
         :: SCC energy               -50.023601509275 Eh    ::
         :: -> dispersion             -0.023976803556 Eh    ::
         :: repulsion energy           0.505944964080 Eh    ::

    * Orbital Energies and Occupations

         #    Occupation            Energy/Eh            Energy/eV
      -------------------------------------------------------------
         1        2.0000           -1.0175410             -27.6887
       ...           ...                  ...                  ...
        31        2.0000           -0.6618383             -18.0095
        32        2.0000           -0.6580353             -17.9061
        33        2.0000           -0.6516991             -17.7336
        34        2.0000           -0.6423108             -17.4782
        35        2.0000           -0.6299958             -17.1431
        36        2.0000           -0.6295372             -17.1306
        37        2.0000           -0.6168825             -16.7862
        38        2.0000           -0.6073144             -16.5259
        39        2.0000           -0.6020928             -16.3838
        40        2.0000           -0.5957269             -16.2106
        41        2.0000           -0.5701278             -15.5140
        42        2.0000           -0.5626997             -15.3118
        43        2.0000           -0.5576151             -15.1735 (HOMO)
        44                         -0.4348823             -11.8337 (LUMO)
        45                         -0.4115194             -11.1980
        46                         -0.2137578              -5.8166
        47                         -0.1617350              -4.4010
        48                         -0.1320414              -3.5930
        49                         -0.1130197              -3.0754
        50                         -0.1035471              -2.8177
        51                         -0.0970247              -2.6402
        52                         -0.0721022              -1.9620
        53                         -0.0622288              -1.6933
        54                         -0.0450236              -1.2252
       ...                                ...                  ...
        75                          0.3513569               9.5609
      -------------------------------------------------------------
                  HL-Gap            0.1227329 Eh            3.3397 eV

     #   Z          covCN         q      C6AA      α(0)
     1   6 C        3.751    -0.117    22.803     6.810
     2   6 C        3.800    -0.063    21.710     6.634
     3   6 C        3.802    -0.074    21.914     6.665
     4   6 C        3.742    -0.040    21.361     6.594
     5   7 N        3.059     0.167    18.436     6.377
     6   7 N        2.046    -0.136    24.629     7.361
     7   6 C        3.141     0.087    25.829     8.317
     8   7 N        2.856     0.041    20.516     6.727
     9   6 C        3.063     0.056    26.683     8.471
    10   6 C        3.740    -0.023    21.066     6.549
    11   6 C        3.803    -0.101    22.417     6.741
    12   6 C        3.329     0.488    17.351     6.612
    13   9 F        0.791    -0.205    11.287     3.969
    14   9 F        0.791    -0.169    10.922     3.904
    15   9 F        0.791    -0.217    11.417     3.991
    16   1 H        0.925     0.030     2.590     2.517
    17   1 H        0.925     0.057     2.234     2.337
    18   1 H        0.925     0.058     2.227     2.334
    19   1 H        0.924     0.021     2.716     2.577
    20   1 H        0.924     0.067     2.117     2.275
    21   1 H        0.924     0.064     2.148     2.292
    22   1 H        0.925     0.086     1.914     2.163
    23   1 H        0.924     0.115     1.653     2.011
    24   1 H        0.924     0.102     1.770     2.080
    25   1 H        0.926     0.122     1.597     1.976
    26   1 H        0.926     0.136     1.489     1.908
    27   1 H        0.924     0.109     1.704     2.041
    28   1 H        0.924     0.111     1.689     2.032
    29   1 H        0.924     0.121     1.603     1.980
    30   1 H        0.924     0.105     1.738     2.062

Wiberg/Mayer (AO) data.
largest (>0.10) Wiberg bond orders for each atom

     #   Z sym  total        # sym  WBO       # sym  WBO       # sym  WBO
 ---------------------------------------------------------------------------
     1   6 C    3.992 --     2 C    1.020    18 H    0.985    17 H    0.984
                            16 H    0.984
     2   6 C    3.994 --     1 C    1.020     3 C    1.010    19 H    0.972
                            20 H    0.970
     3   6 C    3.980 --     2 C    1.010    21 H    0.974     4 C    0.971
                            22 H    0.963
     4   6 C    3.920 --     3 C    0.971     5 N    0.965    23 H    0.958
                            24 H    0.955
     5   7 N    3.758 --     9 C    1.420     6 N    1.208     4 C    0.965
     6   7 N    3.031 --     7 C    1.601     5 N    1.208
     7   6 C    3.948 --     6 N    1.601     8 N    1.234    25 H    0.953
     8   7 N    3.699 --     9 C    1.316     7 C    1.234    10 C    0.975
     9   6 C    3.946 --     5 N    1.420     8 N    1.316    26 H    0.946
    10   6 C    3.942 --    11 C    0.994     8 N    0.975    27 H    0.962
                            28 H    0.960
    11   6 C    3.976 --    10 C    0.994    30 H    0.964    12 C    0.958
                            29 H    0.957
    12   6 C    3.841 --    14 F    0.986    11 C    0.958    13 F    0.944
                            15 F    0.932
    13   9 F    1.072 --    12 C    0.944
    14   9 F    1.116 --    12 C    0.986
    15   9 F    1.058 --    12 C    0.932
    16   1 H    0.999 --     1 C    0.984
    17   1 H    0.997 --     1 C    0.984
    18   1 H    0.997 --     1 C    0.985
    19   1 H    1.000 --     2 C    0.972
    20   1 H    0.995 --     2 C    0.970
    21   1 H    0.996 --     3 C    0.974
    22   1 H    0.991 --     3 C    0.963
    23   1 H    0.986 --     4 C    0.958
    24   1 H    0.990 --     4 C    0.955
    25   1 H    0.985 --     7 C    0.953
    26   1 H    0.981 --     9 C    0.946
    27   1 H    0.988 --    10 C    0.962
    28   1 H    0.987 --    10 C    0.960
    29   1 H    0.984 --    11 C    0.957
    30   1 H    0.989 --    11 C    0.964
 ---------------------------------------------------------------------------

molecular dipole:
                 x           y           z       tot (Debye)
 q only:       -3.962      -3.516      -0.955
   full:       -4.316      -3.200      -0.961      13.874

           -------------------------------------------------
          | TOTAL ENERGY              -49.517656545195 Eh   |
          | GRADIENT NORM               0.000278633580 Eh/α |
          | HOMO-LUMO GAP               3.339731572093 eV   |
           -------------------------------------------------

 * finished run on 2024/12/20 at 06:49:19.790
