   * xtb version 6.7.1 (edcfbbe) compiled by 'conda@3ef47c1a292c' on 2024-11-25

   ID    Z sym.   atoms
    1    7 N      1, 2, 4, 5
    2    6 C      3, 6-8
    3   35 Br     9
    4    1 H      10-17

          program call               : xtb C0578.xyz --opt --namespace C0578 --charge +1
          :  Hamiltonian                  GFN2-xTB          :
 * total energy  :   -27.9678740 Eh     change       -0.5081802E-10 Eh
 * total energy  :   -27.9748526 Eh     change       -0.6978651E-02 Eh
 * total energy  :   -27.9767166 Eh     change       -0.1863948E-02 Eh
 * total energy  :   -27.9771265 Eh     change       -0.4099096E-03 Eh
 * total energy  :   -27.9774948 Eh     change       -0.3683203E-03 Eh
 * total energy  :   -27.9776492 Eh     change       -0.1544035E-03 Eh
 * total energy  :   -27.9777466 Eh     change       -0.9741022E-04 Eh
 * total energy  :   -27.9777906 Eh     change       -0.4405012E-04 Eh
 * total energy  :   -27.9778042 Eh     change       -0.1358275E-04 Eh
 * total energy  :   -27.9778096 Eh     change       -0.5353298E-05 Eh
 * total energy  :   -27.9778112 Eh     change       -0.1601671E-05 Eh
   *** GEOMETRY OPTIMIZATION CONVERGED AFTER 11 ITERATIONS ***

 final structure:
================
17
 xtb: 6.7.1 (edcfbbe)
N            0.89037246555791       -0.03022091117218       -0.00101971400067
N            0.20121322112716        0.07088632152125       -1.15855121165128
C           -0.70661592978789        0.99941233664268       -1.48634647081067
N           -1.21926815625078        0.64444733681075       -2.66639278187539
N           -0.66910923628358       -0.47881370438682       -3.08837199323016
C            0.19254333726113       -0.83242452161929       -2.18412785858186
C           -2.31193335126593        1.26021058026393       -3.37347807357247
C           -3.64944895490278        0.69143011040182       -2.90146116775500
Br          -3.88068432957233        0.97642629200777       -0.97560769742393
H            0.98554225898716        0.83067083838016        0.52158119171840
H            1.73278672589550       -0.58751461752807       -0.05805856823515
H           -0.97743996185836        1.85859887191436       -0.90548815153405
H            0.80652700522931       -1.70829383921698       -2.23887742828799
H           -2.27676601254197        2.33968728983858       -3.21047398933164
H           -2.18527190199838        1.03906352471801       -4.43638085494926
H           -4.47213341497295        1.19667159668838       -3.40280454133753
H           -3.70928376462318       -0.38211750526433       -3.07398068914136

          :  Hamiltonian                  GFN2-xTB          :
         :: total energy             -27.977811182759 Eh    ::
         :: gradient norm              0.000496074505 Eh/a0 ::
         :: HOMO-LUMO gap              2.915934345674 eV    ::
         :: SCC energy               -28.284396904497 Eh    ::
         :: -> dispersion             -0.013300348172 Eh    ::
         :: repulsion energy           0.306585721738 Eh    ::

    * Orbital Energies and Occupations

         #    Occupation            Energy/Eh            Energy/eV
      -------------------------------------------------------------
         1        2.0000           -0.9683342             -26.3497
       ...           ...                  ...                  ...
        13        2.0000           -0.7286016             -19.8263
        14        2.0000           -0.7176707             -19.5288
        15        2.0000           -0.7010727             -19.0772
        16        2.0000           -0.6928558             -18.8536
        17        2.0000           -0.6815706             -18.5465
        18        2.0000           -0.6673901             -18.1606
        19        2.0000           -0.6444415             -17.5361
        20        2.0000           -0.6279236             -17.0867
        21        2.0000           -0.6212720             -16.9057
        22        2.0000           -0.6069255             -16.5153
        23        2.0000           -0.5849939             -15.9185
        24        2.0000           -0.5448413             -14.8259
        25        2.0000           -0.5404486             -14.7064 (HOMO)
        26                         -0.4332900             -11.7904 (LUMO)
        27                         -0.4086372             -11.1196
        28                         -0.3565249              -9.7015
        29                         -0.2380376              -6.4773
        30                         -0.1761047              -4.7921
        31                         -0.1277596              -3.4765
        32                         -0.1096922              -2.9849
        33                         -0.0995814              -2.7097
        34                         -0.0943991              -2.5687
        35                         -0.0854213              -2.3244
        36                         -0.0789903              -2.1494
       ...                                ...                  ...
        49                          0.3486561               9.4874
      -------------------------------------------------------------
                  HL-Gap            0.1071586 Eh            2.9159 eV

     #   Z          covCN         q      C6AA      α(0)
     1   7 N        2.709    -0.213    25.646     7.521
     2   7 N        2.923     0.155    18.621     6.409
     3   6 C        3.050     0.023    27.455     8.594
     4   7 N        3.061     0.152    18.669     6.417
     5   7 N        2.037    -0.136    24.652     7.365
     6   6 C        3.134     0.063    26.388     8.409
     7   6 C        3.801    -0.034    21.181     6.553
     8   6 C        3.741     0.001    20.637     6.482
     9  35 Br       0.978    -0.153   189.223    22.179
    10   1 H        0.860     0.219     1.013     1.577
    11   1 H        0.860     0.222     1.002     1.568
    12   1 H        0.926     0.139     1.471     1.896
    13   1 H        0.926     0.127     1.560     1.953
    14   1 H        0.924     0.108     1.710     2.045
    15   1 H        0.924     0.124     1.579     1.965
    16   1 H        0.926     0.106     1.728     2.056
    17   1 H        0.926     0.097     1.810     2.104

Wiberg/Mayer (AO) data.
largest (>0.10) Wiberg bond orders for each atom

     #   Z sym  total        # sym  WBO       # sym  WBO       # sym  WBO
 ---------------------------------------------------------------------------
     1   7 N    3.186 --     2 N    1.092    10 H    0.933    11 H    0.932
                             3 C    0.106
     2   7 N    3.745 --     3 C    1.311     6 C    1.202     1 N    1.092
     3   6 C    3.933 --     4 N    1.345     2 N    1.311    12 H    0.947
                             5 N    0.110     1 N    0.106
     4   7 N    3.736 --     3 C    1.345     5 N    1.226     7 C    0.976
     5   7 N    3.033 --     6 C    1.571     4 N    1.226     3 C    0.110
     6   6 C    3.938 --     5 N    1.571     2 N    1.202    13 H    0.952
     7   6 C    3.938 --     8 C    0.996     4 N    0.976    14 H    0.960
                            15 H    0.950
     8   6 C    3.951 --     7 C    0.996     9 Br   0.983    17 H    0.970
                            16 H    0.965
     9  35 Br   1.058 --     8 C    0.983
    10   1 H    0.952 --     1 N    0.933
    11   1 H    0.950 --     1 N    0.932
    12   1 H    0.981 --     3 C    0.947
    13   1 H    0.984 --     6 C    0.952
    14   1 H    0.988 --     7 C    0.960
    15   1 H    0.984 --     7 C    0.950
    16   1 H    0.988 --     8 C    0.965
    17   1 H    0.991 --     8 C    0.970
 ---------------------------------------------------------------------------

molecular dipole:
                 x           y           z       tot (Debye)
 q only:       -0.715       0.995      -3.670
   full:       -0.666       1.145      -3.791      10.208

           -------------------------------------------------
          | TOTAL ENERGY              -27.977811182759 Eh   |
          | GRADIENT NORM               0.000496074505 Eh/α |
          | HOMO-LUMO GAP               2.915934345674 eV   |
           -------------------------------------------------

 * finished run on 2024/12/20 at 06:49:20.112
