   * xtb version 6.7.1 (edcfbbe) compiled by 'conda@3ef47c1a292c' on 2024-11-25

   ID    Z sym.   atoms
    1    6 C      1-6, 8-25
    2   15 P      7
    3    1 H      26-53

          program call               : xtb C0574.xyz --opt --namespace C0574 --charge +1
          :  Hamiltonian                  GFN2-xTB          :
 * total energy  :   -67.7675134 Eh     change       -0.7369465E-09 Eh
 * total energy  :   -67.7720379 Eh     change       -0.4524544E-02 Eh
 * total energy  :   -67.7730766 Eh     change       -0.1038721E-02 Eh
 * total energy  :   -67.7734361 Eh     change       -0.3594198E-03 Eh
 * total energy  :   -67.7737449 Eh     change       -0.3088300E-03 Eh
 * total energy  :   -67.7739317 Eh     change       -0.1868314E-03 Eh
 * total energy  :   -67.7741016 Eh     change       -0.1699038E-03 Eh
 * total energy  :   -67.7742503 Eh     change       -0.1486365E-03 Eh
 * total energy  :   -67.7743984 Eh     change       -0.1481169E-03 Eh
 * total energy  :   -67.7745561 Eh     change       -0.1577735E-03 Eh
 * total energy  :   -67.7761719 Eh     change       -0.2833294E-04 Eh
 * total energy  :   -67.7761994 Eh     change       -0.2752452E-04 Eh
 * total energy  :   -67.7762160 Eh     change       -0.1651354E-04 Eh
 * total energy  :   -67.7762261 Eh     change       -0.1015353E-04 Eh
 * total energy  :   -67.7762250 Eh     change        0.1068807E-05 Eh
 * total energy  :   -67.7762335 Eh     change       -0.8477274E-05 Eh
 * total energy  :   -67.7762388 Eh     change       -0.5265260E-05 Eh
 * total energy  :   -67.7762384 Eh     change        0.3969517E-06 Eh
 * total energy  :   -67.7762419 Eh     change       -0.3531072E-05 Eh
   *** GEOMETRY OPTIMIZATION CONVERGED AFTER 44 ITERATIONS ***

 final structure:
================
53
 xtb: 6.7.1 (edcfbbe)
C            1.07812996276518        0.26198566814127        0.31335355976789
C            0.20798024913879       -0.60601891124217        1.22940525844755
C            0.30596917537634       -0.27294049058308        2.71716879743573
C           -0.48422958668367        0.97251756579835        3.11506934740074
C           -1.99503324368082        0.75118096486505        3.20635959976828
C           -2.40026365217777       -0.07575363443856        4.42076551411914
P            0.49768255170473        1.95569341595972       -0.09824997356077
C            1.05810890577478        2.26457582308820       -1.79181214999426
C            2.40820378718483        2.06386043324136       -2.07484190249181
C            2.88727999373540        2.31874089297692       -3.34554265094974
C            2.02694464020303        2.77969237015466       -4.33113992803433
C            0.68759405543638        2.98962478857394       -4.04645750663131
C            0.19759970866446        2.73653004946895       -2.77669217914978
C           -1.30250810029652        2.05270414318917       -0.09357572587961
C           -1.98845094021880        3.03553661466178        0.61061300774545
C           -3.37175565542186        3.05945168768557        0.56870393571277
C           -4.06408870163433        2.10802434626997       -0.16336655417997
C           -3.37760714370512        1.13013023642882       -0.86841751691867
C           -1.99600705226355        1.10055026705821       -0.84026288197859
C            1.26825580510507        3.26645561514494        0.87697501890099
C            2.07939553710206        3.02222383800802        1.97908910611219
C            2.66231563394194        4.08693087937035        2.64392991001876
C            2.43995609279291        5.38522266656526        2.21392651977155
C            1.63699293440514        5.62777311554296        1.10917106036358
C            1.05410180287763        4.57195479209735        0.43471866625653
H            1.16603305600653       -0.23223282351503       -0.66157650327047
H            2.08883944637882        0.35387307158286        0.72321091799541
H           -0.83482666783290       -0.55509455532314        0.91173317688185
H            0.54049047844547       -1.63643526510485        1.08624656067459
H           -0.06685285025787       -1.12453144138681        3.28577357355101
H            1.35701333009232       -0.14815854478676        2.98783950499503
H           -0.12902304866541        1.32670460944344        4.08451812027226
H           -0.28495685932422        1.76593316707693        2.38505388733342
H           -2.48239278794970        1.72675173320319        3.26947651341012
H           -2.36013701165424        0.26690367425895        2.29782469717473
H           -2.05020012899837        0.39514301335901        5.33610237676193
H           -3.48259729817268       -0.15816356430479        4.47158458925793
H           -1.98966903920464       -1.08072127199910        4.37245593263980
H            3.07695702920423        1.71704407403286       -1.29851902773039
H            3.93165122657365        2.16354514431318       -3.56743410110905
H            2.40326087173054        2.97701130061408       -5.32262335213065
H            0.02049969235272        3.35027077851276       -4.81407475260575
H           -0.84750927785123        2.90020637330393       -2.55411791019119
H           -1.44616697517526        3.77153254042972        1.18754482984773
H           -3.90968965730629        3.82166610098240        1.11060704947977
H           -5.14234728214753        2.12827378990051       -0.18703046455110
H           -3.91933840053121        0.39236048114905       -1.43988436266070
H           -1.45134155354103        0.35048280608419       -1.39871952971447
H            2.25096492818655        2.01395469487741        2.32417003745068
H            3.29221975225567        3.90091154518045        3.49989278973224
H            2.89622655252529        6.21043112347454        2.73779583634122
H            1.46928669881510        6.63874362712289        0.77191488507933
H            0.43728901590677        4.74898667948016       -0.43689560697779

          :  Hamiltonian                  GFN2-xTB          :
         :: total energy             -67.776241913405 Eh    ::
         :: gradient norm              0.000586225445 Eh/a0 ::
         :: HOMO-LUMO gap              3.741934988293 eV    ::
         :: SCC energy               -68.998200047761 Eh    ::
         :: -> dispersion             -0.065127884372 Eh    ::
         :: repulsion energy           1.221958134356 Eh    ::

    * Orbital Energies and Occupations

         #    Occupation            Energy/Eh            Energy/eV
      -------------------------------------------------------------
         1        2.0000           -0.8313790             -22.6230
       ...           ...                  ...                  ...
        52        2.0000           -0.5477203             -14.9042
        53        2.0000           -0.5469378             -14.8829
        54        2.0000           -0.5448269             -14.8255
        55        2.0000           -0.5440365             -14.8040
        56        2.0000           -0.5376204             -14.6294
        57        2.0000           -0.5361338             -14.5889
        58        2.0000           -0.5354886             -14.5714
        59        2.0000           -0.5330130             -14.5040
        60        2.0000           -0.5325728             -14.4920
        61        2.0000           -0.5300648             -14.4238
        62        2.0000           -0.5266110             -14.3298
        63        2.0000           -0.5228710             -14.2280
        64        2.0000           -0.5177059             -14.0875 (HOMO)
        65                         -0.3801923             -10.3456 (LUMO)
        66                         -0.3721384             -10.1264
        67                         -0.3666280              -9.9765
        68                         -0.3542169              -9.6387
        69                         -0.3524304              -9.5901
        70                         -0.3498691              -9.5204
        71                         -0.2761498              -7.5144
        72                         -0.2676742              -7.2838
        73                         -0.2606221              -7.0919
        74                         -0.2247873              -6.1168
        75                         -0.2110690              -5.7435
       ...                                ...                  ...
       133                          0.9392438              25.5581
      -------------------------------------------------------------
                  HL-Gap            0.1375136 Eh            3.7419 eV

     #   Z          covCN         q      C6AA      α(0)
     1   6 C        3.749    -0.058    21.677     6.640
     2   6 C        3.828    -0.061    21.645     6.620
     3   6 C        3.801    -0.064    21.734     6.637
     4   6 C        3.801    -0.060    21.646     6.624
     5   6 C        3.800    -0.052    21.513     6.604
     6   6 C        3.752    -0.108    22.621     6.783
     7  15 P        4.275     0.130   154.597    22.335
     8   6 C        2.921    -0.006    28.165     8.703
     9   6 C        3.020    -0.025    28.598     8.772
    10   6 C        2.919    -0.018    28.465     8.749
    11   6 C        2.920    -0.013    28.344     8.730
    12   6 C        2.919    -0.019    28.478     8.751
    13   6 C        2.983    -0.023    28.567     8.767
    14   6 C        2.922     0.008    27.847     8.654
    15   6 C        2.985    -0.020    28.498     8.757
    16   6 C        2.920    -0.018    28.456     8.748
    17   6 C        2.920    -0.013    28.335     8.729
    18   6 C        2.919    -0.020    28.497     8.754
    19   6 C        3.028    -0.023    28.540     8.763
    20   6 C        2.921     0.003    27.953     8.670
    21   6 C        2.975    -0.023    28.577     8.769
    22   6 C        2.920    -0.019    28.481     8.752
    23   6 C        2.920    -0.013    28.330     8.728
    24   6 C        2.918    -0.018    28.470     8.750
    25   6 C        3.038    -0.022    28.525     8.760
    26   1 H        0.928     0.086     1.921     2.167
    27   1 H        0.926     0.089     1.889     2.149
    28   1 H        0.924     0.056     2.243     2.342
    29   1 H        0.924     0.061     2.193     2.316
    30   1 H        0.925     0.060     2.194     2.316
    31   1 H        0.924     0.037     2.494     2.469
    32   1 H        0.924     0.047     2.362     2.404
    33   1 H        0.924     0.030     2.589     2.516
    34   1 H        0.924     0.030     2.589     2.516
    35   1 H        0.924     0.024     2.671     2.556
    36   1 H        0.925     0.044     2.397     2.421
    37   1 H        0.925     0.045     2.389     2.417
    38   1 H        0.925     0.041     2.439     2.442
    39   1 H        0.925     0.049     2.338     2.391
    40   1 H        0.926     0.064     2.150     2.293
    41   1 H        0.926     0.067     2.115     2.274
    42   1 H        0.926     0.064     2.156     2.296
    43   1 H        0.926     0.049     2.327     2.385
    44   1 H        0.926     0.053     2.277     2.360
    45   1 H        0.926     0.065     2.146     2.291
    46   1 H        0.926     0.068     2.108     2.270
    47   1 H        0.926     0.064     2.147     2.292
    48   1 H        0.925     0.053     2.279     2.361
    49   1 H        0.926     0.059     2.216     2.328
    50   1 H        0.926     0.065     2.137     2.286
    51   1 H        0.926     0.068     2.104     2.268
    52   1 H        0.926     0.065     2.146     2.291
    53   1 H        0.925     0.052     2.298     2.370

Wiberg/Mayer (AO) data.
largest (>0.10) Wiberg bond orders for each atom

     #   Z sym  total        # sym  WBO       # sym  WBO       # sym  WBO
 ---------------------------------------------------------------------------
     1   6 C    3.978 --     7 P    1.007     2 C    0.985    26 H    0.929
                            27 H    0.927
     2   6 C    3.986 --     3 C    1.009     1 C    0.985    29 H    0.969
                            28 H    0.962
     3   6 C    3.994 --     2 C    1.009     4 C    1.008    31 H    0.974
                            30 H    0.968
     4   6 C    3.994 --     3 C    1.008     5 C    1.007    32 H    0.975
                            33 H    0.939
     5   6 C    3.997 --     6 C    1.020     4 C    1.007    34 H    0.977
                            35 H    0.974
     6   6 C    3.993 --     5 C    1.020    36 H    0.987    37 H    0.986
                            38 H    0.984
     7  15 P    4.632 --     1 C    1.007    14 C    0.988    20 C    0.987
                             8 C    0.986
     8   6 C    3.976 --    13 C    1.388     9 C    1.372     7 P    0.986
                            11 C    0.103
     9   6 C    3.990 --    10 C    1.455     8 C    1.372    39 H    0.957
                            12 C    0.108
    10   6 C    3.987 --     9 C    1.455    11 C    1.428    40 H    0.966
                            13 C    0.106
    11   6 C    3.983 --    12 C    1.441    10 C    1.428    41 H    0.968
                             8 C    0.103
    12   6 C    3.989 --    11 C    1.441    13 C    1.440    42 H    0.967
                             9 C    0.108
    13   6 C    3.990 --    12 C    1.440     8 C    1.388    43 H    0.958
                            10 C    0.106
    14   6 C    3.975 --    15 C    1.385    19 C    1.366     7 P    0.988
                            17 C    0.103
    15   6 C    3.990 --    16 C    1.442    14 C    1.385    44 H    0.957
                            18 C    0.105
    16   6 C    3.989 --    15 C    1.442    17 C    1.439    45 H    0.967
                            19 C    0.107
    17   6 C    3.980 --    16 C    1.439    18 C    1.428    46 H    0.968
                            14 C    0.103
    18   6 C    3.987 --    19 C    1.453    17 C    1.428    47 H    0.966
                            15 C    0.105
    19   6 C    3.989 --    18 C    1.453    14 C    1.366    48 H    0.955
                            16 C    0.107
    20   6 C    3.977 --    21 C    1.384    25 C    1.367     7 P    0.987
                            23 C    0.103
    21   6 C    3.988 --    22 C    1.442    20 C    1.384    49 H    0.955
                            24 C    0.105
    22   6 C    3.988 --    21 C    1.442    23 C    1.438    50 H    0.966
                            25 C    0.107
    23   6 C    3.980 --    22 C    1.438    24 C    1.428    51 H    0.968
                            20 C    0.103
    24   6 C    3.986 --    25 C    1.454    23 C    1.428    52 H    0.966
                            21 C    0.105
    25   6 C    3.990 --    24 C    1.454    20 C    1.367    53 H    0.955
                            22 C    0.107
    26   1 H    0.992 --     1 C    0.929
    27   1 H    0.991 --     1 C    0.927
    28   1 H    0.997 --     2 C    0.962
    29   1 H    0.996 --     2 C    0.969
    30   1 H    0.996 --     3 C    0.968
    31   1 H    0.999 --     3 C    0.974
    32   1 H    0.998 --     4 C    0.975
    33   1 H    0.999 --     4 C    0.939
    34   1 H    0.999 --     5 C    0.977
    35   1 H    0.999 --     5 C    0.974
    36   1 H    0.998 --     6 C    0.987
    37   1 H    0.998 --     6 C    0.986
    38   1 H    0.998 --     6 C    0.984
    39   1 H    0.997 --     9 C    0.957
    40   1 H    0.995 --    10 C    0.966
    41   1 H    0.995 --    11 C    0.968
    42   1 H    0.995 --    12 C    0.967
    43   1 H    0.997 --    13 C    0.958
    44   1 H    0.997 --    15 C    0.957
    45   1 H    0.995 --    16 C    0.967
    46   1 H    0.995 --    17 C    0.968
    47   1 H    0.995 --    18 C    0.966
    48   1 H    0.997 --    19 C    0.955
    49   1 H    0.996 --    21 C    0.955
    50   1 H    0.995 --    22 C    0.966
    51   1 H    0.995 --    23 C    0.968
    52   1 H    0.995 --    24 C    0.966
    53   1 H    0.997 --    25 C    0.955
 ---------------------------------------------------------------------------

molecular dipole:
                 x           y           z       tot (Debye)
 q only:        0.558       4.142      -0.031
   full:        0.636       4.150      -0.147      10.678

           -------------------------------------------------
          | TOTAL ENERGY              -67.776241913405 Eh   |
          | GRADIENT NORM               0.000586225445 Eh/α |
          | HOMO-LUMO GAP               3.741934988293 eV   |
           -------------------------------------------------

 * finished run on 2024/12/20 at 06:49:07.238
