   * xtb version 6.7.1 (edcfbbe) compiled by 'conda@3ef47c1a292c' on 2024-11-25

   ID    Z sym.   atoms
    1    6 C      1, 3, 5, 7, 8, 10-17, 19-24
    2    8 O      2, 4, 18, 26, 27
    3    7 N      6, 9, 25
    4    1 H      28-45

          program call               : xtb C0576.xyz --opt --namespace C0576 --charge +1
          :  Hamiltonian                  GFN2-xTB          :
 * total energy  :   -78.4860337 Eh     change       -0.5746443E-09 Eh
 * total energy  :   -78.5016301 Eh     change       -0.1559637E-01 Eh
 * total energy  :   -78.5053875 Eh     change       -0.3757340E-02 Eh
 * total energy  :   -78.5058316 Eh     change       -0.4441881E-03 Eh
 * total energy  :   -78.5067140 Eh     change       -0.8823574E-03 Eh
 * total energy  :   -78.5071195 Eh     change       -0.4054718E-03 Eh
 * total energy  :   -78.5076871 Eh     change       -0.5675874E-03 Eh
 * total energy  :   -78.5081939 Eh     change       -0.5068789E-03 Eh
 * total energy  :   -78.5087048 Eh     change       -0.5108868E-03 Eh
 * total energy  :   -78.5091461 Eh     change       -0.4412960E-03 Eh
 * total energy  :   -78.5121753 Eh     change       -0.1643605E-04 Eh
 * total energy  :   -78.5121851 Eh     change       -0.9819097E-05 Eh
 * total energy  :   -78.5122096 Eh     change       -0.2447982E-04 Eh
 * total energy  :   -78.5122180 Eh     change       -0.8375765E-05 Eh
 * total energy  :   -78.5122354 Eh     change       -0.1739125E-04 Eh
 * total energy  :   -78.5122464 Eh     change       -0.1107385E-04 Eh
 * total energy  :   -78.5122538 Eh     change       -0.7328426E-05 Eh
 * total energy  :   -78.5122604 Eh     change       -0.6607250E-05 Eh
 * total energy  :   -78.5122637 Eh     change       -0.3295474E-05 Eh
   *** GEOMETRY OPTIMIZATION CONVERGED AFTER 44 ITERATIONS ***

 final structure:
================
45
 xtb: 6.7.1 (edcfbbe)
C            1.40513198368132        1.84209886020801        0.86140978855152
O            0.53966770634400        2.20483076220452       -0.21960119705360
C            0.79387187269572        1.70309305514319       -1.40262356145531
O            1.69787405551004        0.97264561827658       -1.70890202986660
C           -0.25430761313304        2.17622997061208       -2.43462867019895
N            0.22485808887445        1.87631804432612       -3.75373480937676
C            0.35421299930827        0.64396976759425       -4.26712648065529
C           -0.20936378952080       -0.57609377669746       -3.66641270686540
N            1.03377716639574        0.70341083854273       -5.41995909703714
C            1.36111698301358        2.02620491088743       -5.67107513614396
C            0.86096337464456        2.77402679933646       -4.59249842433418
C            1.03320470726772        4.14982210587267       -4.52551262581631
C            1.70984528045612        4.74929606358691       -5.56885870847293
C            2.19308697231949        4.00967908062849       -6.64960307435123
C            2.02857197854513        2.64089211132219       -6.72337124760118
C            1.37188095104891       -0.41822870728813       -6.26215003857416
C            2.19019446202928       -1.50599230748646       -5.51844286375299
O            1.63161783324761       -2.51772540633057       -5.17825649938643
C            3.62457519441583       -1.26331970839902       -5.28109502312529
C            4.24010493116829       -0.02124675721816       -5.45771221007235
C            5.58997572406167        0.12181762676427       -5.20752964670268
C            6.32819365591168       -0.97821621978767       -4.79119637652936
C            5.73745395920205       -2.22108405033886       -4.60886797842235
C            4.38562253226503       -2.35657063186725       -4.84896967897924
N            7.75456007302108       -0.81717200998063       -4.53776363235895
O            8.20832863663731        0.29568192742082       -4.65915670255045
O            8.37106456969379       -1.80447016516116       -4.22284555761227
H            1.11233795714861        0.86824270847473        1.25517958064261
H            1.27727634013503        2.60810450113600        1.62137801526314
H            2.43994651088063        1.79960122739922        0.52038946301702
H           -1.19865064789295        1.66400406039095       -2.23148456592779
H           -0.41579732805363        3.24895546622079       -2.32987559647206
H            0.45033685811478       -0.93992483606689       -2.87640695654844
H           -1.18158164814558       -0.37181043285693       -3.22146217830823
H           -0.31240717833180       -1.37196589865718       -4.39942711658502
H            0.65871675720378        4.73382784508812       -3.70108344688741
H            1.86577065947876        5.81586066310516       -5.55288673489953
H            2.70646876789668        4.52157637089983       -7.44750186439618
H            2.39789330611419        2.08859730351424       -7.57280109795351
H            0.45535810935233       -0.90148125454116       -6.61868129305717
H            1.93277634243851       -0.05530276077203       -7.12333176286383
H            3.68137597661188        0.84373278885228       -5.77430237580625
H            6.08800169925638        1.07145689967726       -5.33254325039544
H            6.34144803696939       -3.05416887404642       -4.28242140897477
H            3.89378519171675       -3.30786357998552       -4.71516322109769

          :  Hamiltonian                  GFN2-xTB          :
         :: total energy             -78.512263667696 Eh    ::
         :: gradient norm              0.000385785490 Eh/a0 ::
         :: HOMO-LUMO gap              2.497596000994 eV    ::
         :: SCC energy               -79.554893583710 Eh    ::
         :: -> dispersion             -0.049862086742 Eh    ::
         :: repulsion energy           1.042629916014 Eh    ::

    * Orbital Energies and Occupations

         #    Occupation            Energy/Eh            Energy/eV
      -------------------------------------------------------------
         1        2.0000           -0.8859193             -24.1071
       ...           ...                  ...                  ...
        57        2.0000           -0.5842734             -15.8989
        58        2.0000           -0.5779056             -15.7256
        59        2.0000           -0.5741431             -15.6232
        60        2.0000           -0.5656622             -15.3925
        61        2.0000           -0.5589121             -15.2088
        62        2.0000           -0.5570930             -15.1593
        63        2.0000           -0.5539335             -15.0733
        64        2.0000           -0.5519850             -15.0203
        65        2.0000           -0.5497420             -14.9592
        66        2.0000           -0.5466323             -14.8746
        67        2.0000           -0.5376158             -14.6293
        68        2.0000           -0.5357956             -14.5797
        69        2.0000           -0.5257215             -14.3056 (HOMO)
        70                         -0.4339366             -11.8080 (LUMO)
        71                         -0.4123564             -11.2208
        72                         -0.3910801             -10.6418
        73                         -0.3696764             -10.0594
        74                         -0.3671665              -9.9911
        75                         -0.3636809              -9.8963
        76                         -0.3596023              -9.7853
        77                         -0.3203555              -8.7173
        78                         -0.2420393              -6.5862
        79                         -0.2223211              -6.0497
        80                         -0.1822199              -4.9585
       ...                                ...                  ...
       126                          0.5405085              14.7080
      -------------------------------------------------------------
                  HL-Gap            0.0917850 Eh            2.4976 eV

     #   Z          covCN         q      C6AA      α(0)
     1   6 C        3.653     0.015    20.624     6.521
     2   8 O        1.704    -0.225    17.736     5.686
     3   6 C        2.719     0.360    20.899     7.484
     4   8 O        0.856    -0.403    21.748     6.252
     5   6 C        3.742    -0.048    21.511     6.617
     6   7 N        2.833     0.016    20.967     6.801
     7   6 C        3.064     0.133    25.038     8.205
     8   6 C        3.755    -0.140    23.253     6.876
     9   7 N        2.828     0.014    21.010     6.808
    10   6 C        3.091     0.038    27.034     8.522
    11   6 C        3.090     0.040    26.997     8.517
    12   6 C        2.909    -0.033    28.816     8.802
    13   6 C        2.925    -0.018    28.456     8.748
    14   6 C        2.925    -0.019    28.482     8.752
    15   6 C        2.909    -0.036    28.883     8.813
    16   6 C        3.739    -0.045    21.455     6.609
    17   6 C        2.818     0.228    23.208     7.893
    18   8 O        0.858    -0.316    20.064     6.006
    19   6 C        2.970    -0.005    28.156     8.704
    20   6 C        2.920    -0.025    28.620     8.773
    21   6 C        2.917    -0.018    28.457     8.748
    22   6 C        2.917     0.019    27.587     8.613
    23   6 C        2.915    -0.013    28.339     8.729
    24   6 C        2.929    -0.007    28.195     8.708
    25   7 N        2.758     0.555    13.431     5.443
    26   8 O        0.930    -0.364    20.939     6.137
    27   8 O        0.929    -0.354    20.750     6.109
    28   1 H        0.924     0.084     1.938     2.177
    29   1 H        0.925     0.098     1.804     2.101
    30   1 H        0.924     0.085     1.930     2.173
    31   1 H        0.924     0.106     1.734     2.059
    32   1 H        0.925     0.112     1.683     2.029
    33   1 H        0.924     0.120     1.615     1.988
    34   1 H        0.925     0.092     1.858     2.131
    35   1 H        0.925     0.112     1.678     2.025
    36   1 H        0.926     0.068     2.106     2.269
    37   1 H        0.926     0.082     1.961     2.190
    38   1 H        0.926     0.081     1.965     2.192
    39   1 H        0.926     0.067     2.124     2.279
    40   1 H        0.924     0.100     1.788     2.091
    41   1 H        0.925     0.097     1.810     2.104
    42   1 H        0.926     0.054     2.273     2.358
    43   1 H        0.926     0.095     1.834     2.118
    44   1 H        0.926     0.105     1.743     2.065
    45   1 H        0.926     0.093     1.846     2.124

Wiberg/Mayer (AO) data.
largest (>0.10) Wiberg bond orders for each atom

     #   Z sym  total        # sym  WBO       # sym  WBO       # sym  WBO
 ---------------------------------------------------------------------------
     1   6 C    3.891 --    29 H    0.976    30 H    0.976    28 H    0.973
                             2 O    0.929
     2   8 O    2.365 --     3 C    1.205     1 C    0.929     4 O    0.191
     3   6 C    3.933 --     4 O    1.740     2 O    1.205     5 C    0.920
     4   8 O    2.051 --     3 C    1.740     2 O    0.191
     5   6 C    3.955 --     6 N    0.997    32 H    0.952    31 H    0.941
                             3 C    0.920
     6   7 N    3.652 --     7 C    1.314    11 C    1.109     5 C    0.997
     7   6 C    3.952 --     9 N    1.326     6 N    1.314     8 C    1.057
     8   6 C    3.972 --     7 C    1.057    35 H    0.960    34 H    0.957
                            33 H    0.931
     9   7 N    3.655 --     7 C    1.326    10 C    1.107    16 C    0.980
    10   6 C    3.951 --    15 C    1.345    11 C    1.280     9 N    1.107
    11   6 C    3.951 --    12 C    1.348    10 C    1.280     6 N    1.109
    12   6 C    3.984 --    13 C    1.485    11 C    1.348    36 H    0.962
                            15 C    0.117
    13   6 C    3.982 --    12 C    1.485    14 C    1.387    37 H    0.966
    14   6 C    3.982 --    15 C    1.484    13 C    1.387    38 H    0.966
    15   6 C    3.984 --    14 C    1.484    10 C    1.345    39 H    0.960
                            12 C    0.117
    16   6 C    3.945 --     9 N    0.980    41 H    0.956    40 H    0.954
                            17 C    0.930
    17   6 C    3.928 --    18 O    1.857    19 C    1.049    16 C    0.930
    18   8 O    2.108 --    17 C    1.857
    19   6 C    3.988 --    20 C    1.369    24 C    1.364    17 C    1.049
    20   6 C    3.990 --    21 C    1.463    19 C    1.369    42 H    0.961
                            23 C    0.104
    21   6 C    3.984 --    20 C    1.463    22 C    1.386    43 H    0.957
                            24 C    0.104
    22   6 C    3.971 --    23 C    1.392    21 C    1.386    25 N    0.939
    23   6 C    3.980 --    24 C    1.457    22 C    1.392    44 H    0.955
                            20 C    0.104
    24   6 C    3.981 --    23 C    1.457    19 C    1.364    45 H    0.960
                            21 C    0.104
    25   7 N    3.916 --    27 O    1.474    26 O    1.465    22 C    0.939
    26   8 O    1.956 --    25 N    1.465    27 O    0.383
    27   8 O    1.966 --    25 N    1.474    26 O    0.383
    28   1 H    0.993 --     1 C    0.973
    29   1 H    0.990 --     1 C    0.976
    30   1 H    0.993 --     1 C    0.976
    31   1 H    0.988 --     5 C    0.941
    32   1 H    0.987 --     5 C    0.952
    33   1 H    0.981 --     8 C    0.931
    34   1 H    0.990 --     8 C    0.957
    35   1 H    0.987 --     8 C    0.960
    36   1 H    0.995 --    12 C    0.962
    37   1 H    0.993 --    13 C    0.966
    38   1 H    0.993 --    14 C    0.966
    39   1 H    0.995 --    15 C    0.960
    40   1 H    0.989 --    16 C    0.954
    41   1 H    0.990 --    16 C    0.956
    42   1 H    0.997 --    20 C    0.961
    43   1 H    0.991 --    21 C    0.957
    44   1 H    0.988 --    23 C    0.955
    45   1 H    0.991 --    24 C    0.960
 ---------------------------------------------------------------------------

molecular dipole:
                 x           y           z       tot (Debye)
 q only:        0.670       3.170      -7.982
   full:        0.468       3.318      -7.995      22.035

           -------------------------------------------------
          | TOTAL ENERGY              -78.512263667696 Eh   |
          | GRADIENT NORM               0.000385785490 Eh/α |
          | HOMO-LUMO GAP               2.497596000994 eV   |
           -------------------------------------------------

 * finished run on 2024/12/20 at 06:49:18.927
