   * xtb version 6.7.1 (edcfbbe) compiled by 'conda@3ef47c1a292c' on 2024-11-25

   ID    Z sym.   atoms
    1    6 C      1, 2, 4, 5, 7-10
    2    7 N      3, 6
    3    1 H      11-25

          program call               : xtb C0588.xyz --opt --namespace C0588 --charge +1
          :  Hamiltonian                  GFN2-xTB          :
 * total energy  :   -30.2714634 Eh     change       -0.1276490E-10 Eh
 * total energy  :   -30.2750871 Eh     change       -0.3623714E-02 Eh
 * total energy  :   -30.2757240 Eh     change       -0.6369068E-03 Eh
 * total energy  :   -30.2758325 Eh     change       -0.1084654E-03 Eh
 * total energy  :   -30.2759305 Eh     change       -0.9799589E-04 Eh
 * total energy  :   -30.2759682 Eh     change       -0.3772418E-04 Eh
 * total energy  :   -30.2760397 Eh     change       -0.7147864E-04 Eh
 * total energy  :   -30.2761614 Eh     change       -0.1216876E-03 Eh
 * total energy  :   -30.2762731 Eh     change       -0.1117356E-03 Eh
 * total energy  :   -30.2763987 Eh     change       -0.1256031E-03 Eh
 * total energy  :   -30.2767219 Eh     change       -0.4247971E-04 Eh
 * total energy  :   -30.2767535 Eh     change       -0.3162110E-04 Eh
 * total energy  :   -30.2767725 Eh     change       -0.1898767E-04 Eh
 * total energy  :   -30.2767891 Eh     change       -0.1665397E-04 Eh
 * total energy  :   -30.2768024 Eh     change       -0.1326026E-04 Eh
 * total energy  :   -30.2768142 Eh     change       -0.1177690E-04 Eh
 * total energy  :   -30.2768210 Eh     change       -0.6807967E-05 Eh
 * total energy  :   -30.2768241 Eh     change       -0.3081183E-05 Eh
 * total energy  :   -30.2768279 Eh     change       -0.3799276E-05 Eh
   *** GEOMETRY OPTIMIZATION CONVERGED AFTER 22 ITERATIONS ***

 final structure:
================
25
 xtb: 6.7.1 (edcfbbe)
C            1.38867398324494        0.57059158896804        0.05387320174124
C            0.27038076520610        1.06368436070329       -0.85945603080112
N            0.75045302802677        1.24378316381851       -2.21383000242633
C            0.83168359970801        0.24802412120743       -3.14400152512753
C            1.38258962766256        0.78578605585448       -4.26078034164414
N            1.64061093562668        2.10116961193338       -3.99674030501756
C            1.24797275853343        2.36753627983308       -2.74489862105092
C            1.32086809240023        3.66976726317194       -2.05033084232775
C            2.17865333645945        3.03126603552030       -4.96840064081647
C            1.06031474193454        3.76504320017797       -5.70133888171409
H            1.77360814001255       -0.38611595074827       -0.28990614067391
H            1.00165690068947        0.44212563799835        1.05990816314821
H            2.21008726306848        1.28175697074835        0.09113252363494
H           -0.53871462784704        0.33101504463195       -0.88619488568208
H           -0.13031352316871        2.01185723099788       -0.49778755496789
H            0.49315147196451       -0.74811656728554       -2.94750541928843
H            1.60975192261681        0.33782611438949       -5.20591099063972
H            1.86350992394939        4.40054517389710       -2.64142484083792
H            0.31855510101714        4.05948608131210       -1.86750203702833
H            1.81752719785433        3.56593244118295       -1.08684051277273
H            2.83627882055993        3.74030730765580       -4.46199825087960
H            2.77707816681039        2.45710812769465       -5.67787909672053
H            0.45298525333633        4.34484983345204       -5.01112561697317
H            1.49174601312820        4.44262280956184       -6.43156648161317
H            0.41827110720551        3.06131806332415       -6.22487486952005

          :  Hamiltonian                  GFN2-xTB          :
         :: total energy             -30.276827867016 Eh    ::
         :: gradient norm              0.000344735724 Eh/a0 ::
         :: HOMO-LUMO gap              4.736106289770 eV    ::
         :: SCC energy               -30.743332595255 Eh    ::
         :: -> dispersion             -0.018007229311 Eh    ::
         :: repulsion energy           0.466504728239 Eh    ::

    * Orbital Energies and Occupations

         #    Occupation            Energy/Eh            Energy/eV
      -------------------------------------------------------------
         1        2.0000           -0.8865925             -24.1254
       ...           ...                  ...                  ...
        16        2.0000           -0.6661750             -18.1275
        17        2.0000           -0.6516008             -17.7310
        18        2.0000           -0.6510096             -17.7149
        19        2.0000           -0.6482753             -17.6405
        20        2.0000           -0.6432637             -17.5041
        21        2.0000           -0.6354514             -17.2915
        22        2.0000           -0.6232878             -16.9605
        23        2.0000           -0.6023773             -16.3915
        24        2.0000           -0.5994140             -16.3109
        25        2.0000           -0.5929992             -16.1363
        26        2.0000           -0.5897810             -16.0488
        27        2.0000           -0.5890247             -16.0282
        28        2.0000           -0.5690023             -15.4833 (HOMO)
        29                         -0.3949536             -10.7472 (LUMO)
        30                         -0.3615697              -9.8388
        31                         -0.1858439              -5.0571
        32                         -0.1297170              -3.5298
        33                         -0.0659718              -1.7952
        34                         -0.0571970              -1.5564
        35                         -0.0445127              -1.2113
        36                         -0.0343102              -0.9336
        37                         -0.0271418              -0.7386
        38                         -0.0112198              -0.3053
        39                         -0.0015793              -0.0430
       ...                                ...                  ...
        55                          0.4783669              13.0170
      -------------------------------------------------------------
                  HL-Gap            0.1740487 Eh            4.7361 eV

     #   Z          covCN         q      C6AA      α(0)
     1   6 C        3.753    -0.123    22.915     6.826
     2   6 C        3.740    -0.020    21.002     6.539
     3   7 N        2.875     0.037    20.587     6.739
     4   6 C        3.048    -0.009    28.190     8.708
     5   6 C        3.053    -0.009    28.200     8.709
     6   7 N        2.871     0.038    20.568     6.736
     7   6 C        3.100     0.108    25.493     8.274
     8   6 C        3.754    -0.135    23.157     6.862
     9   6 C        3.740    -0.018    20.971     6.534
    10   6 C        3.753    -0.124    22.944     6.831
    11   1 H        0.925     0.066     2.129     2.282
    12   1 H        0.925     0.082     1.958     2.188
    13   1 H        0.925     0.058     2.217     2.328
    14   1 H        0.924     0.088     1.896     2.154
    15   1 H        0.924     0.083     1.950     2.184
    16   1 H        0.927     0.102     1.762     2.076
    17   1 H        0.927     0.102     1.766     2.078
    18   1 H        0.925     0.095     1.835     2.119
    19   1 H        0.924     0.100     1.786     2.090
    20   1 H        0.925     0.099     1.793     2.094
    21   1 H        0.924     0.080     1.975     2.198
    22   1 H        0.924     0.089     1.893     2.152
    23   1 H        0.925     0.061     2.185     2.312
    24   1 H        0.925     0.082     1.959     2.189
    25   1 H        0.925     0.066     2.132     2.283

Wiberg/Mayer (AO) data.
largest (>0.10) Wiberg bond orders for each atom

     #   Z sym  total        # sym  WBO       # sym  WBO       # sym  WBO
 ---------------------------------------------------------------------------
     1   6 C    3.983 --     2 C    1.002    13 H    0.984    11 H    0.984
                            12 H    0.977
     2   6 C    3.942 --     1 C    1.002     3 N    0.967    15 H    0.965
                            14 H    0.965
     3   7 N    3.691 --     7 C    1.327     4 C    1.210     2 C    0.967
     4   6 C    3.950 --     5 C    1.612     3 N    1.210    16 H    0.962
     5   6 C    3.950 --     4 C    1.612     6 N    1.208    17 H    0.962
     6   7 N    3.692 --     7 C    1.329     5 C    1.208     9 C    0.967
     7   6 C    3.953 --     6 N    1.329     3 N    1.327     8 C    1.045
     8   6 C    3.978 --     7 C    1.045    18 H    0.969    20 H    0.956
                            19 H    0.947
     9   6 C    3.942 --    10 C    1.003     6 N    0.967    22 H    0.966
                            21 H    0.962
    10   6 C    3.982 --     9 C    1.003    23 H    0.984    25 H    0.984
                            24 H    0.977
    11   1 H    0.996 --     1 C    0.984
    12   1 H    0.992 --     1 C    0.977
    13   1 H    0.997 --     1 C    0.984
    14   1 H    0.992 --     2 C    0.965
    15   1 H    0.993 --     2 C    0.965
    16   1 H    0.989 --     4 C    0.962
    17   1 H    0.990 --     5 C    0.962
    18   1 H    0.991 --     8 C    0.969
    19   1 H    0.990 --     8 C    0.947
    20   1 H    0.990 --     8 C    0.956
    21   1 H    0.993 --     9 C    0.962
    22   1 H    0.992 --     9 C    0.966
    23   1 H    0.996 --    10 C    0.984
    24   1 H    0.992 --    10 C    0.977
    25   1 H    0.996 --    10 C    0.984
 ---------------------------------------------------------------------------

molecular dipole:
                 x           y           z       tot (Debye)
 q only:        2.279       3.835      -5.500
   full:        2.276       3.792      -5.520      17.977

           -------------------------------------------------
          | TOTAL ENERGY              -30.276827867016 Eh   |
          | GRADIENT NORM               0.000344735724 Eh/α |
          | HOMO-LUMO GAP               4.736106289770 eV   |
           -------------------------------------------------

 * finished run on 2024/12/20 at 06:49:38.147
