   * xtb version 6.7.1 (edcfbbe) compiled by 'conda@3ef47c1a292c' on 2024-11-25

   ID    Z sym.   atoms
    1    6 C      1-3, 5, 7-15, 17-19
    2    7 N      4, 6
    3   14 Si     16
    4    1 H      20-40

          program call               : xtb C0584.xyz --opt --namespace C0584 --charge +1
          :  Hamiltonian                  GFN2-xTB          :
 * total energy  :   -52.0721982 Eh     change       -0.2712909E-08 Eh
 * total energy  :   -52.0785994 Eh     change       -0.6401259E-02 Eh
 * total energy  :   -52.0796530 Eh     change       -0.1053578E-02 Eh
 * total energy  :   -52.0799239 Eh     change       -0.2709373E-03 Eh
 * total energy  :   -52.0801349 Eh     change       -0.2110087E-03 Eh
 * total energy  :   -52.0802513 Eh     change       -0.1163275E-03 Eh
 * total energy  :   -52.0803592 Eh     change       -0.1078958E-03 Eh
 * total energy  :   -52.0804785 Eh     change       -0.1192971E-03 Eh
 * total energy  :   -52.0806115 Eh     change       -0.1330774E-03 Eh
 * total energy  :   -52.0807732 Eh     change       -0.1617113E-03 Eh
 * total energy  :   -52.0811614 Eh     change       -0.4459340E-04 Eh
 * total energy  :   -52.0811940 Eh     change       -0.3265721E-04 Eh
 * total energy  :   -52.0812246 Eh     change       -0.3059968E-04 Eh
 * total energy  :   -52.0812589 Eh     change       -0.3430578E-04 Eh
 * total energy  :   -52.0812939 Eh     change       -0.3491803E-04 Eh
 * total energy  :   -52.0813248 Eh     change       -0.3090394E-04 Eh
 * total energy  :   -52.0813465 Eh     change       -0.2178026E-04 Eh
 * total energy  :   -52.0813545 Eh     change       -0.7917271E-05 Eh
 * total energy  :   -52.0813580 Eh     change       -0.3527951E-05 Eh
   *** GEOMETRY OPTIMIZATION CONVERGED AFTER 22 ITERATIONS ***

 final structure:
================
40
 xtb: 6.7.1 (edcfbbe)
C            0.90992193674989        0.28084537367848        0.22700256443111
C            0.49471979735929        1.53110665578878        0.17253458935943
C           -0.83905750831287        1.94424435404933       -0.39024165104764
N           -1.53804296118308        2.81990890548295        0.52545742567408
C           -1.81920207914263        4.10478123373352        0.34255662205839
N           -2.45021582534754        4.61730679835414        1.39309177815644
C           -2.57888726068619        3.62012241953533        2.33596283184357
C           -1.99652339140539        2.46493416179318        1.77717221925802
C           -1.96529494655568        1.26080330396236        2.47054194038118
C           -2.53002928736274        1.25203691456372        3.72839319855335
C           -3.10611411029535        2.39843832074747        4.28539710932276
C           -3.14191288897420        3.59837296484244        3.60700796102222
C           -2.85149635654250        6.00642939021113        1.53027536955473
C           -1.68637588438095        6.85790479553809        1.73358102707166
C           -0.70722190453150        7.53988811381739        1.88980531665185
Si           0.76213083042600        8.69086258475796        2.12734349241277
C            0.07562289566261       10.45822123843623        2.01968774448655
C            1.96896741919583        8.29250453469912        0.70977447772963
C            1.49786389957255        8.28604948019629        3.83318176932528
H            0.30632715930514       -0.53939773403151       -0.12582078875202
H            1.88004549529542        0.02623734070457        0.61476082530977
H            1.11553580212658        2.34398753024302        0.52288474564331
H           -0.69621011532865        2.48490934244400       -1.33032786852962
H           -1.45814721837640        1.06316814531963       -0.58137689418192
H           -1.57141849504225        4.66412912399245       -0.54066713661380
H           -1.51432200915350        0.37936533242753        2.04666287067243
H           -2.52776639338033        0.33862649632190        4.30116332540070
H           -3.53269501346059        2.33998380327024        5.27391384011455
H           -3.58270236774076        4.47582226767295        4.05093190715099
H           -3.53148243000302        6.08913122097833        2.38124463510118
H           -3.38085175034924        6.31788670816520        0.62325594167975
H           -0.66458625258337       10.64448711391969        2.79204865767724
H            0.86815932221613       11.19046826842930        2.14247610682675
H           -0.39645306517360       10.64489722402303        1.05967546889366
H            2.82739247193949        8.95665093230432        0.73961903183091
H            2.34395614361311        7.27486413099489        0.77127384582153
H            1.49813434400158        8.41458750077648       -0.26134420431324
H            1.86449138996033        7.26482505824656        3.88371731541423
H            2.33249976533541        8.94326785774130        4.05821525113483
H            0.76254084255562        8.41176079186410        4.62233733747093

          :  Hamiltonian                  GFN2-xTB          :
         :: total energy             -52.081357984170 Eh    ::
         :: gradient norm              0.000562991329 Eh/a0 ::
         :: HOMO-LUMO gap              1.905797048812 eV    ::
         :: SCC energy               -53.017973372818 Eh    ::
         :: -> dispersion             -0.035882568760 Eh    ::
         :: repulsion energy           0.936615388647 Eh    ::

    * Orbital Energies and Occupations

         #    Occupation            Energy/Eh            Energy/eV
      -------------------------------------------------------------
         1        2.0000           -0.8757910             -23.8315
       ...           ...                  ...                  ...
        37        2.0000           -0.5504419             -14.9783
        38        2.0000           -0.5491665             -14.9436
        39        2.0000           -0.5460721             -14.8594
        40        2.0000           -0.5417692             -14.7423
        41        2.0000           -0.5412453             -14.7280
        42        2.0000           -0.5391008             -14.6697
        43        2.0000           -0.5388933             -14.6640
        44        2.0000           -0.5374932             -14.6259
        45        2.0000           -0.5291969             -14.4002
        46        2.0000           -0.5236961             -14.2505
        47        2.0000           -0.5079018             -13.8207
        48        2.0000           -0.4816128             -13.1054
        49        2.0000           -0.4808195             -13.0838 (HOMO)
        50                         -0.4107827             -11.1780 (LUMO)
        51                         -0.3605475              -9.8110
        52                         -0.3526520              -9.5962
        53                         -0.3375158              -9.1843
        54                         -0.3060559              -8.3282
        55                         -0.2958846              -8.0514
        56                         -0.2351476              -6.3987
        57                         -0.2327407              -6.3332
        58                         -0.1902478              -5.1769
        59                         -0.1844738              -5.0198
        60                         -0.1599379              -4.3521
       ...                                ...                  ...
       102                          1.2180570              33.1450
      -------------------------------------------------------------
                  HL-Gap            0.0700368 Eh            1.9058 eV

     #   Z          covCN         q      C6AA      α(0)
     1   6 C        2.837    -0.080    29.983     8.973
     2   6 C        2.886    -0.038    28.938     8.819
     3   6 C        3.745    -0.018    20.971     6.532
     4   7 N        2.829     0.033    20.671     6.753
     5   6 C        3.074     0.067    26.437     8.430
     6   7 N        2.834     0.037    20.593     6.740
     7   6 C        3.118     0.041    26.920     8.498
     8   6 C        3.124     0.040    26.923     8.497
     9   6 C        2.908    -0.032    28.807     8.801
    10   6 C        2.926    -0.018    28.456     8.748
    11   6 C        2.925    -0.018    28.454     8.748
    12   6 C        2.908    -0.031    28.783     8.797
    13   6 C        3.743     0.000    20.650     6.483
    14   6 C        1.968    -0.052    32.474     9.203
    15   6 C        1.858    -0.128    34.730     9.519
    16  14 Si       3.502     0.501   100.490    19.394
    17   6 C        3.650    -0.203    24.890     7.166
    18   6 C        3.649    -0.204    24.900     7.169
    19   6 C        3.649    -0.203    24.891     7.167
    20   1 H        0.926     0.065     2.145     2.290
    21   1 H        0.926     0.077     2.013     2.219
    22   1 H        0.926     0.055     2.259     2.350
    23   1 H        0.924     0.083     1.947     2.182
    24   1 H        0.924     0.090     1.877     2.143
    25   1 H        0.926     0.105     1.743     2.064
    26   1 H        0.926     0.073     2.057     2.243
    27   1 H        0.926     0.080     1.983     2.202
    28   1 H        0.926     0.080     1.979     2.200
    29   1 H        0.926     0.071     2.073     2.252
    30   1 H        0.924     0.096     1.819     2.109
    31   1 H        0.924     0.089     1.885     2.147
    32   1 H        0.925     0.039     2.458     2.452
    33   1 H        0.925     0.044     2.390     2.418
    34   1 H        0.925     0.039     2.464     2.455
    35   1 H        0.925     0.043     2.415     2.430
    36   1 H        0.925     0.031     2.576     2.510
    37   1 H        0.925     0.034     2.525     2.485
    38   1 H        0.925     0.033     2.537     2.491
    39   1 H        0.925     0.043     2.408     2.427
    40   1 H        0.925     0.037     2.485     2.465

Wiberg/Mayer (AO) data.
largest (>0.10) Wiberg bond orders for each atom

     #   Z sym  total        # sym  WBO       # sym  WBO       # sym  WBO
 ---------------------------------------------------------------------------
     1   6 C    3.984 --     2 C    1.988    20 H    0.972    21 H    0.971
     2   6 C    3.982 --     1 C    1.988     3 C    0.998    22 H    0.964
     3   6 C    3.942 --     2 C    0.998     4 N    0.965    23 H    0.956
                            24 H    0.955
     4   7 N    3.683 --     5 C    1.370     8 C    1.128     3 C    0.965
                             6 N    0.104
     5   6 C    3.952 --     6 N    1.371     4 N    1.370    25 H    0.954
     6   7 N    3.683 --     5 C    1.371     7 C    1.132    13 C    0.951
                             4 N    0.104
     7   6 C    3.954 --    12 C    1.336     8 C    1.271     6 N    1.132
     8   6 C    3.953 --     9 C    1.337     7 C    1.271     4 N    1.128
     9   6 C    3.986 --    10 C    1.498     8 C    1.337    26 H    0.963
                            12 C    0.119
    10   6 C    3.986 --     9 C    1.498    11 C    1.375    27 H    0.966
    11   6 C    3.984 --    12 C    1.498    10 C    1.375    28 H    0.966
    12   6 C    3.986 --    11 C    1.498     7 C    1.336    29 H    0.962
                             9 C    0.119
    13   6 C    3.939 --    14 C    1.021     6 N    0.951    30 H    0.948
                            31 H    0.945
    14   6 C    3.968 --    15 C    2.853    13 C    1.021
    15   6 C    3.913 --    14 C    2.853    16 Si   0.856
    16  14 Si   3.665 --    17 C    0.898    19 C    0.896    18 C    0.893
                            15 C    0.856
    17   6 C    3.983 --    32 H    0.987    34 H    0.987    33 H    0.985
                            16 Si   0.898
    18   6 C    3.980 --    36 H    0.989    37 H    0.988    35 H    0.986
                            16 Si   0.893
    19   6 C    3.981 --    40 H    0.988    38 H    0.988    39 H    0.986
                            16 Si   0.896
    20   1 H    0.996 --     1 C    0.972
    21   1 H    0.993 --     1 C    0.971
    22   1 H    0.997 --     2 C    0.964
    23   1 H    0.993 --     3 C    0.956
    24   1 H    0.991 --     3 C    0.955
    25   1 H    0.988 --     5 C    0.954
    26   1 H    0.994 --     9 C    0.963
    27   1 H    0.993 --    10 C    0.966
    28   1 H    0.993 --    11 C    0.966
    29   1 H    0.994 --    12 C    0.962
    30   1 H    0.990 --    13 C    0.948
    31   1 H    0.990 --    13 C    0.945
    32   1 H    0.998 --    17 C    0.987
    33   1 H    0.998 --    17 C    0.985
    34   1 H    0.998 --    17 C    0.987
    35   1 H    0.998 --    18 C    0.986
    36   1 H    0.999 --    18 C    0.989
    37   1 H    0.999 --    18 C    0.988
    38   1 H    0.999 --    19 C    0.988
    39   1 H    0.998 --    19 C    0.986
    40   1 H    0.999 --    19 C    0.988
 ---------------------------------------------------------------------------

molecular dipole:
                 x           y           z       tot (Debye)
 q only:       -3.039       7.076       2.659
   full:       -2.992       7.294       2.461      20.992

           -------------------------------------------------
          | TOTAL ENERGY              -52.081357984170 Eh   |
          | GRADIENT NORM               0.000562991329 Eh/α |
          | HOMO-LUMO GAP               1.905797048812 eV   |
           -------------------------------------------------

 * finished run on 2024/12/20 at 06:49:33.794
