   * xtb version 6.7.1 (edcfbbe) compiled by 'conda@3ef47c1a292c' on 2024-11-25

   ID    Z sym.   atoms
    1    7 N      1, 4, 7
    2    6 C      2, 3, 5, 6, 8, 9
    3    1 H      10-17

          program call               : xtb C0581.xyz --opt --namespace C0581 --charge +1
          :  Hamiltonian                  GFN2-xTB          :
 * total energy  :   -25.2224282 Eh     change       -0.2047464E-09 Eh
 * total energy  :   -25.2551267 Eh     change       -0.3269854E-01 Eh
 * total energy  :   -25.2568067 Eh     change       -0.1680044E-02 Eh
 * total energy  :   -25.2570837 Eh     change       -0.2769343E-03 Eh
 * total energy  :   -25.2571597 Eh     change       -0.7599294E-04 Eh
 * total energy  :   -25.2571837 Eh     change       -0.2406747E-04 Eh
 * total energy  :   -25.2571905 Eh     change       -0.6772105E-05 Eh
 * total energy  :   -25.2571945 Eh     change       -0.3971615E-05 Eh
   *** GEOMETRY OPTIMIZATION CONVERGED AFTER 8 ITERATIONS ***

 final structure:
================
17
 xtb: 6.7.1 (edcfbbe)
N            1.17289570732022       -0.07293052608387       -0.13444225520238
C            2.30928621917724       -0.09480842518606       -0.06241839870539
C            3.76611677892424       -0.10188800775754       -0.02040933259276
N            4.30058385938380        0.12252124119747       -1.34714098934077
C            4.83756041339344       -0.82259981322782       -2.16667321342546
C            5.15268346780922       -0.20315601800575       -3.33892910118203
N            4.79662389957434        1.10431163625274       -3.21866377322462
C            4.28062234947962        1.28174219146997       -2.00686748774567
C            4.96118084408053        2.12181183757006       -4.22349913859990
H            4.10142715814927        0.68467803809804        0.66494895136900
H            4.10860773403037       -1.07123002565803        0.35448705454711
H            4.96040555507628       -1.84617398753350       -1.87558872907926
H            5.59609314230907       -0.60592767718028       -4.22694987237209
H            3.90337989225646        2.20972485648849       -1.62029409731967
H            4.01784829362573        2.63960393402958       -4.39642651731455
H            5.70667226714951        2.85257357918682       -3.90649898903812
H            5.29072241826063        1.66403716633968       -5.15334411077345

          :  Hamiltonian                  GFN2-xTB          :
         :: total energy             -25.257194471818 Eh    ::
         :: gradient norm              0.000854375831 Eh/a0 ::
         :: HOMO-LUMO gap              3.987085714256 eV    ::
         :: SCC energy               -25.688196838320 Eh    ::
         :: -> dispersion             -0.011444392883 Eh    ::
         :: repulsion energy           0.431002366503 Eh    ::

    * Orbital Energies and Occupations

         #    Occupation            Energy/Eh            Energy/eV
      -------------------------------------------------------------
         1        2.0000           -0.9190057             -25.0074
       ...           ...                  ...                  ...
        11        2.0000           -0.7307653             -19.8851
        12        2.0000           -0.7201984             -19.5976
        13        2.0000           -0.7128538             -19.3977
        14        2.0000           -0.6961311             -18.9427
        15        2.0000           -0.6870738             -18.6962
        16        2.0000           -0.6813880             -18.5415
        17        2.0000           -0.6759090             -18.3924
        18        2.0000           -0.6529955             -17.7689
        19        2.0000           -0.6375412             -17.3484
        20        2.0000           -0.6316455             -17.1879
        21        2.0000           -0.6249411             -17.0055
        22        2.0000           -0.6081428             -16.5484
        23        2.0000           -0.5780577             -15.7297 (HOMO)
        24                         -0.4315349             -11.7427 (LUMO)
        25                         -0.3923031             -10.6751
        26                         -0.3716631             -10.1135
        27                         -0.3597164              -9.7884
        28                         -0.1985681              -5.4033
        29                         -0.1475547              -4.0152
        30                         -0.0736664              -2.0046
        31                         -0.0688977              -1.8748
        32                         -0.0553769              -1.5069
        33                         -0.0403250              -1.0973
        34                         -0.0150767              -0.4103
       ...                                ...                  ...
        44                          0.9927456              27.0140
      -------------------------------------------------------------
                  HL-Gap            0.1465227 Eh            3.9871 eV

     #   Z          covCN         q      C6AA      α(0)
     1   7 N        0.911    -0.135    23.940     7.077
     2   6 C        1.898     0.108    28.428     8.611
     3   6 C        3.744    -0.016    20.936     6.527
     4   7 N        2.878     0.072    19.984     6.639
     5   6 C        3.063    -0.004    28.052     8.685
     6   6 C        3.075    -0.004    28.046     8.683
     7   7 N        2.866     0.088    19.720     6.596
     8   6 C        3.092     0.046    26.869     8.496
     9   6 C        3.692    -0.091    22.424     6.776
    10   1 H        0.924     0.122     1.597     1.976
    11   1 H        0.924     0.127     1.556     1.951
    12   1 H        0.926     0.115     1.652     2.010
    13   1 H        0.926     0.118     1.626     1.994
    14   1 H        0.926     0.121     1.607     1.982
    15   1 H        0.925     0.110     1.698     2.038
    16   1 H        0.924     0.110     1.695     2.036
    17   1 H        0.925     0.113     1.675     2.024

Wiberg/Mayer (AO) data.
largest (>0.10) Wiberg bond orders for each atom

     #   Z sym  total        # sym  WBO       # sym  WBO       # sym  WBO
 ---------------------------------------------------------------------------
     1   7 N    3.046 --     2 C    2.901
     2   6 C    3.955 --     1 N    2.901     3 C    1.015
     3   6 C    3.946 --     2 C    1.015     4 N    0.967    11 H    0.938
                            10 H    0.933
     4   7 N    3.713 --     8 C    1.348     5 C    1.228     3 C    0.967
     5   6 C    3.947 --     6 C    1.586     4 N    1.228    12 H    0.959
     6   6 C    3.948 --     5 C    1.586     7 N    1.234    13 H    0.958
     7   7 N    3.731 --     8 C    1.373     6 C    1.234     9 C    0.987
     8   6 C    3.945 --     7 N    1.373     4 N    1.348    14 H    0.953
     9   6 C    3.926 --     7 N    0.987    17 H    0.973    15 H    0.963
                            16 H    0.959
    10   1 H    0.985 --     3 C    0.933
    11   1 H    0.983 --     3 C    0.938
    12   1 H    0.987 --     5 C    0.959
    13   1 H    0.986 --     6 C    0.958
    14   1 H    0.985 --     8 C    0.953
    15   1 H    0.988 --     9 C    0.963
    16   1 H    0.987 --     9 C    0.959
    17   1 H    0.987 --     9 C    0.973
 ---------------------------------------------------------------------------

molecular dipole:
                 x           y           z       tot (Debye)
 q only:        9.188       1.319      -4.410
   full:        9.667       1.350      -4.325      27.135

           -------------------------------------------------
          | TOTAL ENERGY              -25.257194471818 Eh   |
          | GRADIENT NORM               0.000854375831 Eh/α |
          | HOMO-LUMO GAP               3.987085714256 eV   |
           -------------------------------------------------

 * finished run on 2024/12/20 at 06:49:28.957
