   * xtb version 6.7.1 (edcfbbe) compiled by 'conda@3ef47c1a292c' on 2024-11-25

   ID    Z sym.   atoms
    1    6 C      1-8, 10-13, 15-27
    2    8 O      9
    3    7 N      14
    4    1 H      28-63

          program call               : xtb C0580.xyz --opt --namespace C0580 --charge +1
          :  Hamiltonian                  GFN2-xTB          :
 * total energy  :   -78.4496510 Eh     change       -0.8036949E-09 Eh
 * total energy  :   -78.4616368 Eh     change       -0.1198578E-01 Eh
 * total energy  :   -78.4664214 Eh     change       -0.4784594E-02 Eh
 * total energy  :   -78.4681500 Eh     change       -0.1728550E-02 Eh
 * total energy  :   -78.4694782 Eh     change       -0.1328214E-02 Eh
 * total energy  :   -78.4705598 Eh     change       -0.1081660E-02 Eh
 * total energy  :   -78.4715739 Eh     change       -0.1014094E-02 Eh
 * total energy  :   -78.4721179 Eh     change       -0.5440006E-03 Eh
 * total energy  :   -78.4726853 Eh     change       -0.5673590E-03 Eh
 * total energy  :   -78.4733826 Eh     change       -0.6973161E-03 Eh
 * total energy  :   -78.4795782 Eh     change       -0.8881250E-05 Eh
 * total energy  :   -78.4795868 Eh     change       -0.8528047E-05 Eh
 * total energy  :   -78.4795952 Eh     change       -0.8397930E-05 Eh
 * total energy  :   -78.4796036 Eh     change       -0.8488081E-05 Eh
 * total energy  :   -78.4796123 Eh     change       -0.8670915E-05 Eh
 * total energy  :   -78.4796212 Eh     change       -0.8915849E-05 Eh
 * total energy  :   -78.4796302 Eh     change       -0.8969598E-05 Eh
 * total energy  :   -78.4796392 Eh     change       -0.9002350E-05 Eh
 * total energy  :   -78.4796436 Eh     change       -0.4441323E-05 Eh
   *** GEOMETRY OPTIMIZATION CONVERGED AFTER 122 ITERATIONS ***

 final structure:
================
63
 xtb: 6.7.1 (edcfbbe)
C            1.47770944987023        0.72882060848495       -0.38407630386971
C            1.11915783574101       -0.27468809931962        0.72157756282206
C            1.25430359797235        0.39351206822819        2.08606708515125
C            2.11814004022963       -0.12086045116549        3.03254199174082
C            2.24185449728250        0.45661514014494        4.28911210380820
C            1.49971756008200        1.58167259267164        4.58185441937813
C            0.63665464626336        2.16914381171519        3.65755476142356
C            0.49638706930603        1.54581239449118        2.40709378548769
O           -0.34718121729372        1.97889487533568        1.45735171247097
C           -0.04802258922772        3.45548791522074        4.15162847123058
C           -0.89421191999679        3.11902606642842        5.39161519276729
C            1.05254407030659        4.46888620852737        4.51620135379576
C           -0.98466167146007        4.18284221111721        3.17349117224037
N            3.12646447003858       -0.17285467825187        5.30512256317676
C            2.43162289739408       -1.39668172992902        5.86161611444953
C            2.24688545727527       -2.49984890402854        4.87455573441547
C            1.07371956184978       -2.76500501795252        4.29517884145817
C            0.80178156958442       -3.79873137665966        3.31307670604402
C           -0.49272396956816       -3.90272152290035        2.79562397107620
C           -0.79737221602053       -4.84123099322111        1.82910970533603
C            0.18481046227412       -5.69939985556957        1.36200712247152
C            1.47132539032871       -5.61585203430168        1.87193304631727
C            1.77944949834097       -4.67713822080693        2.83624456682027
C            4.42724542649851       -0.53430832554184        4.70858580667472
C            3.41073385439303        0.72837394718544        6.43837035811033
C           -0.32001271554841       -0.77871040622836        0.54379694413226
C            2.04876534934896       -1.48328697640692        0.55962753337415
H            0.78573669977421        1.56258702677156       -0.40308547545703
H            1.43814894515773        0.23390914061788       -1.35042224808415
H            2.48529834719350        1.11138642779426       -0.23437263290361
H            2.68319259800354       -0.99484117076858        2.77639651904284
H            1.57214388372779        2.04685868492309        5.54655862583205
H           -0.82409469561949        2.76696607398748        1.74165859824838
H           -0.29493595148612        2.74053563943786        6.21421616719319
H           -1.40498879694917        4.01228074184687        5.74138110269514
H           -1.64484359876226        2.37095754183735        5.14509060872036
H            1.67775686305638        4.67213285869876        3.64931097499234
H            0.60113551443630        5.40374756407256        4.83757009550823
H            1.69155991498777        4.12047797556757        5.32174928311824
H           -0.46813488367767        4.50944876248951        2.27132354616884
H           -1.87882064155614        3.60280937439782        2.94404154119687
H           -1.33742639184982        5.08981158290408        3.66317648852261
H            3.03228329686703       -1.74864372457328        6.70442020901464
H            1.45973808434471       -1.06055390850348        6.22960537957083
H            3.11621924523293       -3.10606496261428        4.67067303332868
H            0.22044053875989       -2.14642369267344        4.54866783061568
H           -1.26368396158963       -3.23921486639350        3.16134727377069
H           -1.80157629200231       -4.90457856510323        1.43910250051745
H           -0.05033340806135       -6.43299993656689        0.60673654532653
H            2.23762085719196       -6.28673307585353        1.51460943467200
H            2.78693606502864       -4.63142215770077        3.22025422094961
H            4.90271203122749        0.36189216798975        4.31351896941518
H            5.06972987040015       -0.97816554359725        5.46754788724611
H            4.30412095471492       -1.24807229881686        3.90097317268933
H            3.80345966198250        1.67536205737232        6.07206213372101
H            2.51379859054169        0.90511049241587        7.02756687873703
H            4.15492355622344        0.27024437529322        7.08827330554419
H           -0.41458564955762       -1.27737590594098       -0.41680572853467
H           -0.56558537425575       -1.49388676920213        1.32605122751901
H           -1.03150317077553        0.03854996519587        0.57377282516229
H            1.90202898399564       -1.90243774394416       -0.43238777106565
H            3.09539614721923       -1.19700499818395        0.64117140291190
H            1.82154576051738       -2.26740838041320        1.27888375187872

          :  Hamiltonian                  GFN2-xTB          :
         :: total energy             -78.479643649691 Eh    ::
         :: gradient norm              0.000192049575 Eh/a0 ::
         :: HOMO-LUMO gap              3.268388379930 eV    ::
         :: SCC energy               -79.748552218455 Eh    ::
         :: -> dispersion             -0.070085373658 Eh    ::
         :: repulsion energy           1.268908568763 Eh    ::

    * Orbital Energies and Occupations

         #    Occupation            Energy/Eh            Energy/eV
      -------------------------------------------------------------
         1        2.0000           -0.8379400             -22.8015
       ...           ...                  ...                  ...
        61        2.0000           -0.5390633             -14.6687
        62        2.0000           -0.5361522             -14.5894
        63        2.0000           -0.5298778             -14.4187
        64        2.0000           -0.5287795             -14.3888
        65        2.0000           -0.5219135             -14.2020
        66        2.0000           -0.5165498             -14.0560
        67        2.0000           -0.5133659             -13.9694
        68        2.0000           -0.5104046             -13.8888
        69        2.0000           -0.5060179             -13.7694
        70        2.0000           -0.5049861             -13.7414
        71        2.0000           -0.4958306             -13.4922
        72        2.0000           -0.4886155             -13.2959
        73        2.0000           -0.4858879             -13.2217 (HOMO)
        74                         -0.3657769              -9.9533 (LUMO)
        75                         -0.3401793              -9.2567
        76                         -0.3370523              -9.1717
        77                         -0.3132121              -8.5229
        78                         -0.2796182              -7.6088
        79                         -0.2170721              -5.9068
        80                         -0.2024916              -5.5101
        81                         -0.1729194              -4.7054
        82                         -0.1362330              -3.7071
        83                         -0.1219918              -3.3196
        84                         -0.1090988              -2.9687
       ...                                ...                  ...
       144                          0.5880766              16.0024
      -------------------------------------------------------------
                  HL-Gap            0.1201111 Eh            3.2684 eV

     #   Z          covCN         q      C6AA      α(0)
     1   6 C        3.762    -0.116    22.762     6.801
     2   6 C        3.902     0.034    19.952     6.349
     3   6 C        2.969    -0.001    28.061     8.689
     4   6 C        2.927    -0.060    29.503     8.908
     5   6 C        2.917     0.009    27.826     8.650
     6   6 C        2.933    -0.060    29.493     8.906
     7   6 C        2.963    -0.028    28.708     8.788
     8   6 C        2.848     0.146    24.812     8.164
     9   8 O        1.661    -0.376    20.392     6.096
    10   6 C        3.902     0.029    20.035     6.362
    11   6 C        3.762    -0.113    22.710     6.793
    12   6 C        3.763    -0.114    22.729     6.796
    13   6 C        3.763    -0.122    22.883     6.819
    14   7 N        3.622     0.119    19.204     6.509
    15   6 C        3.765    -0.026    21.081     6.544
    16   6 C        2.889    -0.064    29.601     8.920
    17   6 C        2.902    -0.023    28.567     8.764
    18   6 C        2.971     0.010    27.792     8.647
    19   6 C        2.928    -0.027    28.683     8.783
    20   6 C        2.917    -0.023    28.582     8.767
    21   6 C        2.920    -0.018    28.468     8.750
    22   6 C        2.917    -0.024    28.604     8.770
    23   6 C        2.923    -0.031    28.762     8.795
    24   6 C        3.722    -0.083    22.197     6.729
    25   6 C        3.726    -0.083    22.200     6.727
    26   6 C        3.762    -0.115    22.745     6.798
    27   6 C        3.763    -0.115    22.745     6.798
    28   1 H        0.925     0.062     2.178     2.308
    29   1 H        0.925     0.050     2.326     2.385
    30   1 H        0.925     0.034     2.529     2.487
    31   1 H        0.926     0.061     2.189     2.314
    32   1 H        0.926     0.054     2.267     2.355
    33   1 H        0.805     0.327     0.646     1.262
    34   1 H        0.925     0.035     2.516     2.480
    35   1 H        0.925     0.054     2.272     2.357
    36   1 H        0.925     0.041     2.440     2.443
    37   1 H        0.925     0.042     2.425     2.435
    38   1 H        0.925     0.054     2.273     2.358
    39   1 H        0.925     0.036     2.508     2.477
    40   1 H        0.925     0.046     2.365     2.405
    41   1 H        0.924     0.043     2.405     2.425
    42   1 H        0.925     0.061     2.186     2.312
    43   1 H        0.924     0.076     2.025     2.225
    44   1 H        0.924     0.077     2.011     2.218
    45   1 H        0.926     0.050     2.316     2.380
    46   1 H        0.925     0.045     2.386     2.416
    47   1 H        0.926     0.038     2.474     2.460
    48   1 H        0.926     0.049     2.331     2.387
    49   1 H        0.926     0.052     2.297     2.370
    50   1 H        0.926     0.048     2.347     2.396
    51   1 H        0.926     0.034     2.527     2.486
    52   1 H        0.925     0.090     1.874     2.141
    53   1 H        0.925     0.087     1.910     2.161
    54   1 H        0.925     0.100     1.785     2.089
    55   1 H        0.925     0.095     1.834     2.118
    56   1 H        0.925     0.091     1.871     2.139
    57   1 H        0.925     0.088     1.898     2.155
    58   1 H        0.925     0.049     2.338     2.391
    59   1 H        0.925     0.032     2.561     2.502
    60   1 H        0.925     0.061     2.188     2.313
    61   1 H        0.925     0.052     2.296     2.369
    62   1 H        0.925     0.034     2.528     2.486
    63   1 H        0.925     0.032     2.558     2.501

Wiberg/Mayer (AO) data.
largest (>0.10) Wiberg bond orders for each atom

     #   Z sym  total        # sym  WBO       # sym  WBO       # sym  WBO
 ---------------------------------------------------------------------------
     1   6 C    3.992 --    30 H    0.987     2 C    0.984    29 H    0.982
                            28 H    0.979
     2   6 C    3.988 --    27 C    0.999     3 C    0.986     1 C    0.984
                            26 C    0.983
     3   6 C    3.981 --     4 C    1.452     8 C    1.298     2 C    0.986
     4   6 C    3.986 --     3 C    1.452     5 C    1.374    31 H    0.950
     5   6 C    3.904 --     6 C    1.427     4 C    1.374    14 N    0.902
     6   6 C    3.987 --     5 C    1.427     7 C    1.400    32 H    0.952
     7   6 C    3.981 --     6 C    1.400     8 C    1.352    10 C    0.979
     8   6 C    3.945 --     7 C    1.352     3 C    1.298     9 O    1.123
     9   8 O    2.174 --     8 C    1.123    33 H    0.833
    10   6 C    3.989 --    13 C    0.999    11 C    0.987    12 C    0.986
                             7 C    0.979
    11   6 C    3.993 --    10 C    0.987    36 H    0.986    35 H    0.982
                            34 H    0.981
    12   6 C    3.993 --    10 C    0.986    37 H    0.986    38 H    0.982
                            39 H    0.981
    13   6 C    3.993 --    10 C    0.999    40 H    0.975    42 H    0.974
                            41 H    0.972
    14   7 N    3.794 --    25 C    0.965    24 C    0.960     5 C    0.902
                            15 C    0.897
    15   6 C    3.934 --    16 C    1.029    44 H    0.967    43 H    0.962
                            14 N    0.897
    16   6 C    3.975 --    17 C    1.818    15 C    1.029    45 H    0.959
    17   6 C    3.986 --    16 C    1.818    18 C    1.110    46 H    0.961
    18   6 C    3.989 --    19 C    1.364    23 C    1.361    17 C    1.110
    19   6 C    3.988 --    20 C    1.458    18 C    1.364    47 H    0.967
                            22 C    0.102
    20   6 C    3.991 --    19 C    1.458    21 C    1.431    48 H    0.969
                            23 C    0.104
    21   6 C    3.987 --    20 C    1.431    22 C    1.424    49 H    0.970
    22   6 C    3.991 --    23 C    1.466    21 C    1.424    50 H    0.970
                            19 C    0.102
    23   6 C    3.990 --    22 C    1.466    18 C    1.361    51 H    0.966
                            20 C    0.104
    24   6 C    3.934 --    52 H    0.977    53 H    0.976    54 H    0.967
                            14 N    0.960
    25   6 C    3.937 --    55 H    0.975    57 H    0.974    56 H    0.974
                            14 N    0.965
    26   6 C    3.992 --    59 H    0.984     2 C    0.983    58 H    0.982
                            60 H    0.980
    27   6 C    3.995 --     2 C    0.999    62 H    0.984    61 H    0.982
                            63 H    0.980
    28   1 H    0.996 --     1 C    0.979
    29   1 H    0.996 --     1 C    0.982
    30   1 H    0.999 --     1 C    0.987
    31   1 H    0.996 --     4 C    0.950
    32   1 H    0.997 --     6 C    0.952
    33   1 H    0.893 --     9 O    0.833
    34   1 H    0.999 --    11 C    0.981
    35   1 H    0.996 --    11 C    0.982
    36   1 H    0.998 --    11 C    0.986
    37   1 H    0.998 --    12 C    0.986
    38   1 H    0.996 --    12 C    0.982
    39   1 H    0.999 --    12 C    0.981
    40   1 H    0.998 --    13 C    0.975
    41   1 H    0.998 --    13 C    0.972
    42   1 H    0.995 --    13 C    0.974
    43   1 H    0.992 --    15 C    0.962
    44   1 H    0.994 --    15 C    0.967
    45   1 H    0.997 --    16 C    0.959
    46   1 H    0.998 --    17 C    0.961
    47   1 H    0.999 --    19 C    0.967
    48   1 H    0.997 --    20 C    0.969
    49   1 H    0.997 --    21 C    0.970
    50   1 H    0.997 --    22 C    0.970
    51   1 H    0.999 --    23 C    0.966
    52   1 H    0.992 --    24 C    0.977
    53   1 H    0.992 --    24 C    0.976
    54   1 H    0.990 --    24 C    0.967
    55   1 H    0.990 --    25 C    0.975
    56   1 H    0.992 --    25 C    0.974
    57   1 H    0.992 --    25 C    0.974
    58   1 H    0.996 --    26 C    0.982
    59   1 H    0.999 --    26 C    0.984
    60   1 H    0.996 --    26 C    0.980
    61   1 H    0.997 --    27 C    0.982
    62   1 H    0.999 --    27 C    0.984
    63   1 H    0.999 --    27 C    0.980
 ---------------------------------------------------------------------------

molecular dipole:
                 x           y           z       tot (Debye)
 q only:        4.153      -0.041       8.459
   full:        4.200       0.114       8.811      24.812

           -------------------------------------------------
          | TOTAL ENERGY              -78.479643649691 Eh   |
          | GRADIENT NORM               0.000192049575 Eh/α |
          | HOMO-LUMO GAP               3.268388379930 eV   |
           -------------------------------------------------

 * finished run on 2024/12/20 at 06:49:28.660
