   * xtb version 6.7.1 (edcfbbe) compiled by 'conda@3ef47c1a292c' on 2024-11-25

   ID    Z sym.   atoms
    1    6 C      1, 2, 5-11, 13, 15, 16, 18, 19
    2    8 O      3, 12
    3    7 N      4, 14, 17
    4    1 H      20-35

          program call               : xtb C0585.xyz --opt --namespace C0585 --charge +1
          :  Hamiltonian                  GFN2-xTB          :
 * total energy  :   -54.6428188 Eh     change       -0.7912604E-09 Eh
 * total energy  :   -54.6499075 Eh     change       -0.7088697E-02 Eh
 * total energy  :   -54.6517082 Eh     change       -0.1800660E-02 Eh
 * total energy  :   -54.6520539 Eh     change       -0.3457069E-03 Eh
 * total energy  :   -54.6522404 Eh     change       -0.1864982E-03 Eh
 * total energy  :   -54.6523313 Eh     change       -0.9096796E-04 Eh
 * total energy  :   -54.6524153 Eh     change       -0.8396126E-04 Eh
 * total energy  :   -54.6525001 Eh     change       -0.8475429E-04 Eh
 * total energy  :   -54.6525903 Eh     change       -0.9023938E-04 Eh
 * total energy  :   -54.6527111 Eh     change       -0.1208456E-03 Eh
 * total energy  :   -54.6662877 Eh     change       -0.6498130E-05 Eh
 * total energy  :   -54.6662951 Eh     change       -0.7446084E-05 Eh
 * total energy  :   -54.6663037 Eh     change       -0.8578686E-05 Eh
 * total energy  :   -54.6663115 Eh     change       -0.7786582E-05 Eh
 * total energy  :   -54.6663180 Eh     change       -0.6520706E-05 Eh
 * total energy  :   -54.6663242 Eh     change       -0.6172047E-05 Eh
 * total energy  :   -54.6663313 Eh     change       -0.7082771E-05 Eh
 * total energy  :   -54.6663383 Eh     change       -0.7050001E-05 Eh
 * total energy  :   -54.6663427 Eh     change       -0.4366830E-05 Eh
   *** GEOMETRY OPTIMIZATION CONVERGED AFTER 105 ITERATIONS ***

 final structure:
================
35
 xtb: 6.7.1 (edcfbbe)
C           -0.21391160991836       -2.38393140697868        0.69908912707841
C            0.31113564719266       -3.79760511592046        0.70272569226207
O           -0.03743476857174       -4.62819255171556        1.50252547037858
N            1.19263354498527       -4.16280967621086       -0.29476434498033
C            1.82440990468113       -3.44247941773420       -1.29559383528735
C            2.08950425566543       -4.08453959118658       -2.51322556148299
C            2.73120039737319       -3.42026380744348       -3.53994642073265
C            3.12778533352702       -2.10682921443606       -3.37654635256984
C            2.89755861842396       -1.45480811331116       -2.15960146867546
C            2.25362978611941       -2.13058940854151       -1.11828964001171
C            3.38024009444384       -0.08293712566871       -2.04185412287188
O            4.03265390645017        0.49185649003188       -2.88194854545490
C            3.04183490121845        0.68611710591354       -0.72823719584625
N            3.37681489164413        2.06548278420311       -0.92370619126405
C            2.50985083257689        3.11617813836118       -0.99035579885988
C            3.21858658112145        4.19823479382764       -1.41075043093757
N            4.50389301009309        3.79049771154982       -1.61002918538807
C            4.57609260502670        2.49604345985485       -1.31817926216471
C            5.58004463317833        4.62679247356892       -2.06743564711051
H           -1.22060422641830       -2.40916232252362        1.10980173031332
H           -0.23539140561200       -1.96285226330160       -0.30215785124499
H            0.39032544710855       -1.76258661756144        1.35761794172520
H            1.31746335018257       -5.16864741488591       -0.33972801965850
H            1.78241997796449       -5.11149686332381       -2.64245050804390
H            2.92166311198040       -3.92890025253649       -4.47158796259604
H            3.62402031297475       -1.56991709517639       -4.16916901796989
H            2.12385648795549       -1.66502212699716       -0.15709060209590
H            1.98229352024277        0.60277625298312       -0.48818335981780
H            3.63924965352573        0.25366380330928        0.07953067133511
H            1.47352055685449        3.02835075601522       -0.73551918939735
H            2.90085186763445        5.20671246287107       -1.58066086332073
H            5.46368028071837        1.89708750577671       -1.37389738108818
H            6.47637246748896        4.02839208383176       -2.21300246408408
H            5.30942816649433        5.09677941795825       -3.01331587378959
H            5.78603786567337        5.41026514539775       -1.33673353636377

          :  Hamiltonian                  GFN2-xTB          :
         :: total energy             -54.666342683041 Eh    ::
         :: gradient norm              0.000251256556 Eh/a0 ::
         :: HOMO-LUMO gap              2.031869995028 eV    ::
         :: SCC energy               -55.474075111475 Eh    ::
         :: -> dispersion             -0.032413250228 Eh    ::
         :: repulsion energy           0.807732428434 Eh    ::

    * Orbital Energies and Occupations

         #    Occupation            Energy/Eh            Energy/eV
      -------------------------------------------------------------
         1        2.0000           -0.8891442             -24.1948
       ...           ...                  ...                  ...
        37        2.0000           -0.6036227             -16.4254
        38        2.0000           -0.6007714             -16.3478
        39        2.0000           -0.5843295             -15.9004
        40        2.0000           -0.5814678             -15.8225
        41        2.0000           -0.5754292             -15.6582
        42        2.0000           -0.5707361             -15.5305
        43        2.0000           -0.5618675             -15.2892
        44        2.0000           -0.5531599             -15.0522
        45        2.0000           -0.5523062             -15.0290
        46        2.0000           -0.5361706             -14.5899
        47        2.0000           -0.5346915             -14.5497
        48        2.0000           -0.4959842             -13.4964
        49        2.0000           -0.4909824             -13.3603 (HOMO)
        50                         -0.4163125             -11.3284 (LUMO)
        51                         -0.3985328             -10.8446
        52                         -0.3658946              -9.9565
        53                         -0.3489621              -9.4957
        54                         -0.3231774              -8.7941
        55                         -0.2932487              -7.9797
        56                         -0.2077877              -5.6542
        57                         -0.1762446              -4.7959
        58                         -0.1261213              -3.4319
        59                         -0.0924709              -2.5163
        60                         -0.0847833              -2.3071
       ...                                ...                  ...
        92                          0.5662587              15.4087
      -------------------------------------------------------------
                  HL-Gap            0.0746698 Eh            2.0319 eV

     #   Z          covCN         q      C6AA      α(0)
     1   6 C        3.753    -0.142    23.297     6.883
     2   6 C        2.744     0.283    22.206     7.716
     3   8 O        0.860    -0.386    21.397     6.202
     4   7 N        2.695    -0.166    24.590     7.365
     5   6 C        2.898     0.085    26.097     8.376
     6   6 C        2.926    -0.032    28.807     8.802
     7   6 C        2.914    -0.017    28.436     8.744
     8   6 C        2.927    -0.018    28.456     8.748
     9   6 C        2.969    -0.016    28.411     8.743
    10   6 C        2.921    -0.054    29.339     8.882
    11   6 C        2.823     0.228    23.226     7.897
    12   8 O        0.857    -0.353    20.764     6.109
    13   6 C        3.743    -0.051    21.572     6.626
    14   7 N        2.872     0.072    19.981     6.639
    15   6 C        3.065    -0.008    28.149     8.700
    16   6 C        3.071    -0.008    28.153     8.700
    17   7 N        2.867     0.080    19.857     6.618
    18   6 C        3.093     0.058    26.600     8.453
    19   6 C        3.692    -0.086    22.339     6.763
    20   1 H        0.925     0.088     1.898     2.154
    21   1 H        0.925     0.053     2.277     2.360
    22   1 H        0.925     0.066     2.135     2.285
    23   1 H        0.860     0.205     1.083     1.630
    24   1 H        0.926     0.068     2.108     2.270
    25   1 H        0.926     0.072     2.068     2.249
    26   1 H        0.926     0.077     2.008     2.216
    27   1 H        0.926     0.052     2.301     2.372
    28   1 H        0.925     0.101     1.778     2.085
    29   1 H        0.924     0.102     1.768     2.079
    30   1 H        0.926     0.104     1.751     2.070
    31   1 H        0.926     0.109     1.701     2.040
    32   1 H        0.926     0.123     1.592     1.973
    33   1 H        0.925     0.101     1.775     2.083
    34   1 H        0.924     0.108     1.711     2.046
    35   1 H        0.924     0.105     1.742     2.064

Wiberg/Mayer (AO) data.
largest (>0.10) Wiberg bond orders for each atom

     #   Z sym  total        # sym  WBO       # sym  WBO       # sym  WBO
 ---------------------------------------------------------------------------
     1   6 C    3.993 --     2 C    0.990    21 H    0.978    20 H    0.972
                            22 H    0.960
     2   6 C    3.943 --     3 O    1.756     4 N    1.145     1 C    0.990
     3   8 O    2.049 --     2 C    1.756     4 N    0.156
     4   7 N    3.478 --     2 C    1.145     5 C    1.112    23 H    0.920
                             3 O    0.156
     5   6 C    3.973 --    10 C    1.389     6 C    1.331     4 N    1.112
     6   6 C    3.988 --     7 C    1.458     5 C    1.331    24 H    0.965
     7   6 C    3.987 --     6 C    1.458     8 C    1.439    25 H    0.966
     8   6 C    3.976 --     7 C    1.439     9 C    1.349    26 H    0.964
     9   6 C    3.982 --    10 C    1.356     8 C    1.349    11 C    1.080
    10   6 C    3.990 --     5 C    1.389     9 C    1.356    27 H    0.961
    11   6 C    3.929 --    12 O    1.808     9 C    1.080    13 C    0.919
    12   8 O    2.109 --    11 C    1.808
    13   6 C    3.947 --    14 N    0.996    28 H    0.957    29 H    0.942
                            11 C    0.919
    14   7 N    3.708 --    18 C    1.341    15 C    1.213    13 C    0.996
    15   6 C    3.947 --    16 C    1.601    14 N    1.213    30 H    0.962
    16   6 C    3.948 --    15 C    1.601    17 N    1.220    31 H    0.961
    17   7 N    3.719 --    18 C    1.364    16 C    1.220    19 C    0.991
    18   6 C    3.945 --    17 N    1.364    14 N    1.341    32 H    0.952
    19   6 C    3.934 --    17 N    0.991    33 H    0.975    34 H    0.963
                            35 H    0.962
    20   1 H    0.992 --     1 C    0.972
    21   1 H    0.997 --     1 C    0.978
    22   1 H    0.995 --     1 C    0.960
    23   1 H    0.958 --     4 N    0.920
    24   1 H    0.995 --     6 C    0.965
    25   1 H    0.993 --     7 C    0.966
    26   1 H    0.994 --     8 C    0.964
    27   1 H    0.997 --    10 C    0.961
    28   1 H    0.989 --    13 C    0.957
    29   1 H    0.989 --    13 C    0.942
    30   1 H    0.989 --    15 C    0.962
    31   1 H    0.988 --    16 C    0.961
    32   1 H    0.985 --    18 C    0.952
    33   1 H    0.989 --    19 C    0.975
    34   1 H    0.988 --    19 C    0.963
    35   1 H    0.988 --    19 C    0.962
 ---------------------------------------------------------------------------

molecular dipole:
                 x           y           z       tot (Debye)
 q only:        7.032       4.013      -3.032
   full:        7.040       3.985      -2.985      21.916

           -------------------------------------------------
          | TOTAL ENERGY              -54.666342683041 Eh   |
          | GRADIENT NORM               0.000251256556 Eh/α |
          | HOMO-LUMO GAP               2.031869995028 eV   |
           -------------------------------------------------

 * finished run on 2024/12/20 at 06:49:36.227
