   * xtb version 6.7.1 (edcfbbe) compiled by 'conda@3ef47c1a292c' on 2024-11-25

   ID    Z sym.   atoms
    1    6 C      1-3, 5-11, 13, 15, 16, 18, 19
    2    8 O      4, 12
    3    7 N      14, 17
    4    1 H      20-38

          program call               : xtb C0583.xyz --opt --namespace C0583 --charge +1
          :  Hamiltonian                  GFN2-xTB          :
 * total energy  :   -55.3851843 Eh     change       -0.5195204E-09 Eh
 * total energy  :   -55.3913292 Eh     change       -0.6144894E-02 Eh
 * total energy  :   -55.3930292 Eh     change       -0.1699994E-02 Eh
 * total energy  :   -55.3934376 Eh     change       -0.4084074E-03 Eh
 * total energy  :   -55.3938729 Eh     change       -0.4352854E-03 Eh
 * total energy  :   -55.3942464 Eh     change       -0.3735348E-03 Eh
 * total energy  :   -55.3948137 Eh     change       -0.5672838E-03 Eh
 * total energy  :   -55.3956495 Eh     change       -0.8358236E-03 Eh
 * total energy  :   -55.3965273 Eh     change       -0.8777838E-03 Eh
 * total energy  :   -55.3971689 Eh     change       -0.6416118E-03 Eh
 * total energy  :   -55.4114210 Eh     change       -0.4041814E-04 Eh
 * total energy  :   -55.4114406 Eh     change       -0.1957802E-04 Eh
 * total energy  :   -55.4114629 Eh     change       -0.2231110E-04 Eh
 * total energy  :   -55.4114837 Eh     change       -0.2086069E-04 Eh
 * total energy  :   -55.4115005 Eh     change       -0.1679128E-04 Eh
 * total energy  :   -55.4114947 Eh     change        0.5807984E-05 Eh
 * total energy  :   -55.4115194 Eh     change       -0.2471111E-04 Eh
 * total energy  :   -55.4115271 Eh     change       -0.7681715E-05 Eh
 * total energy  :   -55.4115318 Eh     change       -0.4701456E-05 Eh
   *** GEOMETRY OPTIMIZATION CONVERGED AFTER 122 ITERATIONS ***

 final structure:
================
38
 xtb: 6.7.1 (edcfbbe)
C           -1.15770959487404        1.88963262175024       -3.99110130761896
C           -2.18884984051744        0.85636444655510       -3.55527509471374
C           -1.54522389770955       -0.49005082392488       -3.24044548974108
O           -0.72739858964304       -0.32618109721581       -2.08824753972555
C           -0.01569081743778       -1.36597070991898       -1.62558846652143
C           -0.00796630932611       -2.65047942891005       -2.17862910224088
C            0.76877316275343       -3.64805462304873       -1.61263164968972
C            1.54534725563209       -3.39461736586422       -0.50222136313715
C            1.55261383910319       -2.11164690759036        0.06423621786215
C            0.76932004046649       -1.10655703829890       -0.50075707925169
C            2.39047793807036       -1.90698984195724        1.23769655071920
O            3.02673990801214       -2.77236017616959        1.79485171579775
C            2.45059700704410       -0.46433646533857        1.82683903727475
N            3.50865128579547       -0.42648341064243        2.79109253348603
C            4.68053946704849        0.26420810412888        2.69270952794597
C            5.49174471817038       -0.17134598006476        3.69353913617657
N            4.81166164613475       -1.13380056434890        4.37871789757716
C            3.61814250177777       -1.27851935292288        3.81125679463688
C            5.31348248169685       -1.86000302874090        5.51344155347170
H           -0.41710747301904        2.03517235003605       -3.20899940385511
H           -1.64084933134219        2.84145582638038       -4.19243003120247
H           -0.64863717251654        1.56453023405003       -4.89561834412102
H           -2.71167512151093        1.20858727467671       -2.66518097218353
H           -2.92364892196311        0.70494365030990       -4.34668281643241
H           -2.31840302966546       -1.24287997952506       -3.04034290675345
H           -0.93222507870830       -0.82067735123164       -4.08852052661306
H           -0.60623601498488       -2.87770619169615       -3.04588191845598
H            0.76192096303772       -4.63436293418237       -2.04946652902495
H            2.15357536414469       -4.16495248462090       -0.05615074965591
H            0.72636663353590       -0.10838173588478       -0.09684643982831
H            2.64622137286482        0.26784146553865        1.04446786610672
H            1.48596745433285       -0.25194949793200        2.29605901540297
H            4.85218138508628        1.00517937973469        1.93907642210907
H            6.48602177001645        0.12796594286831        3.95506425425423
H            2.85600294219920       -1.95815243946527        4.13784201109047
H            5.41353670283023       -1.19635679329689        6.37383571723104
H            4.63163600947076       -2.66934258076346        5.76377189561330
H            6.29273934392716       -2.27901249251233        5.28224958403446

          :  Hamiltonian                  GFN2-xTB          :
         :: total energy             -55.411531824078 Eh    ::
         :: gradient norm              0.000421905524 Eh/a0 ::
         :: HOMO-LUMO gap              2.143909865875 eV    ::
         :: SCC energy               -56.223125019947 Eh    ::
         :: -> dispersion             -0.032777403647 Eh    ::
         :: repulsion energy           0.811593195869 Eh    ::

    * Orbital Energies and Occupations

         #    Occupation            Energy/Eh            Energy/eV
      -------------------------------------------------------------
         1        2.0000           -0.8817000             -23.9923
       ...           ...                  ...                  ...
        38        2.0000           -0.5825505             -15.8520
        39        2.0000           -0.5738620             -15.6156
        40        2.0000           -0.5707651             -15.5313
        41        2.0000           -0.5662478             -15.4084
        42        2.0000           -0.5547413             -15.0953
        43        2.0000           -0.5461992             -14.8628
        44        2.0000           -0.5422732             -14.7560
        45        2.0000           -0.5267518             -14.3336
        46        2.0000           -0.5227524             -14.2248
        47        2.0000           -0.5221518             -14.2085
        48        2.0000           -0.5164336             -14.0529
        49        2.0000           -0.5094724             -13.8635
        50        2.0000           -0.4839153             -13.1680 (HOMO)
        51                         -0.4051281             -11.0241 (LUMO)
        52                         -0.3909211             -10.6375
        53                         -0.3587563              -9.7623
        54                         -0.3268037              -8.8928
        55                         -0.3029401              -8.2434
        56                         -0.1940969              -5.2816
        57                         -0.1679261              -4.5695
        58                         -0.1179831              -3.2105
        59                         -0.0816111              -2.2208
        60                         -0.0731035              -1.9892
        61                         -0.0400977              -1.0911
       ...                                ...                  ...
        95                          0.5587946              15.2056
      -------------------------------------------------------------
                  HL-Gap            0.0787872 Eh            2.1439 eV

     #   Z          covCN         q      C6AA      α(0)
     1   6 C        3.752    -0.108    22.625     6.783
     2   6 C        3.800    -0.061    21.669     6.628
     3   6 C        3.692     0.076    19.491     6.317
     4   8 O        1.706    -0.251    18.159     5.753
     5   6 C        2.859     0.158    24.575     8.126
     6   6 C        2.917    -0.048    29.201     8.861
     7   6 C        2.916    -0.021    28.519     8.757
     8   6 C        2.925    -0.025    28.620     8.773
     9   6 C        2.969    -0.017    28.428     8.746
    10   6 C        2.920    -0.058    29.440     8.898
    11   6 C        2.823     0.228    23.210     7.894
    12   8 O        0.857    -0.357    20.838     6.120
    13   6 C        3.743    -0.052    21.586     6.628
    14   7 N        2.872     0.073    19.974     6.638
    15   6 C        3.066    -0.008    28.152     8.700
    16   6 C        3.070    -0.009    28.166     8.702
    17   7 N        2.867     0.077    19.893     6.624
    18   6 C        3.094     0.058    26.593     8.452
    19   6 C        3.692    -0.086    22.323     6.760
    20   1 H        0.925     0.046     2.370     2.408
    21   1 H        0.925     0.049     2.333     2.388
    22   1 H        0.925     0.042     2.419     2.432
    23   1 H        0.924     0.056     2.248     2.345
    24   1 H        0.924     0.051     2.308     2.376
    25   1 H        0.924     0.038     2.482     2.464
    26   1 H        0.924     0.041     2.431     2.438
    27   1 H        0.926     0.063     2.159     2.298
    28   1 H        0.926     0.066     2.125     2.279
    29   1 H        0.926     0.073     2.048     2.238
    30   1 H        0.926     0.055     2.261     2.351
    31   1 H        0.925     0.103     1.760     2.075
    32   1 H        0.924     0.103     1.762     2.076
    33   1 H        0.926     0.103     1.756     2.072
    34   1 H        0.926     0.107     1.718     2.050
    35   1 H        0.926     0.122     1.595     1.975
    36   1 H        0.924     0.103     1.759     2.074
    37   1 H        0.925     0.101     1.779     2.086
    38   1 H        0.925     0.107     1.724     2.053

Wiberg/Mayer (AO) data.
largest (>0.10) Wiberg bond orders for each atom

     #   Z sym  total        # sym  WBO       # sym  WBO       # sym  WBO
 ---------------------------------------------------------------------------
     1   6 C    3.994 --     2 C    1.020    22 H    0.987    20 H    0.987
                            21 H    0.986
     2   6 C    3.991 --     1 C    1.020     3 C    1.003    23 H    0.975
                            24 H    0.974
     3   6 C    3.932 --     2 C    1.003    25 H    0.968    26 H    0.967
                             4 O    0.948
     4   8 O    2.278 --     5 C    1.115     3 C    0.948
     5   6 C    3.946 --    10 C    1.360     6 C    1.334     4 O    1.115
     6   6 C    3.989 --     7 C    1.438     5 C    1.334    27 H    0.964
     7   6 C    3.988 --     8 C    1.458     6 C    1.438    28 H    0.967
     8   6 C    3.986 --     7 C    1.458     9 C    1.330    29 H    0.965
     9   6 C    3.981 --    10 C    1.372     8 C    1.330    11 C    1.086
    10   6 C    3.988 --     9 C    1.372     5 C    1.360    30 H    0.964
    11   6 C    3.930 --    12 O    1.800     9 C    1.086    13 C    0.918
    12   8 O    2.108 --    11 C    1.800
    13   6 C    3.945 --    14 N    0.997    31 H    0.956    32 H    0.942
                            11 C    0.918
    14   7 N    3.708 --    18 C    1.342    15 C    1.213    13 C    0.997
    15   6 C    3.947 --    16 C    1.602    14 N    1.213    33 H    0.962
    16   6 C    3.948 --    15 C    1.602    17 N    1.219    34 H    0.962
    17   7 N    3.716 --    18 C    1.361    16 C    1.219    19 C    0.991
    18   6 C    3.945 --    17 N    1.361    14 N    1.342    35 H    0.952
    19   6 C    3.935 --    17 N    0.991    37 H    0.975    38 H    0.965
                            36 H    0.962
    20   1 H    0.998 --     1 C    0.987
    21   1 H    0.998 --     1 C    0.986
    22   1 H    0.998 --     1 C    0.987
    23   1 H    0.997 --     2 C    0.975
    24   1 H    0.997 --     2 C    0.974
    25   1 H    0.999 --     3 C    0.968
    26   1 H    0.998 --     3 C    0.967
    27   1 H    0.996 --     6 C    0.964
    28   1 H    0.995 --     7 C    0.967
    29   1 H    0.995 --     8 C    0.965
    30   1 H    0.997 --    10 C    0.964
    31   1 H    0.989 --    13 C    0.956
    32   1 H    0.989 --    13 C    0.942
    33   1 H    0.989 --    15 C    0.962
    34   1 H    0.988 --    16 C    0.962
    35   1 H    0.985 --    18 C    0.952
    36   1 H    0.988 --    19 C    0.962
    37   1 H    0.989 --    19 C    0.975
    38   1 H    0.988 --    19 C    0.965
 ---------------------------------------------------------------------------

molecular dipole:
                 x           y           z       tot (Debye)
 q only:        5.962      -1.385       4.448
   full:        5.814      -1.389       4.358      18.803

           -------------------------------------------------
          | TOTAL ENERGY              -55.411531824078 Eh   |
          | GRADIENT NORM               0.000421905524 Eh/α |
          | HOMO-LUMO GAP               2.143909865875 eV   |
           -------------------------------------------------

 * finished run on 2024/12/20 at 06:49:32.487
