   * xtb version 6.7.1 (edcfbbe) compiled by 'conda@3ef47c1a292c' on 2024-11-25

   ID    Z sym.   atoms
    1    6 C      1-5
    2    7 N      6
    3    1 H      7-20

          program call               : xtb C0587.xyz --opt --namespace C0587 --charge +1
          :  Hamiltonian                  GFN2-xTB          :
 * total energy  :   -20.3326044 Eh     change       -0.9190160E-10 Eh
 * total energy  :   -20.3337180 Eh     change       -0.1113525E-02 Eh
 * total energy  :   -20.3339993 Eh     change       -0.2813346E-03 Eh
 * total energy  :   -20.3340696 Eh     change       -0.7029302E-04 Eh
 * total energy  :   -20.3341077 Eh     change       -0.3813382E-04 Eh
 * total energy  :   -20.3341344 Eh     change       -0.2670877E-04 Eh
 * total energy  :   -20.3341584 Eh     change       -0.2392602E-04 Eh
 * total energy  :   -20.3341821 Eh     change       -0.2371515E-04 Eh
 * total energy  :   -20.3341872 Eh     change       -0.5137145E-05 Eh
 * total energy  :   -20.3341899 Eh     change       -0.2648452E-05 Eh
   *** GEOMETRY OPTIMIZATION CONVERGED AFTER 10 ITERATIONS ***

 final structure:
================
20
 xtb: 6.7.1 (edcfbbe)
C            0.87740079684717       -0.12448421022784       -0.08457720839075
C            0.46814473562071       -1.00864567308197        1.08769417042796
C            0.94231463442368       -0.46629739955194        2.43955254754834
C            0.41844706372342        0.92926812880849        2.79682791947201
C           -1.09973614242719        1.04204173841559        2.78396793047484
N           -1.69015596552744        0.05690026143110        3.74268724341518
H            0.36237523624999        0.83292210093145       -0.07047896343716
H            0.63809616963999       -0.61817507207725       -1.02181910296868
H            1.94810157758679        0.05850844950274       -0.06440071358498
H           -0.61628863305135       -1.15210365133439        1.07500446357157
H            0.91737306177398       -1.99347126403992        0.95286337308845
H            0.69677717257588       -1.18598901870588        3.22779254814780
H            2.03059537365144       -0.40476850024944        2.41486955661284
H            0.80119234804023        1.21453804718282        3.77850541175958
H            0.80927451575836        1.64963021856537        2.08001196928244
H           -1.41259096975372        2.04527980511694        3.07416560781741
H           -1.49057253435928        0.82675489076410        1.78959236181537
H           -1.37172030693662        0.26312522541743        4.69829843412511
H           -2.71641153371507        0.06571625040025        3.72118979216060
H           -1.34621660012099       -0.87980032726765        3.48346265866202

          :  Hamiltonian                  GFN2-xTB          :
         :: total energy             -20.334189857966 Eh    ::
         :: gradient norm              0.000351894546 Eh/a0 ::
         :: HOMO-LUMO gap              7.940051998865 eV    ::
         :: SCC energy               -20.631185875641 Eh    ::
         :: -> dispersion             -0.010430749601 Eh    ::
         :: repulsion energy           0.296996017675 Eh    ::

    * Orbital Energies and Occupations

         #    Occupation            Energy/Eh            Energy/eV
      -------------------------------------------------------------
         1        2.0000           -0.8940462             -24.3282
       ...           ...                  ...                  ...
         7        2.0000           -0.7345358             -19.9877
         8        2.0000           -0.7107389             -19.3402
         9        2.0000           -0.6857479             -18.6601
        10        2.0000           -0.6833845             -18.5958
        11        2.0000           -0.6599395             -17.9579
        12        2.0000           -0.6471275             -17.6092
        13        2.0000           -0.6336725             -17.2431
        14        2.0000           -0.6137682             -16.7015
        15        2.0000           -0.6009451             -16.3525
        16        2.0000           -0.5903157             -16.0633
        17        2.0000           -0.5685734             -15.4717
        18        2.0000           -0.5573038             -15.1650
        19        2.0000           -0.5527427             -15.0409 (HOMO)
        20                         -0.2609512              -7.1008 (LUMO)
        21                         -0.1585175              -4.3135
        22                         -0.1024940              -2.7890
        23                         -0.0993956              -2.7047
        24                         -0.0727118              -1.9786
        25                         -0.0562305              -1.5301
        26                         -0.0299819              -0.8158
        27                         -0.0156848              -0.4268
        28                         -0.0111710              -0.3040
        29                          0.0051625               0.1405
        30                          0.0275631               0.7500
       ...                                ...                  ...
        38                          0.1724311               4.6921
      -------------------------------------------------------------
                  HL-Gap            0.2917915 Eh            7.9401 eV

     #   Z          covCN         q      C6AA      α(0)
     1   6 C        3.752    -0.116    22.778     6.806
     2   6 C        3.799    -0.063    21.705     6.633
     3   6 C        3.800    -0.076    21.958     6.672
     4   6 C        3.802    -0.086    22.148     6.700
     5   6 C        3.730    -0.033    21.253     6.581
     6   7 N        3.483    -0.128    23.773     7.242
     7   1 H        0.925     0.036     2.503     2.474
     8   1 H        0.925     0.055     2.258     2.350
     9   1 H        0.925     0.053     2.286     2.364
    10   1 H        0.924     0.020     2.739     2.588
    11   1 H        0.924     0.055     2.263     2.352
    12   1 H        0.924     0.026     2.650     2.546
    13   1 H        0.924     0.074     2.045     2.236
    14   1 H        0.924     0.062     2.172     2.305
    15   1 H        0.925     0.096     1.817     2.108
    16   1 H        0.924     0.101     1.773     2.082
    17   1 H        0.925     0.111     1.686     2.031
    18   1 H        0.859     0.269     0.813     1.413
    19   1 H        0.859     0.266     0.825     1.423
    20   1 H        0.859     0.278     0.782     1.385

Wiberg/Mayer (AO) data.
largest (>0.10) Wiberg bond orders for each atom

     #   Z sym  total        # sym  WBO       # sym  WBO       # sym  WBO
 ---------------------------------------------------------------------------
     1   6 C    3.993 --     2 C    1.020     7 H    0.986     9 H    0.986
                             8 H    0.985
     2   6 C    3.995 --     1 C    1.020     3 C    1.006    10 H    0.975
                            11 H    0.975
     3   6 C    3.991 --     2 C    1.006     4 C    1.004    13 H    0.970
                            12 H    0.970
     4   6 C    3.979 --     5 C    1.009     3 C    1.004    14 H    0.972
                            15 H    0.959
     5   6 C    3.888 --     4 C    1.009    16 H    0.969    17 H    0.963
                             6 N    0.923
     6   7 N    3.675 --     5 C    0.923    19 H    0.915    18 H    0.912
                            20 H    0.895
     7   1 H    0.999 --     1 C    0.986
     8   1 H    0.997 --     1 C    0.985
     9   1 H    0.997 --     1 C    0.986
    10   1 H    1.000 --     2 C    0.975
    11   1 H    0.997 --     2 C    0.975
    12   1 H    0.999 --     3 C    0.970
    13   1 H    0.995 --     3 C    0.970
    14   1 H    0.996 --     4 C    0.972
    15   1 H    0.991 --     4 C    0.959
    16   1 H    0.990 --     5 C    0.969
    17   1 H    0.988 --     5 C    0.963
    18   1 H    0.928 --     6 N    0.912
    19   1 H    0.929 --     6 N    0.915
    20   1 H    0.923 --     6 N    0.895
 ---------------------------------------------------------------------------

molecular dipole:
                 x           y           z       tot (Debye)
 q only:       -2.412       0.333       6.396
   full:       -2.589       0.215       6.583      17.988

           -------------------------------------------------
          | TOTAL ENERGY              -20.334189857966 Eh   |
          | GRADIENT NORM               0.000351894546 Eh/α |
          | HOMO-LUMO GAP               7.940051998865 eV   |
           -------------------------------------------------

 * finished run on 2024/12/20 at 06:49:37.371
