   * xtb version 6.7.1 (edcfbbe) compiled by 'conda@3ef47c1a292c' on 2024-11-25

   ID    Z sym.   atoms
    1    6 C      1-4, 6-12
    2    7 N      5
    3    1 H      13-38

          program call               : xtb C0589.xyz --opt --namespace C0589 --charge +1
          :  Hamiltonian                  GFN2-xTB          :
 * total energy  :   -39.3265396 Eh     change       -0.5565681E-10 Eh
 * total energy  :   -39.3339540 Eh     change       -0.7414450E-02 Eh
 * total energy  :   -39.3358505 Eh     change       -0.1896439E-02 Eh
 * total energy  :   -39.3360013 Eh     change       -0.1507989E-03 Eh
 * total energy  :   -39.3361523 Eh     change       -0.1510368E-03 Eh
 * total energy  :   -39.3362704 Eh     change       -0.1180592E-03 Eh
 * total energy  :   -39.3364424 Eh     change       -0.1720841E-03 Eh
 * total energy  :   -39.3366528 Eh     change       -0.2103884E-03 Eh
 * total energy  :   -39.3369183 Eh     change       -0.2654599E-03 Eh
 * total energy  :   -39.3372726 Eh     change       -0.3543294E-03 Eh
 * total energy  :   -39.3395811 Eh     change       -0.1230496E-03 Eh
 * total energy  :   -39.3396458 Eh     change       -0.6471655E-04 Eh
 * total energy  :   -39.3396866 Eh     change       -0.4078990E-04 Eh
 * total energy  :   -39.3397429 Eh     change       -0.5632832E-04 Eh
 * total energy  :   -39.3397681 Eh     change       -0.2521707E-04 Eh
 * total energy  :   -39.3398019 Eh     change       -0.3372122E-04 Eh
 * total energy  :   -39.3398083 Eh     change       -0.6423878E-05 Eh
 * total energy  :   -39.3398141 Eh     change       -0.5860284E-05 Eh
 * total energy  :   -39.3398171 Eh     change       -0.2930673E-05 Eh
   *** GEOMETRY OPTIMIZATION CONVERGED AFTER 28 ITERATIONS ***

 final structure:
================
38
 xtb: 6.7.1 (edcfbbe)
C            1.93123516104390       -0.01439571795487        0.01672604743348
C            0.99980501928242        0.66030523683959       -0.98548320431745
C            0.87349023694321       -0.09144113173026       -2.32338897796886
C            0.23981829575794       -1.50191387216713       -2.20077844585907
N           -1.23608102340657       -1.74450162007769       -2.26568861403599
C           -1.79642363333259       -1.48833920557690       -3.63811978109199
C           -1.06040997764088       -2.11698648760646       -4.81267597781918
C           -1.53389712795314       -3.19068516115244       -1.95262478597405
C           -0.64474955159490       -3.92386755601173       -0.95645689226260
C           -2.00198201460442       -0.85241082751128       -1.33985727610633
C           -1.84260001801159       -1.11416224727336        0.14934820350229
C            0.32123513894569        0.85134089188873       -3.39359095795233
H            1.55114808400142       -0.96970477855054        0.37431976457730
H            2.06177582333964        0.62832115168950        0.88276797357139
H            2.90939412448285       -0.18398861425944       -0.42617639679117
H            0.02810494711197        0.83499951298122       -0.52541158479029
H            1.41895611011688        1.64167824062651       -1.21199493028468
H            1.90294976429183       -0.32345067087981       -2.62413398895916
H            0.67106112683385       -2.13873551096940       -2.97302467816693
H            0.57609676012962       -1.88342501251888       -1.23927581592393
H           -2.82320738340109       -1.86234992419208       -3.62975591597302
H           -1.83487828784909       -0.41118057138238       -3.78832680046302
H           -0.97554886212196       -3.19801484023482       -4.73945998352398
H           -1.63802892409024       -1.90048657673304       -5.70857888237855
H           -0.06847003970378       -1.70036790319296       -4.95835244913228
H           -2.56855900809015       -3.22412919532695       -1.60707678566727
H           -1.48108422321516       -3.74524574749546       -2.88893027786035
H           -0.56542647425099       -3.42837601671466        0.00464085483818
H           -1.09971247079297       -4.89676709059844       -0.78264683637737
H            0.35133884921894       -4.10259869149315       -1.35132557704031
H           -1.70272476881999        0.17103996495275       -1.56207576803065
H           -3.06038797316858       -0.95299544100630       -1.59330780581653
H           -0.80651512534392       -1.08974309325719        0.46981185968899
H           -2.36643978070910       -0.32187743213012        0.67955797836877
H           -2.29310422826771       -2.05458071113387        0.45131217177538
H            1.01148018614557        1.68427213711230       -3.50412204531773
H            0.24648040341529        0.37256990019990       -4.36499970504361
H           -0.64174913468647        1.27774461283609       -3.12113371282491

          :  Hamiltonian                  GFN2-xTB          :
         :: total energy             -39.339817069265 Eh    ::
         :: gradient norm              0.000296151265 Eh/a0 ::
         :: HOMO-LUMO gap              8.410634396059 eV    ::
         :: SCC energy               -39.909605296949 Eh    ::
         :: -> dispersion             -0.031037944681 Eh    ::
         :: repulsion energy           0.569788227683 Eh    ::

    * Orbital Energies and Occupations

         #    Occupation            Energy/Eh            Energy/eV
      -------------------------------------------------------------
         1        2.0000           -0.8470590             -23.0496
       ...           ...                  ...                  ...
        25        2.0000           -0.6138825             -16.7046
        26        2.0000           -0.6120073             -16.6536
        27        2.0000           -0.6078776             -16.5412
        28        2.0000           -0.6052752             -16.4704
        29        2.0000           -0.5979874             -16.2721
        30        2.0000           -0.5964840             -16.2312
        31        2.0000           -0.5927515             -16.1296
        32        2.0000           -0.5862717             -15.9533
        33        2.0000           -0.5815630             -15.8251
        34        2.0000           -0.5707947             -15.5321
        35        2.0000           -0.5610581             -15.2672
        36        2.0000           -0.5520358             -15.0217
        37        2.0000           -0.5473325             -14.8937 (HOMO)
        38                         -0.2382474              -6.4830 (LUMO)
        39                         -0.1768586              -4.8126
        40                         -0.1616405              -4.3985
        41                         -0.1523141              -4.1447
        42                         -0.0895604              -2.4371
        43                         -0.0602819              -1.6404
        44                         -0.0572411              -1.5576
        45                         -0.0503488              -1.3701
        46                         -0.0411890              -1.1208
        47                         -0.0306108              -0.8330
        48                         -0.0262561              -0.7145
       ...                                ...                  ...
        74                          0.2034710               5.5367
      -------------------------------------------------------------
                  HL-Gap            0.3090851 Eh            8.4106 eV

     #   Z          covCN         q      C6AA      α(0)
     1   6 C        3.751    -0.112    22.703     6.795
     2   6 C        3.802    -0.073    21.887     6.661
     3   6 C        3.846    -0.025    20.982     6.516
     4   6 C        3.743    -0.047    21.491     6.614
     5   7 N        3.615     0.102    19.478     6.555
     6   6 C        3.765    -0.034    21.227     6.567
     7   6 C        3.750    -0.125    22.959     6.834
     8   6 C        3.755    -0.033    21.212     6.567
     9   6 C        3.750    -0.128    23.027     6.844
    10   6 C        3.758    -0.027    21.112     6.551
    11   6 C        3.751    -0.126    22.972     6.835
    12   6 C        3.753    -0.119    22.847     6.816
    13   1 H        0.925     0.026     2.644     2.543
    14   1 H        0.925     0.056     2.243     2.342
    15   1 H        0.925     0.048     2.349     2.397
    16   1 H        0.925     0.041     2.442     2.444
    17   1 H        0.924     0.058     2.219     2.329
    18   1 H        0.924     0.065     2.142     2.289
    19   1 H        0.925     0.079     1.990     2.206
    20   1 H        0.925     0.097     1.817     2.108
    21   1 H        0.924     0.075     2.030     2.228
    22   1 H        0.925     0.091     1.865     2.135
    23   1 H        0.925     0.061     2.188     2.313
    24   1 H        0.925     0.082     1.956     2.187
    25   1 H        0.925     0.068     2.102     2.268
    26   1 H        0.924     0.080     1.978     2.200
    27   1 H        0.925     0.085     1.927     2.171
    28   1 H        0.925     0.068     2.107     2.270
    29   1 H        0.925     0.081     1.971     2.195
    30   1 H        0.925     0.065     2.144     2.290
    31   1 H        0.925     0.086     1.914     2.164
    32   1 H        0.924     0.072     2.066     2.248
    33   1 H        0.925     0.070     2.088     2.260
    34   1 H        0.925     0.078     2.004     2.214
    35   1 H        0.925     0.065     2.140     2.288
    36   1 H        0.925     0.064     2.150     2.293
    37   1 H        0.925     0.049     2.334     2.389
    38   1 H        0.925     0.036     2.498     2.472

Wiberg/Mayer (AO) data.
largest (>0.10) Wiberg bond orders for each atom

     #   Z sym  total        # sym  WBO       # sym  WBO       # sym  WBO
 ---------------------------------------------------------------------------
     1   6 C    3.994 --     2 C    1.020    15 H    0.986    14 H    0.984
                            13 H    0.979
     2   6 C    3.993 --     1 C    1.020     3 C    0.995    17 H    0.973
                            16 H    0.971
     3   6 C    3.984 --    12 C    1.009     2 C    0.995     4 C    0.986
                            18 H    0.957
     4   6 C    3.926 --     3 C    0.986    19 H    0.966    20 H    0.952
                             5 N    0.929
     5   7 N    3.797 --    10 C    0.933     4 C    0.929     6 C    0.929
                             8 C    0.925
     6   6 C    3.938 --     7 C    1.024    21 H    0.969    22 H    0.961
                             5 N    0.929
     7   6 C    3.984 --     6 C    1.024    25 H    0.975    23 H    0.975
                            24 H    0.972
     8   6 C    3.936 --     9 C    1.023    26 H    0.968    27 H    0.962
                             5 N    0.925
     9   6 C    3.983 --     8 C    1.023    30 H    0.982    28 H    0.977
                            29 H    0.972
    10   6 C    3.939 --    11 C    1.021    32 H    0.968    31 H    0.959
                             5 N    0.933
    11   6 C    3.983 --    10 C    1.021    35 H    0.981    33 H    0.975
                            34 H    0.974
    12   6 C    3.992 --     3 C    1.009    36 H    0.980    37 H    0.979
                            38 H    0.978
    13   1 H    0.999 --     1 C    0.979
    14   1 H    0.997 --     1 C    0.984
    15   1 H    0.998 --     1 C    0.986
    16   1 H    0.998 --     2 C    0.971
    17   1 H    0.996 --     2 C    0.973
    18   1 H    0.996 --     3 C    0.957
    19   1 H    0.994 --     4 C    0.966
    20   1 H    0.991 --     4 C    0.952
    21   1 H    0.994 --     6 C    0.969
    22   1 H    0.991 --     6 C    0.961
    23   1 H    0.996 --     7 C    0.975
    24   1 H    0.993 --     7 C    0.972
    25   1 H    0.995 --     7 C    0.975
    26   1 H    0.993 --     8 C    0.968
    27   1 H    0.993 --     8 C    0.962
    28   1 H    0.995 --     9 C    0.977
    29   1 H    0.993 --     9 C    0.972
    30   1 H    0.996 --     9 C    0.982
    31   1 H    0.993 --    10 C    0.959
    32   1 H    0.995 --    10 C    0.968
    33   1 H    0.995 --    11 C    0.975
    34   1 H    0.994 --    11 C    0.974
    35   1 H    0.996 --    11 C    0.981
    36   1 H    0.995 --    12 C    0.980
    37   1 H    0.997 --    12 C    0.979
    38   1 H    0.999 --    12 C    0.978
 ---------------------------------------------------------------------------

molecular dipole:
                 x           y           z       tot (Debye)
 q only:       -1.851      -3.099      -4.104
   full:       -1.958      -3.115      -4.164      14.124

           -------------------------------------------------
          | TOTAL ENERGY              -39.339817069265 Eh   |
          | GRADIENT NORM               0.000296151265 Eh/α |
          | HOMO-LUMO GAP               8.410634396059 eV   |
           -------------------------------------------------

 * finished run on 2024/12/20 at 06:49:39.317
