   * xtb version 6.7.1 (edcfbbe) compiled by 'conda@3ef47c1a292c' on 2024-11-25

   ID    Z sym.   atoms
    1    6 C      1-4, 6-10, 12, 13
    2    7 N      5, 11
    3    1 H      14-32

          program call               : xtb C0582.xyz --opt --namespace C0582 --charge +1
          :  Hamiltonian                  GFN2-xTB          :
 * total energy  :   -38.7182792 Eh     change       -0.2688694E-09 Eh
 * total energy  :   -38.7247033 Eh     change       -0.6424156E-02 Eh
 * total energy  :   -38.7267666 Eh     change       -0.2063225E-02 Eh
 * total energy  :   -38.7272834 Eh     change       -0.5168254E-03 Eh
 * total energy  :   -38.7278146 Eh     change       -0.5311747E-03 Eh
 * total energy  :   -38.7280076 Eh     change       -0.1930220E-03 Eh
 * total energy  :   -38.7281600 Eh     change       -0.1524396E-03 Eh
 * total energy  :   -38.7282112 Eh     change       -0.5114331E-04 Eh
 * total energy  :   -38.7282493 Eh     change       -0.3816707E-04 Eh
 * total energy  :   -38.7282833 Eh     change       -0.3399470E-04 Eh
 * total energy  :   -38.7283150 Eh     change       -0.3164029E-04 Eh
 * total energy  :   -38.7283381 Eh     change       -0.2308468E-04 Eh
 * total energy  :   -38.7283590 Eh     change       -0.2097287E-04 Eh
 * total energy  :   -38.7283740 Eh     change       -0.1498829E-04 Eh
 * total energy  :   -38.7283840 Eh     change       -0.9955773E-05 Eh
 * total energy  :   -38.7283939 Eh     change       -0.9903136E-05 Eh
 * total energy  :   -38.7283991 Eh     change       -0.5202727E-05 Eh
 * total energy  :   -38.7284051 Eh     change       -0.5971953E-05 Eh
 * total energy  :   -38.7284093 Eh     change       -0.4260761E-05 Eh
   *** GEOMETRY OPTIMIZATION CONVERGED AFTER 19 ITERATIONS ***

 final structure:
================
32
 xtb: 6.7.1 (edcfbbe)
C            1.19669185296806        0.24783496176911       -0.46834754434309
C            0.64207251363519       -0.76564503123406       -1.46291682489915
C            0.96993442396122       -2.21347694544123       -1.09551215003357
C            0.24165264134828       -2.71744862381495        0.15723455956180
N           -1.18927345814962       -2.80101583045713       -0.06414309735904
C           -1.71305151503287       -3.86676724593927       -0.70041758862020
C           -3.03940287058663       -3.96544972447065       -0.98862072544021
C           -3.94023703194530       -2.92210398142532       -0.63376224106318
C           -3.34401941236897       -1.81062227616904        0.02358212823168
C           -2.00692055060641       -1.78956949239052        0.28273515317065
N           -5.24293523204557       -2.98525685698381       -0.89341312910145
C           -5.82199231144324       -4.16726057422704       -1.49543938761527
C           -6.11794149795269       -1.87864488055103       -0.56866191965173
H            0.75410619784377        0.13994238462139        0.51938325495906
H            0.99369010031173        1.25728583207092       -0.81477126884292
H            2.27321765487828        0.13383083912545       -0.37285214202315
H           -0.43978905303805       -0.63899868479034       -1.56267482954038
H            1.07954238967462       -0.56313310487976       -2.44146887973331
H            0.71941265322544       -2.86531920377261       -1.93535974655689
H            2.04148953935466       -2.30133441579134       -0.91431947379102
H            0.61177567455795       -3.71105586044492        0.41869793780209
H            0.43076803618472       -2.04759108880663        0.99633814133191
H           -1.02591540539050       -4.65398470900448       -0.97139065751554
H           -3.38794203407083       -4.84694628075299       -1.49668282980961
H           -3.93810035927647       -0.97167226707854        0.33908359604550
H           -1.55670832885142       -0.95248557967479        0.79374813231990
H           -6.90241782111081       -4.06617980565425       -1.52937248854110
H           -5.45999870676067       -4.30605876818092       -2.51615831732749
H           -5.58539283011585       -5.05637384140539       -0.90899022463327
H           -6.19569615343071       -1.74376074798692        0.51243132772553
H           -5.75576464127684       -0.95306533997382       -1.01870358111858
H           -7.11184446449056       -2.07438285628430       -0.95931518358838

          :  Hamiltonian                  GFN2-xTB          :
         :: total energy             -38.728409321207 Eh    ::
         :: gradient norm              0.000732657923 Eh/a0 ::
         :: HOMO-LUMO gap              3.113088914688 eV    ::
         :: SCC energy               -39.342045967405 Eh    ::
         :: -> dispersion             -0.025414081282 Eh    ::
         :: repulsion energy           0.613636646198 Eh    ::

    * Orbital Energies and Occupations

         #    Occupation            Energy/Eh            Energy/eV
      -------------------------------------------------------------
         1        2.0000           -0.8425615             -22.9273
       ...           ...                  ...                  ...
        24        2.0000           -0.6216316             -16.9155
        25        2.0000           -0.6143300             -16.7168
        26        2.0000           -0.6082451             -16.5512
        27        2.0000           -0.6046100             -16.4523
        28        2.0000           -0.5996634             -16.3177
        29        2.0000           -0.5903354             -16.0638
        30        2.0000           -0.5862456             -15.9526
        31        2.0000           -0.5846147             -15.9082
        32        2.0000           -0.5797483             -15.7758
        33        2.0000           -0.5538807             -15.0719
        34        2.0000           -0.5466574             -14.8753
        35        2.0000           -0.5411283             -14.7249
        36        2.0000           -0.5210050             -14.1773 (HOMO)
        37                         -0.4066010             -11.0642 (LUMO)
        38                         -0.3915541             -10.6547
        39                         -0.2694988              -7.3334
        40                         -0.1504208              -4.0932
        41                         -0.1415772              -3.8525
        42                         -0.0624045              -1.6981
        43                         -0.0529674              -1.4413
        44                         -0.0408185              -1.1107
        45                         -0.0224497              -0.6109
        46                         -0.0200147              -0.5446
        47                         -0.0137523              -0.3742
       ...                                ...                  ...
        71                          0.4880943              13.2817
      -------------------------------------------------------------
                  HL-Gap            0.1144039 Eh            3.1131 eV

     #   Z          covCN         q      C6AA      α(0)
     1   6 C        3.752    -0.112    22.696     6.794
     2   6 C        3.800    -0.059    21.643     6.624
     3   6 C        3.802    -0.070    21.832     6.652
     4   6 C        3.754    -0.028    21.134     6.555
     5   7 N        2.748     0.063    20.142     6.666
     6   6 C        2.886     0.026    27.414     8.584
     7   6 C        2.917    -0.057    29.419     8.894
     8   6 C        2.922     0.089    26.014     8.364
     9   6 C        2.917    -0.059    29.456     8.900
    10   6 C        2.885     0.028    27.380     8.579
    11   7 N        2.735    -0.005    21.351     6.863
    12   6 C        3.700    -0.074    22.082     6.720
    13   6 C        3.699    -0.074    22.081     6.720
    14   1 H        0.925     0.030     2.579     2.512
    15   1 H        0.925     0.052     2.299     2.371
    16   1 H        0.925     0.051     2.308     2.376
    17   1 H        0.924     0.027     2.628     2.535
    18   1 H        0.924     0.056     2.252     2.347
    19   1 H        0.924     0.048     2.342     2.393
    20   1 H        0.924     0.072     2.063     2.246
    21   1 H        0.924     0.077     2.008     2.216
    22   1 H        0.924     0.084     1.934     2.175
    23   1 H        0.926     0.090     1.882     2.145
    24   1 H        0.926     0.084     1.939     2.178
    25   1 H        0.926     0.083     1.943     2.180
    26   1 H        0.926     0.092     1.855     2.130
    27   1 H        0.925     0.088     1.902     2.157
    28   1 H        0.924     0.077     2.010     2.217
    29   1 H        0.924     0.077     2.013     2.219
    30   1 H        0.924     0.077     2.009     2.217
    31   1 H        0.924     0.077     2.013     2.219
    32   1 H        0.925     0.088     1.903     2.157

Wiberg/Mayer (AO) data.
largest (>0.10) Wiberg bond orders for each atom

     #   Z sym  total        # sym  WBO       # sym  WBO       # sym  WBO
 ---------------------------------------------------------------------------
     1   6 C    3.994 --     2 C    1.021    16 H    0.986    15 H    0.985
                            14 H    0.984
     2   6 C    3.995 --     1 C    1.021     3 C    1.009    17 H    0.975
                            18 H    0.974
     3   6 C    3.982 --     2 C    1.009     4 C    0.984    19 H    0.975
                            20 H    0.967
     4   6 C    3.944 --     3 C    0.984     5 N    0.969    21 H    0.965
                            22 H    0.963
     5   7 N    3.713 --    10 C    1.262     6 C    1.259     4 C    0.969
     6   6 C    3.966 --     7 C    1.579     5 N    1.259    23 H    0.958
     7   6 C    3.985 --     6 C    1.579     8 C    1.229    24 H    0.959
     8   6 C    3.976 --    11 N    1.353     9 C    1.233     7 C    1.229
     9   6 C    3.985 --    10 C    1.570     8 C    1.233    25 H    0.959
    10   6 C    3.965 --     9 C    1.570     5 N    1.262    26 H    0.956
    11   7 N    3.590 --     8 C    1.353    12 C    0.996    13 C    0.996
    12   6 C    3.955 --    11 N    0.996    27 H    0.975    29 H    0.970
                            28 H    0.968
    13   6 C    3.955 --    11 N    0.996    32 H    0.975    31 H    0.970
                            30 H    0.968
    14   1 H    0.999 --     1 C    0.984
    15   1 H    0.997 --     1 C    0.985
    16   1 H    0.997 --     1 C    0.986
    17   1 H    0.999 --     2 C    0.975
    18   1 H    0.996 --     2 C    0.974
    19   1 H    0.998 --     3 C    0.975
    20   1 H    0.993 --     3 C    0.967
    21   1 H    0.992 --     4 C    0.965
    22   1 H    0.992 --     4 C    0.963
    23   1 H    0.991 --     6 C    0.958
    24   1 H    0.993 --     7 C    0.959
    25   1 H    0.993 --     9 C    0.959
    26   1 H    0.991 --    10 C    0.956
    27   1 H    0.992 --    12 C    0.975
    28   1 H    0.994 --    12 C    0.968
    29   1 H    0.994 --    12 C    0.970
    30   1 H    0.994 --    13 C    0.968
    31   1 H    0.994 --    13 C    0.970
    32   1 H    0.992 --    13 C    0.975
 ---------------------------------------------------------------------------

molecular dipole:
                 x           y           z       tot (Debye)
 q only:       -5.367      -5.183      -1.032
   full:       -5.352      -5.236      -0.992      19.198

           -------------------------------------------------
          | TOTAL ENERGY              -38.728409321207 Eh   |
          | GRADIENT NORM               0.000732657923 Eh/α |
          | HOMO-LUMO GAP               3.113088914688 eV   |
           -------------------------------------------------

 * finished run on 2024/12/20 at 06:49:29.733
