   * xtb version 6.7.1 (edcfbbe) compiled by 'conda@3ef47c1a292c' on 2024-11-25

   ID    Z sym.   atoms
    1    6 C      1-7, 9, 10, 12, 13
    2    7 N      8, 11
    3    1 H      14-34

          program call               : xtb C0586.xyz --opt --namespace C0586 --charge +1
          :  Hamiltonian                  GFN2-xTB          :
 * total energy  :   -39.7480674 Eh     change       -0.1437449E-08 Eh
 * total energy  :   -39.7513597 Eh     change       -0.3292252E-02 Eh
 * total energy  :   -39.7520844 Eh     change       -0.7247266E-03 Eh
 * total energy  :   -39.7522130 Eh     change       -0.1285768E-03 Eh
 * total energy  :   -39.7522936 Eh     change       -0.8060913E-04 Eh
 * total energy  :   -39.7523161 Eh     change       -0.2255871E-04 Eh
 * total energy  :   -39.7523598 Eh     change       -0.4364577E-04 Eh
 * total energy  :   -39.7523833 Eh     change       -0.2352841E-04 Eh
 * total energy  :   -39.7524155 Eh     change       -0.3221596E-04 Eh
 * total energy  :   -39.7524292 Eh     change       -0.1366101E-04 Eh
 * total energy  :   -39.7525180 Eh     change       -0.9986606E-05 Eh
 * total energy  :   -39.7525304 Eh     change       -0.1238551E-04 Eh
 * total energy  :   -39.7525379 Eh     change       -0.7563754E-05 Eh
 * total energy  :   -39.7525480 Eh     change       -0.1005098E-04 Eh
 * total energy  :   -39.7525574 Eh     change       -0.9407430E-05 Eh
 * total energy  :   -39.7525691 Eh     change       -0.1173612E-04 Eh
 * total energy  :   -39.7525674 Eh     change        0.1771384E-05 Eh
 * total energy  :   -39.7525810 Eh     change       -0.1365509E-04 Eh
 * total energy  :   -39.7525850 Eh     change       -0.3925514E-05 Eh
   *** GEOMETRY OPTIMIZATION CONVERGED AFTER 23 ITERATIONS ***

 final structure:
================
34
 xtb: 6.7.1 (edcfbbe)
C            0.75821186241577       -0.35479751060778       -0.48984144927109
C            0.55916897587635       -1.37969662319360        0.62036310255236
C            1.16565383198910       -0.94848506885596        1.95687786760701
C            0.60159701006686        0.35384932205055        2.53127762599726
C           -0.91461288049964        0.36162038232635        2.74347671441853
C           -1.44128836701122       -0.73351744171991        3.67087603024475
C           -0.94834731867654       -0.60928355431868        5.11780514503563
N           -1.46926744018545        0.58689547072234        5.73765013839065
C           -2.71608482422525        0.72134821389839        6.26641367850733
C           -2.84833160725149        2.01404681432182        6.67366761138886
N           -1.68034173790221        2.65101426402994        6.38242428835766
C           -0.86388521423188        1.76822259172728        5.81189848411667
C           -1.40151415348233        4.03868411314536        6.63716817271823
H            0.19577153913156        0.55579524039291       -0.29788369880619
H            0.41996483215531       -0.76301398072633       -1.43851822481093
H            1.81037143070601       -0.09774027712623       -0.58622822984261
H           -0.50586297725162       -1.58901981837670        0.73828443774291
H            1.03926035283148       -2.31436806282916        0.32444887584935
H            1.03818736130203       -1.75761861589191        2.67997734098942
H            2.24007098515749       -0.81025201934744        1.81937293020882
H            1.11689871539990        0.56102763226444        3.47363411644183
H            0.84672707020054        1.17159550919466        1.85283258888175
H           -1.21369234954434        1.34341066415456        3.12480307757356
H           -1.40184179671395        0.23938459916580        1.77665515736152
H           -2.53309804191844       -0.71247969914080        3.66554160492277
H           -1.12910248459344       -1.70729762969386        3.29738017662664
H           -1.28671024130872       -1.46955716528310        5.69854039511766
H            0.14106005611514       -0.57195601214101        5.14398935813652
H           -3.40867683205047       -0.09335567236504        6.32450490089272
H           -3.67430908777816        2.50984240689275        7.14132644644534
H            0.13358207508936        1.97540274555565        5.47548252616587
H           -0.33814796324648        4.23242176194233        6.52011771876542
H           -1.95521352261967        4.66922555309488        5.94025178849968
H           -1.70306725794744        4.29760186673566        7.65096930277454

          :  Hamiltonian                  GFN2-xTB          :
         :: total energy             -39.752584952922 Eh    ::
         :: gradient norm              0.000734525855 Eh/a0 ::
         :: HOMO-LUMO gap              2.720156303313 eV    ::
         :: SCC energy               -40.356910234684 Eh    ::
         :: -> dispersion             -0.025905543825 Eh    ::
         :: repulsion energy           0.604325281762 Eh    ::

    * Orbital Energies and Occupations

         #    Occupation            Energy/Eh            Energy/eV
      -------------------------------------------------------------
         1        2.0000           -0.8969758             -24.4080
       ...           ...                  ...                  ...
        25        2.0000           -0.6111289             -16.6297
        26        2.0000           -0.6016300             -16.3712
        27        2.0000           -0.5924328             -16.1209
        28        2.0000           -0.5886887             -16.0190
        29        2.0000           -0.5851903             -15.9238
        30        2.0000           -0.5709509             -15.5364
        31        2.0000           -0.5680206             -15.4566
        32        2.0000           -0.5522154             -15.0265
        33        2.0000           -0.5456333             -14.8474
        34        2.0000           -0.5384282             -14.6514
        35        2.0000           -0.5167860             -14.0625
        36        2.0000           -0.5117650             -13.9258
        37        2.0000           -0.5066170             -13.7857 (HOMO)
        38                         -0.4066531             -11.0656 (LUMO)
        39                         -0.3713643             -10.1053
        40                         -0.1833580              -4.9894
        41                         -0.1284335              -3.4949
        42                         -0.0624116              -1.6983
        43                         -0.0593515              -1.6150
        44                         -0.0387886              -1.0555
        45                         -0.0306738              -0.8347
        46                         -0.0211554              -0.5757
        47                         -0.0171014              -0.4654
        48                         -0.0076598              -0.2084
       ...                                ...                  ...
        73                          0.4629729              12.5981
      -------------------------------------------------------------
                  HL-Gap            0.0999639 Eh            2.7202 eV

     #   Z          covCN         q      C6AA      α(0)
     1   6 C        3.751    -0.106    22.596     6.779
     2   6 C        3.799    -0.056    21.588     6.615
     3   6 C        3.800    -0.062    21.700     6.632
     4   6 C        3.800    -0.062    21.692     6.631
     5   6 C        3.800    -0.065    21.747     6.640
     6   6 C        3.802    -0.071    21.852     6.655
     7   6 C        3.742    -0.028    21.149     6.561
     8   7 N        2.869     0.073    19.976     6.638
     9   6 C        3.075    -0.006    28.087     8.689
    10   6 C        3.072    -0.009    28.163     8.701
    11   7 N        2.867     0.075    19.933     6.631
    12   6 C        3.100     0.046    26.838     8.489
    13   6 C        3.692    -0.086    22.333     6.762
    14   1 H        0.925     0.032     2.555     2.499
    15   1 H        0.925     0.043     2.414     2.430
    16   1 H        0.925     0.041     2.438     2.442
    17   1 H        0.924     0.030     2.593     2.518
    18   1 H        0.924     0.040     2.449     2.447
    19   1 H        0.924     0.027     2.633     2.538
    20   1 H        0.924     0.043     2.403     2.424
    21   1 H        0.924     0.016     2.800     2.617
    22   1 H        0.924     0.050     2.321     2.382
    23   1 H        0.924     0.018     2.758     2.597
    24   1 H        0.925     0.064     2.147     2.291
    25   1 H        0.924     0.052     2.297     2.370
    26   1 H        0.925     0.081     1.970     2.195
    27   1 H        0.924     0.087     1.906     2.159
    28   1 H        0.924     0.089     1.887     2.148
    29   1 H        0.926     0.109     1.707     2.043
    30   1 H        0.926     0.109     1.704     2.041
    31   1 H        0.926     0.114     1.665     2.018
    32   1 H        0.925     0.100     1.789     2.092
    33   1 H        0.924     0.106     1.728     2.056
    34   1 H        0.925     0.107     1.720     2.051

Wiberg/Mayer (AO) data.
largest (>0.10) Wiberg bond orders for each atom

     #   Z sym  total        # sym  WBO       # sym  WBO       # sym  WBO
 ---------------------------------------------------------------------------
     1   6 C    3.996 --     2 C    1.020    16 H    0.987    15 H    0.986
                            14 H    0.986
     2   6 C    3.997 --     1 C    1.020     3 C    1.008    18 H    0.977
                            17 H    0.976
     3   6 C    3.996 --     2 C    1.008     4 C    1.007    20 H    0.976
                            19 H    0.976
     4   6 C    3.996 --     5 C    1.007     3 C    1.007    21 H    0.974
                            22 H    0.974
     5   6 C    3.993 --     6 C    1.009     4 C    1.007    23 H    0.975
                            24 H    0.969
     6   6 C    3.983 --     5 C    1.009     7 C    0.980    25 H    0.974
                            26 H    0.962
     7   6 C    3.934 --     6 C    0.980     8 N    0.967    27 H    0.963
                            28 H    0.962
     8   7 N    3.721 --    12 C    1.364     9 C    1.231     7 C    0.967
     9   6 C    3.951 --    10 C    1.591     8 N    1.231    29 H    0.961
    10   6 C    3.948 --     9 C    1.591    11 N    1.227    30 H    0.961
    11   7 N    3.719 --    12 C    1.357    10 C    1.227    13 C    0.991
    12   6 C    3.947 --     8 N    1.364    11 N    1.357    31 H    0.953
    13   6 C    3.934 --    11 N    0.991    32 H    0.975    34 H    0.966
                            33 H    0.960
    14   1 H    0.999 --     1 C    0.986
    15   1 H    0.998 --     1 C    0.986
    16   1 H    0.998 --     1 C    0.987
    17   1 H    0.999 --     2 C    0.976
    18   1 H    0.998 --     2 C    0.977
    19   1 H    0.999 --     3 C    0.976
    20   1 H    0.998 --     3 C    0.976
    21   1 H    1.000 --     4 C    0.974
    22   1 H    0.997 --     4 C    0.974
    23   1 H    1.000 --     5 C    0.975
    24   1 H    0.996 --     5 C    0.969
    25   1 H    0.997 --     6 C    0.974
    26   1 H    0.992 --     6 C    0.962
    27   1 H    0.992 --     7 C    0.963
    28   1 H    0.992 --     7 C    0.962
    29   1 H    0.988 --     9 C    0.961
    30   1 H    0.988 --    10 C    0.961
    31   1 H    0.987 --    12 C    0.953
    32   1 H    0.990 --    13 C    0.975
    33   1 H    0.988 --    13 C    0.960
    34   1 H    0.988 --    13 C    0.966
 ---------------------------------------------------------------------------

molecular dipole:
                 x           y           z       tot (Debye)
 q only:       -2.743       2.896      10.711
   full:       -2.715       2.937      10.808      29.291

           -------------------------------------------------
          | TOTAL ENERGY              -39.752584952922 Eh   |
          | GRADIENT NORM               0.000734525855 Eh/α |
          | HOMO-LUMO GAP               2.720156303313 eV   |
           -------------------------------------------------

 * finished run on 2024/12/20 at 06:49:37.133
