   * xtb version 6.7.1 (edcfbbe) compiled by 'conda@3ef47c1a292c' on 2024-11-25

   ID    Z sym.   atoms
    1    6 C      1-11, 13-15, 17-19, 21-26
    2    7 N      12, 20
    3   17 Cl     16, 29
    4    8 O      27, 28
    5    1 H      30-64

          program call               : xtb C0597.xyz --opt --namespace C0597 --charge +1
          :  Hamiltonian                  GFN2-xTB          :
 * total energy  :   -89.8800387 Eh     change       -0.3607809E-08 Eh
 * total energy  :   -89.8876936 Eh     change       -0.7654863E-02 Eh
 * total energy  :   -89.8895563 Eh     change       -0.1862681E-02 Eh
 * total energy  :   -89.8900252 Eh     change       -0.4688998E-03 Eh
 * total energy  :   -89.8905856 Eh     change       -0.5604045E-03 Eh
 * total energy  :   -89.8909183 Eh     change       -0.3327511E-03 Eh
 * total energy  :   -89.8914458 Eh     change       -0.5275157E-03 Eh
 * total energy  :   -89.8919624 Eh     change       -0.5165901E-03 Eh
 * total energy  :   -89.8925096 Eh     change       -0.5471533E-03 Eh
 * total energy  :   -89.8928691 Eh     change       -0.3595281E-03 Eh
 * total energy  :   -89.9033160 Eh     change       -0.2931477E-04 Eh
 * total energy  :   -89.9033435 Eh     change       -0.2753916E-04 Eh
 * total energy  :   -89.9033653 Eh     change       -0.2174395E-04 Eh
 * total energy  :   -89.9033864 Eh     change       -0.2110244E-04 Eh
 * total energy  :   -89.9033967 Eh     change       -0.1035866E-04 Eh
 * total energy  :   -89.9033998 Eh     change       -0.3103084E-05 Eh
 * total energy  :   -89.9034123 Eh     change       -0.1247143E-04 Eh
 * total energy  :   -89.9034189 Eh     change       -0.6630573E-05 Eh
 * total energy  :   -89.9034235 Eh     change       -0.4554027E-05 Eh
   *** GEOMETRY OPTIMIZATION CONVERGED AFTER 65 ITERATIONS ***

 final structure:
================
64
 xtb: 6.7.1 (edcfbbe)
C            2.16723730242457        0.05130944358595        0.01358970477915
C            1.29729761221256       -0.11491459630528        1.25407998618793
C            1.51606079074583        0.98364180521185        2.29559759278507
C            1.16373035326087        2.39709041221678        1.82680043686986
C           -0.28758496983113        2.58724209948595        1.38058255031943
C           -1.33807205707136        2.25624071662537        2.44275414619495
C           -1.22505355090332        3.06593816164399        3.73574747710612
C           -1.30417586086468        4.58520550921007        3.56155717325352
C           -2.56943286786887        5.08739839462493        2.86074033225565
C           -3.87525174403129        4.76296930069160        3.58673662079590
C           -4.07366414178990        5.54793330390575        4.88857310618711
N           -4.31526326899943        6.95001981166354        4.62665679922837
C           -5.49111083939538        7.43470559943128        4.09199671653433
C           -6.68555771274083        6.80863215959712        3.76088928219091
C           -7.69514570552273        7.60025865580298        3.24270770805791
Cl          -9.19056331255515        6.88039380394243        2.81836042300949
C           -7.51482409731135        8.99045796011288        3.05677321245859
C           -6.32764803919722        9.61526095793242        3.39603272876730
C           -5.31757236141240        8.81825264988651        3.91905111465228
N           -4.04464638786951        9.11450016607933        4.36542417102428
C           -3.46920929827223        7.97625045935399        4.78169434350165
C           -2.11549882179963        7.86740824512871        5.36416185223295
C           -3.45274395624012       10.43531074469890        4.36846745755951
C           -2.48741015361218       10.64343183665369        3.19576937322484
C           -3.20108617525809       10.78481371670045        1.84527654284996
C           -4.02314419034487       12.05719981571440        1.79041086154066
O           -4.94381156518035       12.30071878618969        2.53016848776111
O           -3.60627813324228       12.87833678469825        0.84425879417891
Cl          -8.79336104877030        9.92247070960546        2.40255895467764
H            1.90242657714746        0.95041878058398       -0.53768549231604
H            2.04030822301999       -0.80025464222204       -0.65063132391085
H            3.21742911652992        0.11384875116244        0.29226292257636
H            0.24624194989219       -0.14820654254077        0.96095832740361
H            1.53269442998176       -1.07376354717144        1.72209995149943
H            0.93471457358279        0.74097860438259        3.18765454673814
H            2.56914212475309        0.97986515939382        2.58709550997427
H            1.38962555895924        3.09258369437390        2.63891258474512
H            1.81175293516793        2.66612040449043        0.99087172573142
H           -0.41275001336553        3.62214591121818        1.05185056242504
H           -0.47789732059289        1.95563911341104        0.51147822333276
H           -2.32932529255087        2.39969250360304        2.00562946206786
H           -1.25879207811005        1.19985497069698        2.70269739975894
H           -2.00904776328704        2.73410692393213        4.42099515420586
H           -0.27225709482426        2.83696285148916        4.21523336477568
H           -1.21377414275071        5.03866568879887        4.55256598293427
H           -0.44392462538149        4.91727544336291        2.97844614973606
H           -2.49628296711141        6.16936043667537        2.71095793427017
H           -2.61599032145844        4.63689926372926        1.86968810967067
H           -4.71216001654022        4.97190732953354        2.91849366705255
H           -3.90156487893008        3.70147392465381        3.82742863115504
H           -4.94236066245943        5.15774760715109        5.42431427980701
H           -3.19752693083779        5.44704686485918        5.52759306303881
H           -6.84426544389868        5.75278002066285        3.89994113226992
H           -6.20653590359092       10.67631619252794        3.24122345858569
H           -1.44008569435152        7.34878051109966        4.68335964096591
H           -1.69986681865187        8.84770676241804        5.57386926878373
H           -2.14815968528758        7.30116747219059        6.29427921888305
H           -4.26272335990085       11.16320034900705        4.30299580986933
H           -2.92950862369862       10.58836353409253        5.31483823065992
H           -1.91045577372435       11.54839052598816        3.38965537599864
H           -1.78701014266776        9.80855183342706        3.13633149525857
H           -2.46735369852816       10.81945005121182        1.04134669337789
H           -3.87042288241524        9.93789150305790        1.68023758008216
H           -4.13238915251767       13.69492433477922        0.80703340845550

          :  Hamiltonian                  GFN2-xTB          :
         :: total energy             -89.903423495984 Eh    ::
         :: gradient norm              0.000655919415 Eh/a0 ::
         :: HOMO-LUMO gap              1.829136064761 eV    ::
         :: SCC energy               -91.060152180055 Eh    ::
         :: -> dispersion             -0.066971899715 Eh    ::
         :: repulsion energy           1.156728684071 Eh    ::

    * Orbital Energies and Occupations

         #    Occupation            Energy/Eh            Energy/eV
      -------------------------------------------------------------
         1        2.0000           -1.1594711             -31.5508
       ...           ...                  ...                  ...
        69        2.0000           -0.5272950             -14.3484
        70        2.0000           -0.5260397             -14.3143
        71        2.0000           -0.5233972             -14.2424
        72        2.0000           -0.5232807             -14.2392
        73        2.0000           -0.5217252             -14.1969
        74        2.0000           -0.5139662             -13.9857
        75        2.0000           -0.5077817             -13.8174
        76        2.0000           -0.5036803             -13.7058
        77        2.0000           -0.4992098             -13.5842
        78        2.0000           -0.4953107             -13.4781
        79        2.0000           -0.4799387             -13.0598
        80        2.0000           -0.4761031             -12.9554
        81        2.0000           -0.4732779             -12.8785 (HOMO)
        82                         -0.4060584             -11.0494 (LUMO)
        83                         -0.3644143              -9.9162
        84                         -0.3536280              -9.6227
        85                         -0.3446911              -9.3795
        86                         -0.2514190              -6.8415
        87                         -0.2449223              -6.6647
        88                         -0.2371141              -6.4522
        89                         -0.1765219              -4.8034
        90                         -0.1266161              -3.4454
        91                         -0.0973979              -2.6503
        92                         -0.0932849              -2.5384
       ...                                ...                  ...
       161                          0.5340918              14.5334
      -------------------------------------------------------------
                  HL-Gap            0.0672195 Eh            1.8291 eV

     #   Z          covCN         q      C6AA      α(0)
     1   6 C        3.751    -0.103    22.527     6.769
     2   6 C        3.799    -0.053    21.528     6.606
     3   6 C        3.801    -0.058    21.624     6.621
     4   6 C        3.800    -0.058    21.612     6.619
     5   6 C        3.800    -0.058    21.619     6.620
     6   6 C        3.800    -0.060    21.661     6.627
     7   6 C        3.800    -0.061    21.673     6.628
     8   6 C        3.800    -0.061    21.676     6.629
     9   6 C        3.800    -0.062    21.701     6.633
    10   6 C        3.802    -0.072    21.870     6.658
    11   6 C        3.740    -0.022    21.040     6.545
    12   7 N        2.828     0.019    20.915     6.792
    13   6 C        3.100     0.034    27.118     8.534
    14   6 C        2.953    -0.052    29.290     8.877
    15   6 C        2.922     0.093    25.931     8.351
    16  17 Cl       1.005    -0.080   101.644    15.424
    17   6 C        2.922     0.094    25.911     8.348
    18   6 C        2.953    -0.057    29.406     8.894
    19   6 C        3.096     0.035    27.109     8.533
    20   7 N        2.828     0.018    20.939     6.796
    21   6 C        3.077     0.118    25.322     8.250
    22   6 C        3.755    -0.136    23.178     6.865
    23   6 C        3.740    -0.031    21.206     6.570
    24   6 C        3.802    -0.065    21.738     6.638
    25   6 C        3.802    -0.100    22.408     6.739
    26   6 C        2.689     0.364    20.821     7.468
    27   8 O        0.856    -0.422    22.122     6.306
    28   8 O        1.660    -0.348    19.868     6.017
    29  17 Cl       1.006    -0.077   101.567    15.418
    30   1 H        0.925     0.033     2.542     2.493
    31   1 H        0.925     0.035     2.515     2.480
    32   1 H        0.925     0.036     2.507     2.476
    33   1 H        0.924     0.030     2.589     2.516
    34   1 H        0.924     0.031     2.576     2.510
    35   1 H        0.924     0.027     2.625     2.534
    36   1 H        0.924     0.032     2.553     2.499
    37   1 H        0.924     0.024     2.678     2.559
    38   1 H        0.924     0.036     2.505     2.475
    39   1 H        0.924     0.022     2.701     2.570
    40   1 H        0.924     0.039     2.464     2.455
    41   1 H        0.924     0.026     2.651     2.546
    42   1 H        0.924     0.043     2.415     2.430
    43   1 H        0.924     0.026     2.646     2.544
    44   1 H        0.924     0.044     2.393     2.419
    45   1 H        0.924     0.018     2.763     2.600
    46   1 H        0.924     0.044     2.396     2.421
    47   1 H        0.924     0.016     2.799     2.616
    48   1 H        0.925     0.059     2.206     2.323
    49   1 H        0.924     0.051     2.314     2.379
    50   1 H        0.925     0.075     2.034     2.231
    51   1 H        0.924     0.080     1.984     2.203
    52   1 H        0.925     0.083     1.947     2.182
    53   1 H        0.926     0.097     1.814     2.106
    54   1 H        0.926     0.126     1.565     1.956
    55   1 H        0.924     0.106     1.727     2.055
    56   1 H        0.925     0.093     1.854     2.129
    57   1 H        0.925     0.096     1.825     2.113
    58   1 H        0.924     0.116     1.642     2.004
    59   1 H        0.924     0.078     1.997     2.210
    60   1 H        0.924     0.074     2.040     2.234
    61   1 H        0.924     0.061     2.189     2.314
    62   1 H        0.925     0.087     1.904     2.158
    63   1 H        0.924     0.070     2.081     2.256
    64   1 H        0.804     0.347     0.596     1.213

Wiberg/Mayer (AO) data.
largest (>0.10) Wiberg bond orders for each atom

     #   Z sym  total        # sym  WBO       # sym  WBO       # sym  WBO
 ---------------------------------------------------------------------------
     1   6 C    3.997 --     2 C    1.020    32 H    0.988    31 H    0.987
                            30 H    0.986
     2   6 C    3.998 --     1 C    1.020     3 C    1.008    34 H    0.978
                            33 H    0.976
     3   6 C    3.997 --     2 C    1.008     4 C    1.008    36 H    0.977
                            35 H    0.976
     4   6 C    3.997 --     5 C    1.008     3 C    1.008    37 H    0.975
                            38 H    0.975
     5   6 C    3.997 --     4 C    1.008     6 C    1.008    39 H    0.975
                            40 H    0.974
     6   6 C    3.996 --     7 C    1.008     5 C    1.008    41 H    0.975
                            42 H    0.973
     7   6 C    3.996 --     6 C    1.008     8 C    1.006    43 H    0.975
                            44 H    0.973
     8   6 C    3.996 --     9 C    1.007     7 C    1.006    46 H    0.974
                            45 H    0.972
     9   6 C    3.994 --    10 C    1.008     8 C    1.007    47 H    0.976
                            48 H    0.970
    10   6 C    3.984 --     9 C    1.008    11 C    0.986    49 H    0.973
                            50 H    0.964
    11   6 C    3.940 --    10 C    0.986    12 N    0.968    51 H    0.962
                            52 H    0.961
    12   7 N    3.665 --    21 C    1.329    13 C    1.130    11 C    0.968
    13   6 C    3.960 --    14 C    1.338    19 C    1.270    12 N    1.130
    14   6 C    3.979 --    15 C    1.443    13 C    1.338    53 H    0.957
                            18 C    0.104
    15   6 C    3.936 --    14 C    1.443    17 C    1.285    16 Cl   1.041
    16  17 Cl   1.206 --    15 C    1.041
    17   6 C    3.936 --    18 C    1.443    15 C    1.285    29 Cl   1.043
    18   6 C    3.972 --    17 C    1.443    19 C    1.338    54 H    0.940
                            14 C    0.104
    19   6 C    3.959 --    18 C    1.338    13 C    1.270    20 N    1.129
    20   7 N    3.661 --    21 C    1.322    19 C    1.129    23 C    0.971
    21   6 C    3.942 --    12 N    1.329    20 N    1.322    22 C    1.047
    22   6 C    3.977 --    21 C    1.047    56 H    0.968    57 H    0.954
                            55 H    0.941
    23   6 C    3.939 --    24 C    0.993    20 N    0.971    59 H    0.959
                            58 H    0.951
    24   6 C    3.988 --    25 C    0.993    23 C    0.993    61 H    0.972
                            60 H    0.971
    25   6 C    3.992 --    24 C    0.993    62 H    0.971    26 C    0.969
                            63 H    0.957
    26   6 C    3.915 --    27 O    1.731    28 O    1.184    25 C    0.969
    27   8 O    2.032 --    26 C    1.731    28 O    0.181
    28   8 O    2.248 --    26 C    1.184    64 H    0.853    27 O    0.181
    29  17 Cl   1.209 --    17 C    1.043
    30   1 H    0.999 --     1 C    0.986
    31   1 H    0.999 --     1 C    0.987
    32   1 H    0.999 --     1 C    0.988
    33   1 H    0.999 --     2 C    0.976
    34   1 H    0.999 --     2 C    0.978
    35   1 H    0.999 --     3 C    0.976
    36   1 H    0.999 --     3 C    0.977
    37   1 H    0.999 --     4 C    0.975
    38   1 H    0.999 --     4 C    0.975
    39   1 H    1.000 --     5 C    0.975
    40   1 H    0.998 --     5 C    0.974
    41   1 H    0.999 --     6 C    0.975
    42   1 H    0.998 --     6 C    0.973
    43   1 H    0.999 --     7 C    0.975
    44   1 H    0.998 --     7 C    0.973
    45   1 H    1.000 --     8 C    0.972
    46   1 H    0.998 --     8 C    0.974
    47   1 H    1.000 --     9 C    0.976
    48   1 H    0.996 --     9 C    0.970
    49   1 H    0.997 --    10 C    0.973
    50   1 H    0.993 --    10 C    0.964
    51   1 H    0.993 --    11 C    0.962
    52   1 H    0.992 --    11 C    0.961
    53   1 H    0.990 --    14 C    0.957
    54   1 H    0.984 --    18 C    0.940
    55   1 H    0.984 --    22 C    0.941
    56   1 H    0.991 --    22 C    0.968
    57   1 H    0.988 --    22 C    0.954
    58   1 H    0.986 --    23 C    0.951
    59   1 H    0.993 --    23 C    0.959
    60   1 H    0.994 --    24 C    0.971
    61   1 H    0.996 --    24 C    0.972
    62   1 H    0.992 --    25 C    0.971
    63   1 H    0.995 --    25 C    0.957
    64   1 H    0.880 --    28 O    0.853
 ---------------------------------------------------------------------------

molecular dipole:
                 x           y           z       tot (Debye)
 q only:       -5.930      14.880       7.717
   full:       -6.569      15.110       7.543      46.058

           -------------------------------------------------
          | TOTAL ENERGY              -89.903423495984 Eh   |
          | GRADIENT NORM               0.000655919415 Eh/α |
          | HOMO-LUMO GAP               1.829136064761 eV   |
           -------------------------------------------------

 * finished run on 2024/12/20 at 06:49:58.354
