   * xtb version 6.7.1 (edcfbbe) compiled by 'conda@3ef47c1a292c' on 2024-11-25

   ID    Z sym.   atoms
    1    6 C      1, 3-8, 10
    2    7 N      2
    3    8 O      9
    4    1 H      11-20

          program call               : xtb C0595.xyz --opt --namespace C0595 --charge +1
          :  Hamiltonian                  GFN2-xTB          :
 * total energy  :   -28.7829517 Eh     change       -0.8113723E-09 Eh
 * total energy  :   -28.7858170 Eh     change       -0.2865366E-02 Eh
 * total energy  :   -28.7863253 Eh     change       -0.5082730E-03 Eh
 * total energy  :   -28.7863702 Eh     change       -0.4492815E-04 Eh
 * total energy  :   -28.7863818 Eh     change       -0.1152091E-04 Eh
 * total energy  :   -28.7863826 Eh     change       -0.8156262E-06 Eh
   *** GEOMETRY OPTIMIZATION CONVERGED AFTER 6 ITERATIONS ***

 final structure:
================
20
 xtb: 6.7.1 (edcfbbe)
C           -2.36545190686426       -0.02489423701315       -0.02723775297908
N           -0.92258505689128        0.02054778971463        0.03546391934416
C           -0.23836273332630       -1.13249047769513        0.06345614212354
C            1.13497651445620       -1.13948709495965        0.12732719898066
C            1.83896827742546        0.06770438376568        0.16487046150262
C            1.10252059491518        1.25000383662720        0.13456702934885
C           -0.27540718140653        1.18924225630675        0.06966740770793
C            3.35624014061267       -0.00790821957090        0.23058343532163
O            3.87667816715204       -1.08982546844855        0.20169272771760
C            4.08900828746065        1.28838663592790        0.32765774013150
H           -2.68617676538306       -0.59918517126358       -0.89738215586180
H           -2.76458811328928       -0.50893601895607        0.86573117452813
H           -2.77966599465379        0.97832397358507       -0.09621805942021
H           -0.81090490886714       -2.04838440169132        0.03329143284742
H            1.68854098061369       -2.06764710798565        0.14719633568101
H            1.58256591624626        2.21503385379929        0.15864976162081
H           -0.87185742034062        2.08977699146093        0.04483353654518
H            3.90884689094098        1.89011635094036       -0.56188253631780
H            3.76168186996609        1.85113520839911        1.19981069527294
H            5.15477244123303        1.09098691705708        0.40879150590493

          :  Hamiltonian                  GFN2-xTB          :
         :: total energy             -28.786382570798 Eh    ::
         :: gradient norm              0.000417890698 Eh/a0 ::
         :: HOMO-LUMO gap              1.780002779501 eV    ::
         :: SCC energy               -29.232596737115 Eh    ::
         :: -> dispersion             -0.014357544177 Eh    ::
         :: repulsion energy           0.446214166318 Eh    ::

    * Orbital Energies and Occupations

         #    Occupation            Energy/Eh            Energy/eV
      -------------------------------------------------------------
         1        2.0000           -0.8942513             -24.3338
       ...           ...                  ...                  ...
        14        2.0000           -0.6951080             -18.9149
        15        2.0000           -0.6932356             -18.8639
        16        2.0000           -0.6900763             -18.7779
        17        2.0000           -0.6649712             -18.0948
        18        2.0000           -0.6623432             -18.0233
        19        2.0000           -0.6543585             -17.8060
        20        2.0000           -0.6479617             -17.6319
        21        2.0000           -0.6279065             -17.0862
        22        2.0000           -0.6270603             -17.0632
        23        2.0000           -0.6259573             -17.0332
        24        2.0000           -0.6088013             -16.5663
        25        2.0000           -0.5989553             -16.2984
        26        2.0000           -0.5473791             -14.8949 (HOMO)
        27                         -0.4819652             -13.1149 (LUMO)
        28                         -0.4394841             -11.9590
        29                         -0.3897216             -10.6049
        30                         -0.2977953              -8.1034
        31                         -0.1806941              -4.9169
        32                         -0.1111638              -3.0249
        33                         -0.0714035              -1.9430
        34                         -0.0532495              -1.4490
        35                         -0.0291607              -0.7935
        36                         -0.0245643              -0.6684
        37                         -0.0082722              -0.2251
       ...                                ...                  ...
        50                          0.5270009              14.3404
      -------------------------------------------------------------
                  HL-Gap            0.0654139 Eh            1.7800 eV

     #   Z          covCN         q      C6AA      α(0)
     1   6 C        3.711    -0.099    22.527     6.783
     2   7 N        2.748     0.125    19.114     6.493
     3   6 C        2.892     0.030    27.334     8.572
     4   6 C        2.920    -0.005    28.157     8.702
     5   6 C        2.973     0.032    27.289     8.569
     6   6 C        2.916    -0.015    28.394     8.738
     7   6 C        2.890     0.030    27.324     8.570
     8   6 C        2.814     0.243    22.941     7.848
     9   8 O        0.858    -0.292    19.644     5.942
    10   6 C        3.754    -0.153    23.518     6.915
    11   1 H        0.924     0.117     1.639     2.002
    12   1 H        0.924     0.118     1.633     1.999
    13   1 H        0.925     0.109     1.702     2.040
    14   1 H        0.926     0.117     1.638     2.001
    15   1 H        0.926     0.133     1.515     1.925
    16   1 H        0.926     0.112     1.683     2.029
    17   1 H        0.926     0.113     1.669     2.020
    18   1 H        0.925     0.093     1.852     2.128
    19   1 H        0.925     0.090     1.881     2.145
    20   1 H        0.925     0.105     1.744     2.065

Wiberg/Mayer (AO) data.
largest (>0.10) Wiberg bond orders for each atom

     #   Z sym  total        # sym  WBO       # sym  WBO       # sym  WBO
 ---------------------------------------------------------------------------
     1   6 C    3.926 --     2 N    0.986    13 H    0.973    11 H    0.957
                            12 H    0.954
     2   7 N    3.774 --     7 C    1.333     3 C    1.315     1 C    0.986
     3   6 C    3.955 --     4 C    1.479     2 N    1.315    14 H    0.953
     4   6 C    3.972 --     3 C    1.479     5 C    1.376    15 H    0.949
     5   6 C    3.968 --     6 C    1.396     4 C    1.376     8 C    0.961
     6   6 C    3.980 --     7 C    1.459     5 C    1.396    16 H    0.954
     7   6 C    3.957 --     6 C    1.459     2 N    1.333    17 H    0.953
     8   6 C    3.927 --     9 O    1.878    10 C    1.027     5 C    0.961
     9   8 O    2.123 --     8 C    1.878
    10   6 C    3.985 --     8 C    1.027    20 H    0.974    19 H    0.949
                            18 H    0.945
    11   1 H    0.985 --     1 C    0.957
    12   1 H    0.985 --     1 C    0.954
    13   1 H    0.988 --     1 C    0.973
    14   1 H    0.986 --     3 C    0.953
    15   1 H    0.982 --     4 C    0.949
    16   1 H    0.988 --     6 C    0.954
    17   1 H    0.987 --     7 C    0.953
    18   1 H    0.991 --    10 C    0.945
    19   1 H    0.992 --    10 C    0.949
    20   1 H    0.989 --    10 C    0.974
 ---------------------------------------------------------------------------

molecular dipole:
                 x           y           z       tot (Debye)
 q only:       -0.570       0.980       0.173
   full:       -0.763       1.130       0.169       3.492

           -------------------------------------------------
          | TOTAL ENERGY              -28.786382570798 Eh   |
          | GRADIENT NORM               0.000417890698 Eh/α |
          | HOMO-LUMO GAP               1.780002779501 eV   |
           -------------------------------------------------

 * finished run on 2024/12/20 at 06:49:49.077
