   * xtb version 6.7.1 (edcfbbe) compiled by 'conda@3ef47c1a292c' on 2024-11-25

   ID    Z sym.   atoms
    1    6 C      1-5, 9
    2    8 O      6, 7
    3    7 N      8
    4    1 H      10-23

          program call               : xtb C0590.xyz --opt --namespace C0590 --charge +1
          :  Hamiltonian                  GFN2-xTB          :
 * total energy  :   -30.6169432 Eh     change       -0.4189395E-09 Eh
 * total energy  :   -30.6217358 Eh     change       -0.4792676E-02 Eh
 * total energy  :   -30.6230099 Eh     change       -0.1274071E-02 Eh
 * total energy  :   -30.6234627 Eh     change       -0.4528285E-03 Eh
 * total energy  :   -30.6237540 Eh     change       -0.2912993E-03 Eh
 * total energy  :   -30.6240520 Eh     change       -0.2979901E-03 Eh
 * total energy  :   -30.6243464 Eh     change       -0.2943988E-03 Eh
 * total energy  :   -30.6248194 Eh     change       -0.4729458E-03 Eh
 * total energy  :   -30.6252302 Eh     change       -0.4108429E-03 Eh
 * total energy  :   -30.6255022 Eh     change       -0.2720316E-03 Eh
 * total energy  :   -30.6265504 Eh     change       -0.1087076E-03 Eh
 * total energy  :   -30.6266905 Eh     change       -0.1400897E-03 Eh
 * total energy  :   -30.6267479 Eh     change       -0.5735427E-04 Eh
 * total energy  :   -30.6267900 Eh     change       -0.4217543E-04 Eh
 * total energy  :   -30.6268120 Eh     change       -0.2192058E-04 Eh
 * total energy  :   -30.6268299 Eh     change       -0.1791260E-04 Eh
 * total energy  :   -30.6268402 Eh     change       -0.1028037E-04 Eh
 * total energy  :   -30.6268465 Eh     change       -0.6335464E-05 Eh
 * total energy  :   -30.6268501 Eh     change       -0.3591129E-05 Eh
   *** GEOMETRY OPTIMIZATION CONVERGED AFTER 24 ITERATIONS ***

 final structure:
================
23
 xtb: 6.7.1 (edcfbbe)
C            1.24081185706722        0.14657128442722        0.15217370880632
C            0.62349318447385        0.36956523354667       -1.22336365103227
C            0.97998830420636       -0.71668370981568       -2.24664908026609
C            0.42242918978573       -2.09651957022638       -1.83289123335011
C           -1.09306347701292       -2.23943918258931       -2.07362183164992
O           -1.46834072434337       -3.05111047214825       -2.88780248805809
O           -1.84002843761622       -1.46932944536839       -1.34268870133684
N            1.01051628879588       -3.18316892907039       -2.66763198358035
C            0.49548828095754       -0.32428638194459       -3.64196492693520
H            0.78869277380237       -0.69439991360310        0.67307288052239
H            1.08061467039348        1.02807145300082        0.76530696975705
H            2.31333330437462       -0.01773668891335        0.07779864266492
H           -0.45861490719981        0.45177448193177       -1.13038010802862
H            0.99142568755469        1.31616787287135       -1.61966452881730
H            2.07266536430045       -0.81075783567723       -2.25590147918719
H            0.63076929050411       -2.26330703947017       -0.77380154532745
H           -2.79317632033468       -1.58461704551710       -1.50960098512219
H            1.67641742752248       -2.81466683978667       -3.35573487252347
H            1.45675915609428       -3.92997122461696       -2.12874053942219
H            0.14578363546365       -3.56465650297474       -3.16900284195012
H            0.99956290737222        0.58380759458590       -3.95984521493526
H            0.69524839758376       -1.08882862767615       -4.39075988132265
H           -0.57281585374485       -0.12231851096561       -3.63736630890501

          :  Hamiltonian                  GFN2-xTB          :
         :: total energy             -30.626850087030 Eh    ::
         :: gradient norm              0.000622024125 Eh/a0 ::
         :: HOMO-LUMO gap              4.042073443513 eV    ::
         :: SCC energy               -30.984711042773 Eh    ::
         :: -> dispersion             -0.015342902718 Eh    ::
         :: repulsion energy           0.357860955743 Eh    ::

    * Orbital Energies and Occupations

         #    Occupation            Energy/Eh            Energy/eV
      -------------------------------------------------------------
         1        2.0000           -0.9237504             -25.1365
       ...           ...                  ...                  ...
        15        2.0000           -0.6948128             -18.9068
        16        2.0000           -0.6770683             -18.4240
        17        2.0000           -0.6667782             -18.1440
        18        2.0000           -0.6524983             -17.7554
        19        2.0000           -0.6433750             -17.5071
        20        2.0000           -0.6311253             -17.1738
        21        2.0000           -0.6199685             -16.8702
        22        2.0000           -0.6128980             -16.6778
        23        2.0000           -0.6055838             -16.4788
        24        2.0000           -0.5913201             -16.0906
        25        2.0000           -0.5797786             -15.7766
        26        2.0000           -0.5670695             -15.4307
        27        2.0000           -0.5603734             -15.2485 (HOMO)
        28                         -0.4118299             -11.2065 (LUMO)
        29                         -0.2510655              -6.8318
        30                         -0.1627354              -4.4283
        31                         -0.1481238              -4.0307
        32                         -0.1165966              -3.1728
        33                         -0.0869708              -2.3666
        34                         -0.0697618              -1.8983
        35                         -0.0458334              -1.2472
        36                         -0.0340296              -0.9260
        37                         -0.0081519              -0.2218
        38                          0.0020644               0.0562
       ...                                ...                  ...
        50                          0.4531382              12.3305
      -------------------------------------------------------------
                  HL-Gap            0.1485435 Eh            4.0421 eV

     #   Z          covCN         q      C6AA      α(0)
     1   6 C        3.751    -0.120    22.863     6.819
     2   6 C        3.803    -0.074    21.921     6.666
     3   6 C        3.849    -0.025    20.980     6.515
     4   6 C        3.781    -0.012    20.813     6.499
     5   6 C        2.693     0.361    20.875     7.478
     6   8 O        0.857    -0.394    21.567     6.226
     7   8 O        1.659    -0.306    19.113     5.902
     8   7 N        3.487    -0.166    24.579     7.363
     9   6 C        3.754    -0.130    23.062     6.848
    10   1 H        0.925     0.038     2.482     2.464
    11   1 H        0.925     0.068     2.107     2.270
    12   1 H        0.925     0.048     2.345     2.395
    13   1 H        0.925     0.063     2.160     2.299
    14   1 H        0.925     0.072     2.060     2.244
    15   1 H        0.924     0.063     2.166     2.302
    16   1 H        0.924     0.123     1.588     1.971
    17   1 H        0.804     0.372     0.539     1.154
    18   1 H        0.859     0.271     0.807     1.407
    19   1 H        0.859     0.265     0.829     1.427
    20   1 H        0.854     0.307     0.694     1.305
    21   1 H        0.925     0.077     2.008     2.216
    22   1 H        0.925     0.042     2.417     2.431
    23   1 H        0.925     0.058     2.221     2.331

Wiberg/Mayer (AO) data.
largest (>0.10) Wiberg bond orders for each atom

     #   Z sym  total        # sym  WBO       # sym  WBO       # sym  WBO
 ---------------------------------------------------------------------------
     1   6 C    3.992 --     2 C    1.020    12 H    0.986    10 H    0.982
                            11 H    0.982
     2   6 C    3.986 --     1 C    1.020     3 C    0.989    13 H    0.971
                            14 H    0.968
     3   6 C    3.972 --     9 C    1.009     2 C    0.989    15 H    0.958
                             4 C    0.955
     4   6 C    3.910 --     3 C    0.955     8 N    0.944     5 C    0.939
                            16 H    0.938
     5   6 C    3.927 --     6 O    1.702     7 O    1.242     4 C    0.939
     6   8 O    2.101 --     5 C    1.702     7 O    0.185
     7   8 O    2.298 --     5 C    1.242    17 H    0.834     6 O    0.185
     8   7 N    3.647 --     4 C    0.944    19 H    0.918    18 H    0.905
                            20 H    0.809
     9   6 C    3.988 --     3 C    1.009    23 H    0.982    22 H    0.981
                            21 H    0.980
    10   1 H    0.999 --     1 C    0.982
    11   1 H    0.995 --     1 C    0.982
    12   1 H    0.998 --     1 C    0.986
    13   1 H    0.996 --     2 C    0.971
    14   1 H    0.995 --     2 C    0.968
    15   1 H    0.996 --     3 C    0.958
    16   1 H    0.985 --     4 C    0.938
    17   1 H    0.862 --     7 O    0.834
    18   1 H    0.927 --     8 N    0.905
    19   1 H    0.930 --     8 N    0.918
    20   1 H    0.906 --     8 N    0.809
    21   1 H    0.994 --     9 C    0.980
    22   1 H    0.998 --     9 C    0.981
    23   1 H    0.997 --     9 C    0.982
 ---------------------------------------------------------------------------

molecular dipole:
                 x           y           z       tot (Debye)
 q only:        1.273      -4.238      -4.128
   full:        1.251      -4.449      -4.176      15.833

           -------------------------------------------------
          | TOTAL ENERGY              -30.626850087030 Eh   |
          | GRADIENT NORM               0.000622024125 Eh/α |
          | HOMO-LUMO GAP               4.042073443513 eV   |
           -------------------------------------------------

 * finished run on 2024/12/20 at 06:49:39.717
