   * xtb version 6.7.1 (edcfbbe) compiled by 'conda@3ef47c1a292c' on 2024-11-25

   ID    Z sym.   atoms
    1    6 C      1, 3-9, 11, 13, 14, 16-24
    2    8 O      2, 10
    3    7 N      12, 15
    4    1 H      25-45

          program call               : xtb C0596.xyz --opt --namespace C0596 --charge +1
          :  Hamiltonian                  GFN2-xTB          :
 * total energy  :   -67.1232073 Eh     change       -0.1423388E-08 Eh
 * total energy  :   -67.1322929 Eh     change       -0.9085639E-02 Eh
 * total energy  :   -67.1345156 Eh     change       -0.2222715E-02 Eh
 * total energy  :   -67.1348142 Eh     change       -0.2985649E-03 Eh
 * total energy  :   -67.1349467 Eh     change       -0.1325208E-03 Eh
 * total energy  :   -67.1349995 Eh     change       -0.5280007E-04 Eh
 * total energy  :   -67.1350527 Eh     change       -0.5317852E-04 Eh
 * total energy  :   -67.1350884 Eh     change       -0.3575620E-04 Eh
 * total energy  :   -67.1351210 Eh     change       -0.3259786E-04 Eh
 * total energy  :   -67.1351398 Eh     change       -0.1877335E-04 Eh
 * total energy  :   -67.1437189 Eh     change       -0.1525912E-04 Eh
 * total energy  :   -67.1437344 Eh     change       -0.1551209E-04 Eh
 * total energy  :   -67.1437414 Eh     change       -0.6970032E-05 Eh
 * total energy  :   -67.1437501 Eh     change       -0.8709719E-05 Eh
 * total energy  :   -67.1437612 Eh     change       -0.1107754E-04 Eh
 * total energy  :   -67.1437693 Eh     change       -0.8066062E-05 Eh
 * total energy  :   -67.1437769 Eh     change       -0.7659694E-05 Eh
 * total energy  :   -67.1437826 Eh     change       -0.5630948E-05 Eh
 * total energy  :   -67.1437868 Eh     change       -0.4213249E-05 Eh
   *** GEOMETRY OPTIMIZATION CONVERGED AFTER 153 ITERATIONS ***

 final structure:
================
45
 xtb: 6.7.1 (edcfbbe)
C            0.26601980942718        2.21994719403098        2.47498962514994
O           -0.42542238461652        1.00513734072448        2.68627353925807
C            0.24586701041180       -0.14760884770120        2.72667647789722
C           -0.52537855602281       -1.30306818709068        2.93765668522956
C            0.07034532763448       -2.53344762601832        2.99654467408108
C            1.46211431083800       -2.67374343554827        2.84410499520595
C            2.22599964582317       -1.51986232411025        2.63435313704824
C            1.63258639112363       -0.27894585957680        2.57798528406409
C            2.01451185274912       -4.01122682555249        2.92230122733973
O            1.37600020991344       -5.01458949591265        3.16168327417589
C            3.54779980684608       -4.16040865119974        2.69225599667407
N            3.86794007855486       -5.55904636175155        2.65273899042938
C            4.14385576289242       -6.26486977779846        1.51489233090866
C            4.17465709321967       -7.57716943930595        1.85095379363715
N            3.90240178627992       -7.66013814202067        3.18712944211158
C            3.70784028798276       -6.42577301871364        3.66367006876874
C            3.40233302416990       -6.08094552847575        5.06696309951373
C            3.82238487980768       -8.91556694606086        3.90928588330432
C            4.97171947577273       -9.81869977507609        3.53058246162821
C            4.74056726039646      -11.04925935508092        2.93260029226635
C            5.80399530724744      -11.86679342154452        2.58884043268373
C            7.10297525743873      -11.45509274177517        2.83154234707774
C            7.33928596573720      -10.22526086674835        3.42412112126528
C            6.27815050082528       -9.41058577550099        3.77457143814641
H           -0.49803409020083        2.99473148193890        2.48182608833669
H            0.77760450062478        2.22396651753316        1.50891303553695
H            0.98487641489094        2.41308502346273        3.27573449726240
H           -1.59123452230078       -1.18880643674014        3.05059116784570
H           -0.51797812856184       -3.42356792179712        3.15742948796219
H            3.29737395280363       -1.57750076326742        2.51912272807986
H            2.25029394806917        0.59018492866285        2.41779137099036
H            3.83246388442409       -3.70897522700163        1.74192953915131
H            4.08320730507075       -3.66157159846432        3.50389542385779
H            4.29579071353584       -5.78913034044731        0.56845461553025
H            4.36808629683844       -8.44570621563284        1.25643696028689
H            2.33869831806790       -6.22394978522669        5.26213727916177
H            3.96690125589544       -6.70727810421847        5.75465203159489
H            3.64004950023621       -5.04080629596353        5.27049749654670
H            3.83935296632600       -8.70710708250187        4.98078377127492
H            2.86918910795041       -9.39644250948055        3.66939989259120
H            3.72809297763416      -11.37424360292161        2.74250040643141
H            5.61563260186974      -12.82497731143309        2.13022897886274
H            7.93089071838000      -12.09184168509858        2.56238548305050
H            8.35036535644134       -9.90283180097571        3.61845742422290
H            6.46572681757707       -8.45433340248506        4.24344570374035

          :  Hamiltonian                  GFN2-xTB          :
         :: total energy             -67.143786770034 Eh    ::
         :: gradient norm              0.000593011576 Eh/a0 ::
         :: HOMO-LUMO gap              2.678281844178 eV    ::
         :: SCC energy               -68.204376841878 Eh    ::
         :: -> dispersion             -0.045596231947 Eh    ::
         :: repulsion energy           1.060590071844 Eh    ::

    * Orbital Energies and Occupations

         #    Occupation            Energy/Eh            Energy/eV
      -------------------------------------------------------------
         1        2.0000           -0.8649109             -23.5354
       ...           ...                  ...                  ...
        49        2.0000           -0.5718858             -15.5618
        50        2.0000           -0.5685262             -15.4704
        51        2.0000           -0.5532694             -15.0552
        52        2.0000           -0.5530143             -15.0483
        53        2.0000           -0.5485617             -14.9271
        54        2.0000           -0.5275186             -14.3545
        55        2.0000           -0.5256498             -14.3037
        56        2.0000           -0.5229645             -14.2306
        57        2.0000           -0.5169492             -14.0669
        58        2.0000           -0.5146437             -14.0042
        59        2.0000           -0.5072001             -13.8016
        60        2.0000           -0.5060864             -13.7713
        61        2.0000           -0.4889147             -13.3040 (HOMO)
        62                         -0.3904897             -10.6258 (LUMO)
        63                         -0.3727107             -10.1420
        64                         -0.3417654              -9.2999
        65                         -0.3312442              -9.0136
        66                         -0.3309658              -9.0060
        67                         -0.3251142              -8.8468
        68                         -0.2941884              -8.0053
        69                         -0.2023759              -5.5069
        70                         -0.1908876              -5.1943
        71                         -0.1537678              -4.1842
        72                         -0.1062605              -2.8915
       ...                                ...                  ...
       117                          0.5659431              15.4001
      -------------------------------------------------------------
                  HL-Gap            0.0984250 Eh            2.6783 eV

     #   Z          covCN         q      C6AA      α(0)
     1   6 C        3.644     0.022    20.542     6.515
     2   8 O        1.706    -0.223    17.693     5.679
     3   6 C        2.865     0.168    24.378     8.093
     4   6 C        2.916    -0.048    29.180     8.858
     5   6 C        2.925    -0.012    28.316     8.727
     6   6 C        2.969    -0.033    28.821     8.806
     7   6 C        2.918    -0.029    28.721     8.788
     8   6 C        2.914    -0.062    29.530     8.911
     9   6 C        2.822     0.222    23.322     7.913
    10   8 O        0.857    -0.378    21.244     6.180
    11   6 C        3.742    -0.045    21.449     6.607
    12   7 N        2.875     0.047    20.423     6.712
    13   6 C        3.049    -0.010    28.215     8.712
    14   6 C        3.048    -0.006    28.118     8.697
    15   7 N        2.876     0.041    20.525     6.729
    16   6 C        3.096     0.118    25.287     8.241
    17   6 C        3.754    -0.129    23.027     6.842
    18   6 C        3.747    -0.024    21.074     6.548
    19   6 C        2.972    -0.001    28.054     8.688
    20   6 C        2.923    -0.035    28.881     8.813
    21   6 C        2.919    -0.022    28.560     8.764
    22   6 C        2.920    -0.022    28.545     8.762
    23   6 C        2.919    -0.024    28.598     8.769
    24   6 C        2.923    -0.037    28.928     8.820
    25   1 H        0.925     0.085     1.927     2.171
    26   1 H        0.924     0.058     2.226     2.333
    27   1 H        0.924     0.058     2.228     2.334
    28   1 H        0.926     0.077     2.014     2.219
    29   1 H        0.926     0.078     2.005     2.214
    30   1 H        0.926     0.042     2.424     2.435
    31   1 H        0.926     0.058     2.225     2.333
    32   1 H        0.925     0.093     1.846     2.125
    33   1 H        0.924     0.088     1.902     2.157
    34   1 H        0.927     0.094     1.840     2.121
    35   1 H        0.927     0.099     1.791     2.093
    36   1 H        0.924     0.115     1.651     2.009
    37   1 H        0.925     0.088     1.903     2.157
    38   1 H        0.925     0.085     1.927     2.171
    39   1 H        0.924     0.082     1.963     2.191
    40   1 H        0.924     0.087     1.910     2.161
    41   1 H        0.926     0.044     2.400     2.423
    42   1 H        0.926     0.055     2.253     2.347
    43   1 H        0.926     0.056     2.247     2.344
    44   1 H        0.926     0.051     2.307     2.375
    45   1 H        0.925     0.028     2.612     2.528

Wiberg/Mayer (AO) data.
largest (>0.10) Wiberg bond orders for each atom

     #   Z sym  total        # sym  WBO       # sym  WBO       # sym  WBO
 ---------------------------------------------------------------------------
     1   6 C    3.927 --    25 H    0.977    26 H    0.975    27 H    0.975
                             2 O    0.968
     2   8 O    2.301 --     3 C    1.144     1 C    0.968
     3   6 C    3.938 --     8 C    1.320     4 C    1.301     2 O    1.144
     4   6 C    3.986 --     5 C    1.531     3 C    1.301    28 H    0.964
     5   6 C    3.984 --     4 C    1.531     6 C    1.307    29 H    0.963
     6   6 C    3.981 --     7 C    1.341     5 C    1.307     9 C    1.110
     7   6 C    3.991 --     8 C    1.500     6 C    1.341    30 H    0.966
     8   6 C    3.988 --     7 C    1.500     3 C    1.320    31 H    0.964
     9   6 C    3.926 --    10 O    1.775     6 C    1.110    11 C    0.920
    10   8 O    2.058 --     9 C    1.775
    11   6 C    3.948 --    12 N    0.993    32 H    0.957    33 H    0.946
                             9 C    0.920
    12   7 N    3.686 --    16 C    1.311    13 C    1.198    11 C    0.993
    13   6 C    3.948 --    14 C    1.618    12 N    1.198    34 H    0.963
    14   6 C    3.951 --    13 C    1.618    15 N    1.206    35 H    0.962
    15   7 N    3.691 --    16 C    1.331    14 C    1.206    18 C    0.962
    16   6 C    3.950 --    15 N    1.331    12 N    1.311    17 C    1.047
    17   6 C    3.979 --    16 C    1.047    38 H    0.969    37 H    0.960
                            36 H    0.941
    18   6 C    3.941 --    19 C    0.991    15 N    0.962    39 H    0.955
                            40 H    0.953
    19   6 C    3.980 --    20 C    1.419    24 C    1.409    18 C    0.991
                            22 C    0.109
    20   6 C    3.990 --    21 C    1.438    19 C    1.419    41 H    0.968
                            23 C    0.110
    21   6 C    3.990 --    22 C    1.444    20 C    1.438    42 H    0.969
                            24 C    0.112
    22   6 C    3.990 --    21 C    1.444    23 C    1.435    43 H    0.969
                            19 C    0.109
    23   6 C    3.991 --    24 C    1.449    22 C    1.435    44 H    0.970
                            20 C    0.110
    24   6 C    3.992 --    23 C    1.449    19 C    1.409    45 H    0.970
                            21 C    0.112
    25   1 H    0.992 --     1 C    0.977
    26   1 H    0.995 --     1 C    0.975
    27   1 H    0.995 --     1 C    0.975
    28   1 H    0.993 --     4 C    0.964
    29   1 H    0.993 --     5 C    0.963
    30   1 H    0.998 --     7 C    0.966
    31   1 H    0.996 --     8 C    0.964
    32   1 H    0.991 --    11 C    0.957
    33   1 H    0.991 --    11 C    0.946
    34   1 H    0.991 --    13 C    0.963
    35   1 H    0.989 --    14 C    0.962
    36   1 H    0.987 --    17 C    0.941
    37   1 H    0.992 --    17 C    0.960
    38   1 H    0.992 --    17 C    0.969
    39   1 H    0.993 --    18 C    0.955
    40   1 H    0.992 --    18 C    0.953
    41   1 H    0.998 --    20 C    0.968
    42   1 H    0.997 --    21 C    0.969
    43   1 H    0.996 --    22 C    0.969
    44   1 H    0.997 --    23 C    0.970
    45   1 H    0.999 --    24 C    0.970
 ---------------------------------------------------------------------------

molecular dipole:
                 x           y           z       tot (Debye)
 q only:        7.137     -10.008       5.747
   full:        7.377      -9.752       5.680      34.270

           -------------------------------------------------
          | TOTAL ENERGY              -67.143786770034 Eh   |
          | GRADIENT NORM               0.000593011576 Eh/α |
          | HOMO-LUMO GAP               2.678281844178 eV   |
           -------------------------------------------------

 * finished run on 2024/12/20 at 06:49:53.470
