   * xtb version 6.7.1 (edcfbbe) compiled by 'conda@3ef47c1a292c' on 2024-11-25

   ID    Z sym.   atoms
    1    6 C      1-3, 5, 7, 8, 10
    2    7 N      4, 6
    3   17 Cl     9
    4    1 H      11-20

          program call               : xtb C0591.xyz --opt --namespace C0591 --charge +1
          :  Hamiltonian                  GFN2-xTB          :
 * total energy  :   -30.0685481 Eh     change       -0.6952092E-09 Eh
 * total energy  :   -30.0723990 Eh     change       -0.3850916E-02 Eh
 * total energy  :   -30.0733030 Eh     change       -0.9039710E-03 Eh
 * total energy  :   -30.0734543 Eh     change       -0.1513252E-03 Eh
 * total energy  :   -30.0735410 Eh     change       -0.8663125E-04 Eh
 * total energy  :   -30.0735624 Eh     change       -0.2141621E-04 Eh
 * total energy  :   -30.0735864 Eh     change       -0.2401470E-04 Eh
 * total energy  :   -30.0736066 Eh     change       -0.2016401E-04 Eh
 * total energy  :   -30.0736529 Eh     change       -0.4636688E-04 Eh
 * total energy  :   -30.0736915 Eh     change       -0.3858967E-04 Eh
 * total energy  :   -30.0737165 Eh     change       -0.2500721E-04 Eh
 * total energy  :   -30.0737396 Eh     change       -0.2307357E-04 Eh
 * total energy  :   -30.0737506 Eh     change       -0.1103419E-04 Eh
 * total energy  :   -30.0737529 Eh     change       -0.2235378E-05 Eh
 * total energy  :   -30.0737580 Eh     change       -0.5172571E-05 Eh
 * total energy  :   -30.0737598 Eh     change       -0.1719115E-05 Eh
   *** GEOMETRY OPTIMIZATION CONVERGED AFTER 16 ITERATIONS ***

 final structure:
================
20
 xtb: 6.7.1 (edcfbbe)
C            0.73129027413502       -0.08917361134704        0.21616867867287
C            0.28332884829899        0.99019374165421       -0.39310955510054
C           -1.14828045501385        1.16418923736498       -0.83268946766560
N           -1.69730039607248        2.39682557681915       -0.30298897066395
C           -2.31329111175648        2.54332071999559        0.86451419683912
N           -2.61105228261811        3.82919165131766        1.05636323556549
C           -2.16050080396008        4.53111863312203       -0.03336292081659
C           -1.58300300133405        3.62316846224368       -0.88347799131393
Cl          -2.35671749509829        6.20903669800809       -0.16666811770829
C           -3.28990261574047        4.40451890029717        2.18548489806538
H            0.09225165139762       -0.92589226032916        0.44471517255518
H            1.76560688603836       -0.18976671197076        0.49236662247186
H            0.93893655510289        1.81600765477206       -0.62835289307938
H           -1.19748665821097        1.21376658743426       -1.92397614441226
H           -1.75508829927803        0.32566955062609       -0.48661971665173
H           -2.53913492177070        1.74806034509108        1.54889275548585
H           -1.12013609462073        3.77803955620335       -1.83674870072529
H           -4.23965464267769        4.83745005626296        1.86847113645194
H           -3.47392595911182        3.63847674526094        2.93448341494172
H           -2.67922947770919        5.19726846717368        2.61809436708793

          :  Hamiltonian                  GFN2-xTB          :
         :: total energy             -30.073759758178 Eh    ::
         :: gradient norm              0.000617801712 Eh/a0 ::
         :: HOMO-LUMO gap              3.730850926694 eV    ::
         :: SCC energy               -30.486094039308 Eh    ::
         :: -> dispersion             -0.015375983184 Eh    ::
         :: repulsion energy           0.412334281130 Eh    ::

    * Orbital Energies and Occupations

         #    Occupation            Energy/Eh            Energy/eV
      -------------------------------------------------------------
         1        2.0000           -1.2096499             -32.9162
       ...           ...                  ...                  ...
        15        2.0000           -0.6854090             -18.6509
        16        2.0000           -0.6779210             -18.4472
        17        2.0000           -0.6708508             -18.2548
        18        2.0000           -0.6557443             -17.8437
        19        2.0000           -0.6442004             -17.5296
        20        2.0000           -0.6415680             -17.4580
        21        2.0000           -0.6284463             -17.1009
        22        2.0000           -0.6127100             -16.6727
        23        2.0000           -0.6006906             -16.3456
        24        2.0000           -0.5839369             -15.8897
        25        2.0000           -0.5729548             -15.5909
        26        2.0000           -0.5629212             -15.3179
        27        2.0000           -0.5528475             -15.0437 (HOMO)
        28                         -0.4157412             -11.3129 (LUMO)
        29                         -0.3821528             -10.3989
        30                         -0.3497753              -9.5179
        31                         -0.2920873              -7.9481
        32                         -0.1934414              -5.2638
        33                         -0.1499429              -4.0802
        34                         -0.1408656              -3.8331
        35                         -0.1407575              -3.8302
        36                         -0.1271972              -3.4612
        37                         -0.1247647              -3.3950
        38                         -0.0634713              -1.7271
       ...                                ...                  ...
        55                          0.4843640              13.1802
      -------------------------------------------------------------
                  HL-Gap            0.1371062 Eh            3.7309 eV

     #   Z          covCN         q      C6AA      α(0)
     1   6 C        2.837    -0.078    29.941     8.967
     2   6 C        2.887    -0.041    29.022     8.832
     3   6 C        3.746    -0.031    21.195     6.567
     4   7 N        2.863     0.076    19.911     6.627
     5   6 C        3.081     0.040    27.020     8.522
     6   7 N        2.879     0.066    20.081     6.656
     7   6 C        3.020     0.123    25.285     8.248
     8   6 C        3.073    -0.027    28.602     8.769
     9  17 Cl       0.929    -0.044   100.523    15.339
    10   6 C        3.691    -0.091    22.429     6.777
    11   1 H        0.926     0.069     2.091     2.261
    12   1 H        0.926     0.084     1.935     2.176
    13   1 H        0.926     0.062     2.171     2.304
    14   1 H        0.924     0.103     1.757     2.073
    15   1 H        0.924     0.096     1.819     2.109
    16   1 H        0.926     0.127     1.561     1.954
    17   1 H        0.926     0.126     1.567     1.957
    18   1 H        0.924     0.116     1.650     2.009
    19   1 H        0.925     0.107     1.723     2.053
    20   1 H        0.925     0.116     1.643     2.004

Wiberg/Mayer (AO) data.
largest (>0.10) Wiberg bond orders for each atom

     #   Z sym  total        # sym  WBO       # sym  WBO       # sym  WBO
 ---------------------------------------------------------------------------
     1   6 C    3.982 --     2 C    1.989    11 H    0.971    12 H    0.969
     2   6 C    3.978 --     1 C    1.989     3 C    0.990    13 H    0.963
     3   6 C    3.928 --     2 C    0.990    15 H    0.961     4 N    0.956
                            14 H    0.951
     4   7 N    3.720 --     5 C    1.368     8 C    1.226     3 C    0.956
     5   6 C    3.940 --     4 N    1.368     6 N    1.339    16 H    0.950
     6   7 N    3.707 --     5 C    1.339     7 C    1.192    10 C    0.986
     7   6 C    3.920 --     8 C    1.510     6 N    1.192     9 Cl   1.064
     8   6 C    3.941 --     7 C    1.510     4 N    1.226    17 H    0.957
     9  17 Cl   1.243 --     7 C    1.064
    10   6 C    3.924 --     6 N    0.986    19 H    0.974    20 H    0.960
                            18 H    0.958
    11   1 H    0.995 --     1 C    0.971
    12   1 H    0.992 --     1 C    0.969
    13   1 H    0.996 --     2 C    0.963
    14   1 H    0.989 --     3 C    0.951
    15   1 H    0.990 --     3 C    0.961
    16   1 H    0.984 --     5 C    0.950
    17   1 H    0.984 --     8 C    0.957
    18   1 H    0.986 --    10 C    0.958
    19   1 H    0.988 --    10 C    0.974
    20   1 H    0.986 --    10 C    0.960
 ---------------------------------------------------------------------------

molecular dipole:
                 x           y           z       tot (Debye)
 q only:       -3.709       5.089       0.988
   full:       -3.802       5.625       0.823      17.384

           -------------------------------------------------
          | TOTAL ENERGY              -30.073759758178 Eh   |
          | GRADIENT NORM               0.000617801712 Eh/α |
          | HOMO-LUMO GAP               3.730850926694 eV   |
           -------------------------------------------------

 * finished run on 2024/12/20 at 06:49:40.155
