   * xtb version 6.7.1 (edcfbbe) compiled by 'conda@3ef47c1a292c' on 2024-11-25

   ID    Z sym.   atoms
    1    6 C      1-4, 6, 8-14
    2    7 N      5
    3   16 S      7
    4    1 H      15-38

          program call               : xtb C0594.xyz --opt --namespace C0594 --charge +1
          :  Hamiltonian                  GFN2-xTB          :
 * total energy  :   -43.7237026 Eh     change       -0.3766587E-10 Eh
 * total energy  :   -43.7298314 Eh     change       -0.6128759E-02 Eh
 * total energy  :   -43.7315581 Eh     change       -0.1726770E-02 Eh
 * total energy  :   -43.7319775 Eh     change       -0.4193288E-03 Eh
 * total energy  :   -43.7323527 Eh     change       -0.3751936E-03 Eh
 * total energy  :   -43.7326088 Eh     change       -0.2561604E-03 Eh
 * total energy  :   -43.7328536 Eh     change       -0.2447444E-03 Eh
 * total energy  :   -43.7330473 Eh     change       -0.1937457E-03 Eh
 * total energy  :   -43.7331700 Eh     change       -0.1227274E-03 Eh
 * total energy  :   -43.7332558 Eh     change       -0.8580431E-04 Eh
 * total energy  :   -43.7358712 Eh     change       -0.4600320E-04 Eh
 * total energy  :   -43.7359162 Eh     change       -0.4502523E-04 Eh
 * total energy  :   -43.7359375 Eh     change       -0.2129857E-04 Eh
 * total energy  :   -43.7359614 Eh     change       -0.2381995E-04 Eh
 * total energy  :   -43.7359833 Eh     change       -0.2189900E-04 Eh
 * total energy  :   -43.7359952 Eh     change       -0.1193001E-04 Eh
 * total energy  :   -43.7360043 Eh     change       -0.9117039E-05 Eh
 * total energy  :   -43.7360111 Eh     change       -0.6778297E-05 Eh
 * total energy  :   -43.7360144 Eh     change       -0.3363675E-05 Eh
   *** GEOMETRY OPTIMIZATION CONVERGED AFTER 39 ITERATIONS ***

 final structure:
================
38
 xtb: 6.7.1 (edcfbbe)
C            3.17546119083366       -0.48103816350146       -1.48660095706606
C            2.20036169221194        0.68972020325168       -1.46482709646163
C            0.95350051504085        0.45311622869753       -2.32082101298026
C            0.13447827451916       -0.72980604371918       -1.79209337626849
N           -1.20659434801492       -0.83362972842048       -2.33395137022069
C           -2.32509130883807       -0.62861920219207       -1.68785405052333
S           -3.71950722209035       -1.19780768771901       -2.49632313243455
C           -2.69911095773136       -2.03854746011481       -3.75773558741168
C           -1.37999375670426       -1.27811298199995       -3.72450587583477
C           -1.42045889664555       -0.07079052555855       -4.67757515008333
C           -1.23813012572226       -0.49488142863843       -6.13023561954338
C           -2.54321118800805       -0.00252808308059       -0.34616100779787
C           -2.24998978528205       -1.00932814610633        0.77718278800788
C           -1.79990610360975        1.32039970307401       -0.14617394533820
H            2.76594548077121       -1.35358303103998       -0.98399957192417
H            4.09320309731446       -0.20538004341573       -0.97583848301532
H            3.42810340256831       -0.75163401968359       -2.50858613920652
H            1.90674460530086        0.90194477900796       -0.43467938222572
H            2.70467685757223        1.57700820660114       -1.84913734592995
H            0.33910967471789        1.35508312260743       -2.30544146101325
H            1.26865027107604        0.26275112439002       -3.34726137635925
H            0.64946234199331       -1.66245831270204       -2.03842614202439
H            0.06418770869961       -0.65921550759791       -0.70875052286790
H           -3.19554597518966       -1.97400786627156       -4.72167153300988
H           -2.60703964269019       -3.08541222433789       -3.46685645719122
H           -0.54377297103506       -1.92940742918954       -3.99177098806997
H           -2.37351072342999        0.44857579036467       -4.55680684208394
H           -0.62929235982676        0.62963428712086       -4.41707044497702
H           -2.01743199658066       -1.17886979411316       -6.45403129371716
H           -1.27349863006081        0.37999592549531       -6.77212074230735
H           -0.27622563955989       -0.98048387723063       -6.27183284143292
H           -3.61732837368184        0.21229366165319       -0.30342792734235
H           -1.19457379918749       -1.25558505014860        0.84588750487624
H           -2.55582299292414       -0.57373853011858        1.72373808956331
H           -2.81305821113413       -1.92690666138666        0.62778375339094
H           -1.94424450019269        1.97603508376967       -1.00091298795885
H           -2.20930844290642        1.81773512598461        0.72842299341417
H           -0.73687716156421        1.18448855626796        0.01975553536597

          :  Hamiltonian                  GFN2-xTB          :
         :: total energy             -43.736014444899 Eh    ::
         :: gradient norm              0.000729559730 Eh/a0 ::
         :: HOMO-LUMO gap              2.759030130302 eV    ::
         :: SCC energy               -44.345195979724 Eh    ::
         :: -> dispersion             -0.033104597660 Eh    ::
         :: repulsion energy           0.609181534825 Eh    ::

    * Orbital Energies and Occupations

         #    Occupation            Energy/Eh            Energy/eV
      -------------------------------------------------------------
         1        2.0000           -0.8985845             -24.4517
       ...           ...                  ...                  ...
        29        2.0000           -0.6029830             -16.4080
        30        2.0000           -0.5992628             -16.3068
        31        2.0000           -0.5967681             -16.2389
        32        2.0000           -0.5886523             -16.0180
        33        2.0000           -0.5870496             -15.9744
        34        2.0000           -0.5851963             -15.9240
        35        2.0000           -0.5779407             -15.7266
        36        2.0000           -0.5727722             -15.5859
        37        2.0000           -0.5679130             -15.4537
        38        2.0000           -0.5592612             -15.2183
        39        2.0000           -0.5507902             -14.9878
        40        2.0000           -0.5460326             -14.8583
        41        2.0000           -0.5383753             -14.6499 (HOMO)
        42                         -0.4369828             -11.8909 (LUMO)
        43                         -0.3765380             -10.2461
        44                         -0.2879527              -7.8356
        45                         -0.1986316              -5.4050
        46                         -0.1686180              -4.5883
        47                         -0.1627099              -4.4276
        48                         -0.1308440              -3.5604
        49                         -0.1096301              -2.9832
        50                         -0.0730977              -1.9891
        51                         -0.0619857              -1.6867
        52                         -0.0571006              -1.5538
       ...                                ...                  ...
        85                          0.3840302              10.4500
      -------------------------------------------------------------
                  HL-Gap            0.1013925 Eh            2.7590 eV

     #   Z          covCN         q      C6AA      α(0)
     1   6 C        3.752    -0.114    22.752     6.802
     2   6 C        3.801    -0.060    21.659     6.626
     3   6 C        3.800    -0.067    21.786     6.645
     4   6 C        3.743    -0.020    20.999     6.537
     5   7 N        2.860     0.004    21.187     6.836
     6   6 C        2.914     0.105    25.681     8.310
     7  16 S        2.216     0.072   138.148    19.782
     8   6 C        3.805    -0.046    21.389     6.584
     9   6 C        3.920     0.025    20.095     6.371
    10   6 C        3.803    -0.070    21.839     6.653
    11   6 C        3.752    -0.117    22.797     6.809
    12   6 C        3.898    -0.018    20.831     6.488
    13   6 C        3.755    -0.115    22.764     6.803
    14   6 C        3.754    -0.120    22.850     6.816
    15   1 H        0.925     0.036     2.508     2.476
    16   1 H        0.925     0.058     2.228     2.334
    17   1 H        0.925     0.045     2.377     2.411
    18   1 H        0.924     0.040     2.454     2.450
    19   1 H        0.924     0.058     2.221     2.330
    20   1 H        0.924     0.050     2.320     2.382
    21   1 H        0.924     0.056     2.246     2.344
    22   1 H        0.924     0.082     1.958     2.188
    23   1 H        0.925     0.084     1.935     2.175
    24   1 H        0.925     0.102     1.764     2.077
    25   1 H        0.925     0.084     1.942     2.179
    26   1 H        0.924     0.086     1.922     2.168
    27   1 H        0.924     0.054     2.275     2.359
    28   1 H        0.925     0.064     2.150     2.293
    29   1 H        0.925     0.049     2.330     2.387
    30   1 H        0.925     0.069     2.091     2.261
    31   1 H        0.925     0.053     2.283     2.363
    32   1 H        0.924     0.081     1.968     2.194
    33   1 H        0.925     0.056     2.248     2.345
    34   1 H        0.925     0.082     1.957     2.187
    35   1 H        0.925     0.059     2.212     2.326
    36   1 H        0.925     0.054     2.275     2.359
    37   1 H        0.925     0.077     2.015     2.220
    38   1 H        0.925     0.063     2.167     2.302

Wiberg/Mayer (AO) data.
largest (>0.10) Wiberg bond orders for each atom

     #   Z sym  total        # sym  WBO       # sym  WBO       # sym  WBO
 ---------------------------------------------------------------------------
     1   6 C    3.993 --     2 C    1.021    17 H    0.986    15 H    0.986
                            16 H    0.984
     2   6 C    3.991 --     1 C    1.021     3 C    1.001    18 H    0.976
                            19 H    0.973
     3   6 C    3.988 --     2 C    1.001     4 C    0.983    20 H    0.973
                            21 H    0.973
     4   6 C    3.940 --     3 C    0.983     5 N    0.966    23 H    0.955
                            22 H    0.953
     5   7 N    3.657 --     6 C    1.491     4 C    0.966     9 C    0.947
                             7 S    0.149
     6   6 C    3.945 --     5 N    1.491     7 S    1.280    12 C    1.014
     7  16 S    2.559 --     6 C    1.280     8 C    0.979     5 N    0.149
     8   6 C    3.964 --     9 C    1.004     7 S    0.979    25 H    0.969
                            24 H    0.962
     9   6 C    3.952 --     8 C    1.004    10 C    0.976    26 H    0.952
                             5 N    0.947
    10   6 C    3.985 --    11 C    1.016     9 C    0.976    27 H    0.974
                            28 H    0.967
    11   6 C    3.988 --    10 C    1.016    31 H    0.985    29 H    0.983
                            30 H    0.981
    12   6 C    3.978 --     6 C    1.014    14 C    0.988    13 C    0.966
                            32 H    0.952
    13   6 C    3.982 --    35 H    0.984    33 H    0.979    34 H    0.975
                            12 C    0.966
    14   6 C    3.985 --    12 C    0.988    36 H    0.984    38 H    0.979
                            37 H    0.978
    15   1 H    0.999 --     1 C    0.986
    16   1 H    0.996 --     1 C    0.984
    17   1 H    0.998 --     1 C    0.986
    18   1 H    0.998 --     2 C    0.976
    19   1 H    0.994 --     2 C    0.973
    20   1 H    0.997 --     3 C    0.973
    21   1 H    0.997 --     3 C    0.973
    22   1 H    0.993 --     4 C    0.953
    23   1 H    0.992 --     4 C    0.955
    24   1 H    0.989 --     8 C    0.962
    25   1 H    0.993 --     8 C    0.969
    26   1 H    0.993 --     9 C    0.952
    27   1 H    0.997 --    10 C    0.974
    28   1 H    0.996 --    10 C    0.967
    29   1 H    0.997 --    11 C    0.983
    30   1 H    0.995 --    11 C    0.981
    31   1 H    0.997 --    11 C    0.985
    32   1 H    0.993 --    12 C    0.952
    33   1 H    0.997 --    13 C    0.979
    34   1 H    0.992 --    13 C    0.975
    35   1 H    0.997 --    13 C    0.984
    36   1 H    0.997 --    14 C    0.984
    37   1 H    0.994 --    14 C    0.978
    38   1 H    0.996 --    14 C    0.979
 ---------------------------------------------------------------------------

molecular dipole:
                 x           y           z       tot (Debye)
 q only:       -2.596      -1.304      -4.305
   full:       -2.580      -1.477      -4.402      13.500

           -------------------------------------------------
          | TOTAL ENERGY              -43.736014444899 Eh   |
          | GRADIENT NORM               0.000729559730 Eh/α |
          | HOMO-LUMO GAP               2.759030130302 eV   |
           -------------------------------------------------

 * finished run on 2024/12/20 at 06:49:48.716
