   * xtb version 6.7.1 (edcfbbe) compiled by 'conda@3ef47c1a292c' on 2024-11-25

   ID    Z sym.   atoms
    1    6 C      1, 3, 4, 6-9, 11, 14, 16, 17
    2    7 N      2, 5, 13, 15
    3   16 S      10, 12
    4    1 H      18-32

          program call               : xtb C0592.xyz --opt --namespace C0592 --charge +1
          :  Hamiltonian                  GFN2-xTB          :
 * total energy  :   -48.9919601 Eh     change       -0.2830305E-09 Eh
 * total energy  :   -49.0037914 Eh     change       -0.1183129E-01 Eh
 * total energy  :   -49.0079659 Eh     change       -0.4174454E-02 Eh
 * total energy  :   -49.0093160 Eh     change       -0.1350143E-02 Eh
 * total energy  :   -49.0103984 Eh     change       -0.1082391E-02 Eh
 * total energy  :   -49.0111152 Eh     change       -0.7167668E-03 Eh
 * total energy  :   -49.0118369 Eh     change       -0.7217173E-03 Eh
 * total energy  :   -49.0127354 Eh     change       -0.8984687E-03 Eh
 * total energy  :   -49.0137589 Eh     change       -0.1023509E-02 Eh
 * total energy  :   -49.0147683 Eh     change       -0.1009429E-02 Eh
 * total energy  :   -49.0185207 Eh     change       -0.2002092E-04 Eh
 * total energy  :   -49.0185487 Eh     change       -0.2797284E-04 Eh
 * total energy  :   -49.0185727 Eh     change       -0.2400943E-04 Eh
 * total energy  :   -49.0185907 Eh     change       -0.1793801E-04 Eh
 * total energy  :   -49.0186063 Eh     change       -0.1560057E-04 Eh
 * total energy  :   -49.0186223 Eh     change       -0.1599056E-04 Eh
 * total energy  :   -49.0186303 Eh     change       -0.7998705E-05 Eh
 * total energy  :   -49.0186378 Eh     change       -0.7498989E-05 Eh
 * total energy  :   -49.0186405 Eh     change       -0.2753732E-05 Eh
   *** GEOMETRY OPTIMIZATION CONVERGED AFTER 46 ITERATIONS ***

 final structure:
================
32
 xtb: 6.7.1 (edcfbbe)
C            1.00911568599523       -0.41472120920125        0.36780587622691
N            0.64417812167655        0.56287185769705        1.35609291114045
C           -0.60823435411987        0.75055841638827        1.85154903815481
C           -0.54538893286322        1.79751253165336        2.71900473937911
N            0.74434723801267        2.23336466102313        2.74054821154735
C            1.44552255960194        1.46837076387380        1.90645085784201
C            1.22116973217390        3.33919784656244        3.54525069037191
C            2.35529576471838        4.13710092010554        2.90264073730672
C            2.02313259491820        4.70797696122242        1.52944335213465
S            0.55830934149161        5.79605368282938        1.55038331288038
C           -0.55707843670973        4.95982346216953        0.47471890907335
S           -0.28390293176365        3.47327679021616       -0.16525768560023
N           -1.69907212484117        5.65324174291369        0.22572159814720
C           -2.05818936659689        6.91456505950725        0.68632139804705
N           -3.21225432285199        7.26973858286265        0.25382432306705
C           -3.67105400805991        6.24052221427238       -0.53020676616731
C           -2.76196333272746        5.23800820239311       -0.56328961782156
H            0.54377073893689       -0.16562549299768       -0.58714748502804
H            0.66695562465108       -1.40283455728868        0.67466453956681
H            2.08906473711732       -0.43145372266504        0.24139285222546
H           -1.44270371469498        0.14935299570062        1.55371744319064
H           -1.31769055076727        2.25195391778540        3.30511904472016
H            2.49459528977445        1.55879297319163        1.70489522309003
H            0.36914921880844        3.99923131455092        3.72636289029797
H            1.56141531242573        2.95177535634335        4.51126989022791
H            2.59048116379857        4.95625498629180        3.58395256680015
H            3.25447029392806        3.52518091295371        2.81193389741577
H            2.84960410099972        5.32428091766126        1.17820359273829
H            1.80984806845387        3.93035570985694        0.79192959127018
H           -1.42718550666414        7.50010820000822        1.32387395783783
H           -4.62485138150391        6.30532155976913       -1.01210871049214
H           -2.75891662331726        4.29186244235122       -1.06211117958545

          :  Hamiltonian                  GFN2-xTB          :
         :: total energy             -49.018640509286 Eh    ::
         :: gradient norm              0.000534858218 Eh/a0 ::
         :: HOMO-LUMO gap              1.757376917405 eV    ::
         :: SCC energy               -49.677934967855 Eh    ::
         :: -> dispersion             -0.035637338384 Eh    ::
         :: repulsion energy           0.659294458569 Eh    ::

    * Orbital Energies and Occupations

         #    Occupation            Energy/Eh            Energy/eV
      -------------------------------------------------------------
         1        2.0000           -0.8936477             -24.3174
       ...           ...                  ...                  ...
        33        2.0000           -0.6069986             -16.5173
        34        2.0000           -0.5995610             -16.3149
        35        2.0000           -0.5962499             -16.2248
        36        2.0000           -0.5944434             -16.1756
        37        2.0000           -0.5904274             -16.0663
        38        2.0000           -0.5855196             -15.9328
        39        2.0000           -0.5767853             -15.6951
        40        2.0000           -0.5686166             -15.4728
        41        2.0000           -0.5358192             -14.5804
        42        2.0000           -0.5114435             -13.9171
        43        2.0000           -0.5043073             -13.7229
        44        2.0000           -0.4971889             -13.5292
        45        2.0000           -0.4838097             -13.1651 (HOMO)
        46                         -0.4192273             -11.4078 (LUMO)
        47                         -0.4041736             -10.9981
        48                         -0.3680192             -10.0143
        49                         -0.3415049              -9.2928
        50                         -0.3066854              -8.3453
        51                         -0.2966641              -8.0726
        52                         -0.2759315              -7.5085
        53                         -0.2582434              -7.0272
        54                         -0.1875984              -5.1048
        55                         -0.1562386              -4.2515
        56                         -0.1517744              -4.1300
       ...                                ...                  ...
        93                          0.5484508              14.9241
      -------------------------------------------------------------
                  HL-Gap            0.0645824 Eh            1.7574 eV

     #   Z          covCN         q      C6AA      α(0)
     1   6 C        3.693    -0.088    22.361     6.766
     2   7 N        2.870     0.089    19.704     6.593
     3   6 C        3.073    -0.003    28.019     8.679
     4   6 C        3.079    -0.003    28.020     8.678
     5   7 N        2.867     0.074    19.958     6.635
     6   6 C        3.101     0.048    26.792     8.482
     7   6 C        3.741    -0.028    21.149     6.561
     8   6 C        3.825    -0.074    21.885     6.657
     9   6 C        3.794    -0.029    21.104     6.542
    10  16 S        2.166    -0.070   143.975    20.195
    11   6 C        2.873     0.150    24.741     8.154
    12  16 S        1.169    -0.353   154.602    21.023
    13   7 N        2.978     0.001    21.237     6.845
    14   6 C        3.130     0.091    25.783     8.313
    15   7 N        1.908    -0.203    26.237     7.594
    16   6 C        3.140     0.033    27.018     8.506
    17   6 C        3.012    -0.009    28.235     8.716
    18   1 H        0.924     0.113     1.673     2.023
    19   1 H        0.925     0.107     1.722     2.052
    20   1 H        0.925     0.099     1.793     2.094
    21   1 H        0.926     0.112     1.678     2.026
    22   1 H        0.926     0.105     1.743     2.064
    23   1 H        0.926     0.113     1.671     2.022
    24   1 H        0.924     0.098     1.801     2.098
    25   1 H        0.924     0.094     1.840     2.121
    26   1 H        0.924     0.089     1.892     2.151
    27   1 H        0.924     0.069     2.099     2.266
    28   1 H        0.925     0.084     1.942     2.179
    29   1 H        0.925     0.082     1.957     2.187
    30   1 H        0.926     0.069     2.100     2.266
    31   1 H        0.926     0.073     2.049     2.239
    32   1 H        0.927     0.067     2.118     2.276

Wiberg/Mayer (AO) data.
largest (>0.10) Wiberg bond orders for each atom

     #   Z sym  total        # sym  WBO       # sym  WBO       # sym  WBO
 ---------------------------------------------------------------------------
     1   6 C    3.932 --     2 N    0.991    20 H    0.976    19 H    0.965
                            18 H    0.958
     2   7 N    3.729 --     6 C    1.365     3 C    1.231     1 C    0.991
     3   6 C    3.949 --     4 C    1.590     2 N    1.231    21 H    0.961
     4   6 C    3.951 --     3 C    1.590     5 N    1.230    22 H    0.962
     5   7 N    3.717 --     6 C    1.356     4 C    1.230     7 C    0.970
     6   6 C    3.947 --     2 N    1.365     5 N    1.356    23 H    0.952
     7   6 C    3.943 --     8 C    1.003     5 N    0.970    24 H    0.961
                            25 H    0.952
     8   6 C    3.986 --     9 C    1.014     7 C    1.003    26 H    0.966
                            27 H    0.965
     9   6 C    3.964 --     8 C    1.014    10 S    0.985    28 H    0.966
                            29 H    0.945
    10  16 S    2.470 --    11 C    1.130     9 C    0.985    12 S    0.203
    11   6 C    3.956 --    12 S    1.548    13 N    1.200    10 S    1.130
    12  16 S    1.991 --    11 C    1.548    10 S    0.203
    13   7 N    3.673 --    11 C    1.200    17 C    1.118    14 C    1.111
    14   6 C    3.952 --    15 N    1.670    13 N    1.111    30 H    0.954
                            17 C    0.117
    15   7 N    3.067 --    14 C    1.670    16 C    1.211
    16   6 C    3.975 --    17 C    1.661    15 N    1.211    31 H    0.967
    17   6 C    3.934 --    16 C    1.661    13 N    1.118    32 H    0.966
                            14 C    0.117
    18   1 H    0.987 --     1 C    0.958
    19   1 H    0.988 --     1 C    0.965
    20   1 H    0.990 --     1 C    0.976
    21   1 H    0.987 --     3 C    0.961
    22   1 H    0.989 --     4 C    0.962
    23   1 H    0.987 --     6 C    0.952
    24   1 H    0.990 --     7 C    0.961
    25   1 H    0.991 --     7 C    0.952
    26   1 H    0.992 --     8 C    0.966
    27   1 H    0.995 --     8 C    0.965
    28   1 H    0.992 --     9 C    0.966
    29   1 H    0.993 --     9 C    0.945
    30   1 H    0.995 --    14 C    0.954
    31   1 H    0.993 --    16 C    0.967
    32   1 H    0.996 --    17 C    0.966
 ---------------------------------------------------------------------------

molecular dipole:
                 x           y           z       tot (Debye)
 q only:        1.696       3.427       4.127
   full:        2.001       3.278       3.884      13.884

           -------------------------------------------------
          | TOTAL ENERGY              -49.018640509286 Eh   |
          | GRADIENT NORM               0.000534858218 Eh/α |
          | HOMO-LUMO GAP               1.757376917405 eV   |
           -------------------------------------------------

 * finished run on 2024/12/20 at 06:49:41.525
