   * xtb version 6.7.1 (edcfbbe) compiled by 'conda@3ef47c1a292c' on 2024-11-25

   ID    Z sym.   atoms
    1    6 C      1-3, 5-13
    2    7 N      4
    3    1 H      14-41

          program call               : xtb C0599.xyz --opt --namespace C0599 --charge +1
          :  Hamiltonian                  GFN2-xTB          :
 * total energy  :   -42.4942444 Eh     change       -0.6408385E-10 Eh
 * total energy  :   -42.5020509 Eh     change       -0.7806487E-02 Eh
 * total energy  :   -42.5041115 Eh     change       -0.2060564E-02 Eh
 * total energy  :   -42.5042637 Eh     change       -0.1522168E-03 Eh
 * total energy  :   -42.5043584 Eh     change       -0.9469652E-04 Eh
 * total energy  :   -42.5044126 Eh     change       -0.5417727E-04 Eh
 * total energy  :   -42.5044721 Eh     change       -0.5951849E-04 Eh
 * total energy  :   -42.5045161 Eh     change       -0.4397715E-04 Eh
 * total energy  :   -42.5045440 Eh     change       -0.2788582E-04 Eh
 * total energy  :   -42.5045885 Eh     change       -0.4455289E-04 Eh
 * total energy  :   -42.5046075 Eh     change       -0.1900534E-04 Eh
 * total energy  :   -42.5046182 Eh     change       -0.1067973E-04 Eh
 * total energy  :   -42.5046258 Eh     change       -0.7604530E-05 Eh
 * total energy  :   -42.5046322 Eh     change       -0.6441414E-05 Eh
 * total energy  :   -42.5046369 Eh     change       -0.4710885E-05 Eh
   *** GEOMETRY OPTIMIZATION CONVERGED AFTER 15 ITERATIONS ***

 final structure:
================
41
 xtb: 6.7.1 (edcfbbe)
C            0.30960010508745       -1.16403348057462       -0.40856123768402
C            0.39356323744729       -1.92801908485908        0.90957074594618
C            1.28214310741833       -1.34348922148430        2.01419315814949
N            0.84694200062296       -0.09640849391797        2.71881326570185
C           -0.62986649028832       -0.11783970273488        2.98884076860461
C           -1.17013006362562       -1.33280644968386        3.76300990520767
C           -1.93992354281334       -0.90591624424063        5.01069687450876
C            1.53448504081247        0.03272129987890        4.04829807914519
C            2.97299600266068       -0.47192274459905        4.18098009661690
C            3.52118153981232       -0.04405706525030        5.54062076709650
C            1.08680709376229        1.13048266027153        1.88152611798543
C            2.49869449273086        1.71070876615451        1.74221490070856
C            3.44592383330435        0.99716532877818        0.78230311927396
H           -0.34761880906872       -0.29875371242161       -0.35540272305940
H           -0.10123512124328       -1.82279373160298       -1.16926035089815
H            1.29453081534061       -0.85079364814702       -0.74534370891925
H           -0.61008505805378       -2.13016860289457        1.27889372980692
H            0.84421485209903       -2.89977482087005        0.69366783707494
H            1.37882113828378       -2.11829332927782        2.77495401105771
H            2.26901397369379       -1.15121710530363        1.59949952783911
H           -0.85625095538399        0.78244137819614        3.56477046591191
H           -1.13761877525312       -0.02876410163724        2.02876561599456
H           -1.84557793793166       -1.90426065576829        3.12584082871808
H           -0.36906007193936       -2.01014229415961        4.05743736561272
H           -2.78225331182330       -0.27358216732591        4.74320360354891
H           -2.32783966946714       -1.78110270478770        5.52364660984243
H           -1.30596144308252       -0.35990275743644        5.70597055255154
H            1.50157468266578        1.09068088229899        4.31749766091379
H            0.93951012678444       -0.50934817890265        4.78348565266968
H            3.00788969248820       -1.56015493435251        4.12346330258280
H            3.62034882799022       -0.07468451339495        3.40300210587813
H            2.90619992524231       -0.43283808804898        6.34835948208856
H            4.52897821585959       -0.42663734601029        5.66886157927010
H            3.55679660930057        1.03943424979224        5.62560806582875
H            0.70614856350080        0.92052388519693        0.88425332590984
H            0.46973108335123        1.91840262432600        2.31970743174208
H            2.33669870367904        2.71460404726214        1.34200518072048
H            2.97324196266329        1.84241242475107        2.71289659333192
H            2.95875367359176        0.80346807261731       -0.16987269178395
H            4.30066153576694        1.64010454446342        0.58887085984244
H            3.83595041401335        0.06191501569919        1.17653152466386

          :  Hamiltonian                  GFN2-xTB          :
         :: total energy             -42.504636946611 Eh    ::
         :: gradient norm              0.000435150710 Eh/a0 ::
         :: HOMO-LUMO gap              8.859512278442 eV    ::
         :: SCC energy               -43.120244649907 Eh    ::
         :: -> dispersion             -0.032901466229 Eh    ::
         :: repulsion energy           0.615607703296 Eh    ::

    * Orbital Energies and Occupations

         #    Occupation            Energy/Eh            Energy/eV
      -------------------------------------------------------------
         1        2.0000           -0.8449717             -22.9929
       ...           ...                  ...                  ...
        28        2.0000           -0.6025702             -16.3968
        29        2.0000           -0.5943616             -16.1734
        30        2.0000           -0.5929068             -16.1338
        31        2.0000           -0.5902792             -16.0623
        32        2.0000           -0.5886868             -16.0190
        33        2.0000           -0.5830238             -15.8649
        34        2.0000           -0.5750358             -15.6475
        35        2.0000           -0.5732974             -15.6002
        36        2.0000           -0.5695639             -15.4986
        37        2.0000           -0.5678733             -15.4526
        38        2.0000           -0.5676545             -15.4467
        39        2.0000           -0.5651849             -15.3795
        40        2.0000           -0.5621823             -15.2978 (HOMO)
        41                         -0.2366012              -6.4382 (LUMO)
        42                         -0.1788223              -4.8660
        43                         -0.1617106              -4.4004
        44                         -0.1501485              -4.0857
        45                         -0.0730839              -1.9887
        46                         -0.0682239              -1.8565
        47                         -0.0541175              -1.4726
        48                         -0.0527831              -1.4363
        49                         -0.0417161              -1.1352
        50                         -0.0355272              -0.9667
        51                         -0.0262695              -0.7148
       ...                                ...                  ...
        80                          0.1975673               5.3761
      -------------------------------------------------------------
                  HL-Gap            0.3255811 Eh            8.8595 eV

     #   Z          covCN         q      C6AA      α(0)
     1   6 C        3.750    -0.115    22.771     6.806
     2   6 C        3.798    -0.070    21.849     6.655
     3   6 C        3.746    -0.037    21.313     6.585
     4   7 N        3.615     0.101    19.500     6.559
     5   6 C        3.766    -0.038    21.292     6.577
     6   6 C        3.798    -0.066    21.761     6.642
     7   6 C        3.752    -0.118    22.821     6.812
     8   6 C        3.758    -0.039    21.322     6.583
     9   6 C        3.799    -0.067    21.779     6.645
    10   6 C        3.755    -0.116    22.783     6.806
    11   6 C        3.756    -0.041    21.355     6.589
    12   6 C        3.798    -0.068    21.812     6.650
    13   6 C        3.750    -0.115    22.757     6.803
    14   1 H        0.925     0.038     2.475     2.460
    15   1 H        0.925     0.065     2.141     2.288
    16   1 H        0.925     0.050     2.314     2.379
    17   1 H        0.925     0.059     2.213     2.326
    18   1 H        0.924     0.071     2.073     2.251
    19   1 H        0.925     0.077     2.014     2.219
    20   1 H        0.925     0.093     1.851     2.128
    21   1 H        0.924     0.081     1.972     2.196
    22   1 H        0.925     0.082     1.955     2.187
    23   1 H        0.924     0.062     2.178     2.308
    24   1 H        0.925     0.055     2.258     2.350
    25   1 H        0.925     0.055     2.263     2.353
    26   1 H        0.925     0.065     2.144     2.290
    27   1 H        0.925     0.044     2.390     2.418
    28   1 H        0.924     0.080     1.978     2.200
    29   1 H        0.925     0.087     1.904     2.158
    30   1 H        0.924     0.051     2.311     2.377
    31   1 H        0.925     0.060     2.201     2.320
    32   1 H        0.925     0.051     2.309     2.376
    33   1 H        0.925     0.066     2.131     2.283
    34   1 H        0.925     0.049     2.329     2.386
    35   1 H        0.925     0.093     1.851     2.128
    36   1 H        0.924     0.071     2.079     2.255
    37   1 H        0.924     0.071     2.077     2.254
    38   1 H        0.925     0.061     2.184     2.311
    39   1 H        0.925     0.050     2.323     2.383
    40   1 H        0.925     0.064     2.153     2.295
    41   1 H        0.925     0.039     2.457     2.451

Wiberg/Mayer (AO) data.
largest (>0.10) Wiberg bond orders for each atom

     #   Z sym  total        # sym  WBO       # sym  WBO       # sym  WBO
 ---------------------------------------------------------------------------
     1   6 C    3.992 --     2 C    1.020    16 H    0.983    15 H    0.981
                            14 H    0.979
     2   6 C    3.986 --     1 C    1.020     3 C    1.005    17 H    0.969
                            18 H    0.966
     3   6 C    3.934 --     2 C    1.005    19 H    0.964    20 H    0.957
                             4 N    0.931
     4   7 N    3.797 --     5 C    0.932     3 C    0.931     8 C    0.928
                            11 C    0.928
     5   6 C    3.934 --     6 C    1.000    22 H    0.969    21 H    0.967
                             4 N    0.932
     6   6 C    3.988 --     7 C    1.018     5 C    1.000    23 H    0.973
                            24 H    0.966
     7   6 C    3.989 --     6 C    1.018    25 H    0.986    27 H    0.985
                            26 H    0.983
     8   6 C    3.932 --     9 C    1.006    28 H    0.966    29 H    0.962
                             4 N    0.928
     9   6 C    3.988 --    10 C    1.012     8 C    1.006    30 H    0.974
                            31 H    0.968
    10   6 C    3.989 --     9 C    1.012    32 H    0.986    34 H    0.986
                            33 H    0.983
    11   6 C    3.932 --    12 C    1.006    36 H    0.969    35 H    0.957
                             4 N    0.928
    12   6 C    3.986 --    13 C    1.020    11 C    1.006    38 H    0.968
                            37 H    0.965
    13   6 C    3.992 --    12 C    1.020    39 H    0.983    40 H    0.982
                            41 H    0.976
    14   1 H    0.999 --     1 C    0.979
    15   1 H    0.995 --     1 C    0.981
    16   1 H    0.997 --     1 C    0.983
    17   1 H    0.996 --     2 C    0.969
    18   1 H    0.995 --     2 C    0.966
    19   1 H    0.994 --     3 C    0.964
    20   1 H    0.991 --     3 C    0.957
    21   1 H    0.993 --     5 C    0.967
    22   1 H    0.993 --     5 C    0.969
    23   1 H    0.996 --     6 C    0.973
    24   1 H    0.997 --     6 C    0.966
    25   1 H    0.997 --     7 C    0.986
    26   1 H    0.995 --     7 C    0.983
    27   1 H    0.998 --     7 C    0.985
    28   1 H    0.993 --     8 C    0.966
    29   1 H    0.992 --     8 C    0.962
    30   1 H    0.997 --     9 C    0.974
    31   1 H    0.996 --     9 C    0.968
    32   1 H    0.997 --    10 C    0.986
    33   1 H    0.995 --    10 C    0.983
    34   1 H    0.998 --    10 C    0.986
    35   1 H    0.991 --    11 C    0.957
    36   1 H    0.995 --    11 C    0.969
    37   1 H    0.995 --    12 C    0.965
    38   1 H    0.996 --    12 C    0.968
    39   1 H    0.997 --    13 C    0.983
    40   1 H    0.995 --    13 C    0.982
    41   1 H    0.998 --    13 C    0.976
 ---------------------------------------------------------------------------

molecular dipole:
                 x           y           z       tot (Debye)
 q only:        1.828      -0.353       5.098
   full:        1.764      -0.311       5.101      13.740

           -------------------------------------------------
          | TOTAL ENERGY              -42.504636946611 Eh   |
          | GRADIENT NORM               0.000435150710 Eh/α |
          | HOMO-LUMO GAP               8.859512278442 eV   |
           -------------------------------------------------

 * finished run on 2024/12/20 at 06:50:00.070
