   * xtb version 6.7.1 (edcfbbe) compiled by 'conda@3ef47c1a292c' on 2024-11-25

   ID    Z sym.   atoms
    1    6 C      1-5, 7, 8, 10, 11
    2    7 N      6, 9
    3    1 H      12-28

          program call               : xtb C0598.xyz --opt --namespace C0598 --charge +1
          :  Hamiltonian                  GFN2-xTB          :
 * total energy  :   -33.4203205 Eh     change       -0.2818787E-08 Eh
 * total energy  :   -33.4234116 Eh     change       -0.3091156E-02 Eh
 * total energy  :   -33.4241071 Eh     change       -0.6955280E-03 Eh
 * total energy  :   -33.4242300 Eh     change       -0.1228973E-03 Eh
 * total energy  :   -33.4243020 Eh     change       -0.7200566E-04 Eh
 * total energy  :   -33.4243205 Eh     change       -0.1849791E-04 Eh
 * total energy  :   -33.4243551 Eh     change       -0.3457283E-04 Eh
 * total energy  :   -33.4243744 Eh     change       -0.1930398E-04 Eh
 * total energy  :   -33.4244017 Eh     change       -0.2727065E-04 Eh
 * total energy  :   -33.4244130 Eh     change       -0.1135543E-04 Eh
 * total energy  :   -33.4245226 Eh     change       -0.2818979E-04 Eh
 * total energy  :   -33.4245470 Eh     change       -0.2439586E-04 Eh
 * total energy  :   -33.4245682 Eh     change       -0.2113202E-04 Eh
 * total energy  :   -33.4245658 Eh     change        0.2333483E-05 Eh
 * total energy  :   -33.4245872 Eh     change       -0.2134925E-04 Eh
 * total energy  :   -33.4245981 Eh     change       -0.1094539E-04 Eh
 * total energy  :   -33.4246052 Eh     change       -0.7121000E-05 Eh
 * total energy  :   -33.4246130 Eh     change       -0.7777241E-05 Eh
 * total energy  :   -33.4246178 Eh     change       -0.4760186E-05 Eh
   *** GEOMETRY OPTIMIZATION CONVERGED AFTER 22 ITERATIONS ***

 final structure:
================
28
 xtb: 6.7.1 (edcfbbe)
C            1.15216153302095        0.27266606934009        0.14552435781660
C            0.58343863049128       -0.41439423802510       -1.09036110913608
C            0.99432610659865       -1.88472473072367       -1.20423208525360
C            0.48662557490359       -2.78322136357297       -0.07608006670656
C           -1.04034725113477       -2.92357865601113       -0.03151742906830
N           -1.53219900860859       -3.60619767311406       -1.20540305777568
C           -1.56800004735725       -4.95545941390253       -1.37767199121940
C           -2.01668682289011       -5.19236429743634       -2.64195102266798
N           -2.24060741051582       -3.98335223356487       -3.22508803108254
C           -1.93797701199731       -3.03816831829929       -2.33678190730713
C           -2.74756931706346       -3.76711284922633       -4.55414642218236
H            0.72661043916605       -0.13096611729714        1.06060232950856
H            0.92918435906730        1.33547476641352        0.11543164652947
H            2.23166684598865        0.15378734090941        0.18352450899859
H           -0.50496878854461       -0.31395075798573       -1.08987670266363
H            0.95258062711787        0.10312270563242       -1.97755299460685
H            0.66182249452100       -2.28070414199520       -2.16896864579563
H            2.08404879619011       -1.93402425007006       -1.19975407579098
H            0.93041961572955       -3.77503354201944       -0.18289226935086
H            0.80971524211329       -2.38018659409302        0.88225596809160
H           -1.33122816884618       -3.50324464877814        0.84648621178969
H           -1.50885116269869       -1.94047134073579        0.02431600161388
H           -1.28362565173918       -5.64308529839631       -0.60763360323795
H           -2.18691726001811       -6.11963130535634       -3.14979976800589
H           -2.01934985758036       -1.98208059705421       -2.50713124184438
H           -3.81958465815745       -3.56404380174626       -4.52461060931714
H           -2.24465532334021       -2.91921591398652       -5.01641818297080
H           -2.57799252441626       -4.65567879890477       -5.15821980836547

          :  Hamiltonian                  GFN2-xTB          :
         :: total energy             -33.424617770299 Eh    ::
         :: gradient norm              0.000403679551 Eh/a0 ::
         :: HOMO-LUMO gap              3.440262054577 eV    ::
         :: SCC energy               -33.935555444640 Eh    ::
         :: -> dispersion             -0.020258083238 Eh    ::
         :: repulsion energy           0.510937674341 Eh    ::

    * Orbital Energies and Occupations

         #    Occupation            Energy/Eh            Energy/eV
      -------------------------------------------------------------
         1        2.0000           -0.8976468             -24.4262
       ...           ...                  ...                  ...
        19        2.0000           -0.6516313             -17.7318
        20        2.0000           -0.6408462             -17.4383
        21        2.0000           -0.6372427             -17.3403
        22        2.0000           -0.6240768             -16.9820
        23        2.0000           -0.6120429             -16.6545
        24        2.0000           -0.6035962             -16.4247
        25        2.0000           -0.5904383             -16.0666
        26        2.0000           -0.5880353             -16.0013
        27        2.0000           -0.5777800             -15.7222
        28        2.0000           -0.5686073             -15.4726
        29        2.0000           -0.5482758             -14.9193
        30        2.0000           -0.5392905             -14.6748
        31        2.0000           -0.5345236             -14.5451 (HOMO)
        32                         -0.4080963             -11.1049 (LUMO)
        33                         -0.3716302             -10.1126
        34                         -0.1840285              -5.0077
        35                         -0.1300878              -3.5399
        36                         -0.0615057              -1.6737
        37                         -0.0598057              -1.6274
        38                         -0.0442577              -1.2043
        39                         -0.0328141              -0.8929
        40                         -0.0212965              -0.5795
        41                         -0.0142209              -0.3870
        42                         -0.0025936              -0.0706
       ...                                ...                  ...
        61                          0.4618143              12.5666
      -------------------------------------------------------------
                  HL-Gap            0.1264273 Eh            3.4403 eV

     #   Z          covCN         q      C6AA      α(0)
     1   6 C        3.752    -0.112    22.704     6.795
     2   6 C        3.799    -0.058    21.611     6.619
     3   6 C        3.801    -0.067    21.775     6.644
     4   6 C        3.802    -0.071    21.867     6.658
     5   6 C        3.742    -0.028    21.157     6.562
     6   7 N        2.868     0.073    19.965     6.636
     7   6 C        3.075    -0.007    28.104     8.692
     8   6 C        3.072    -0.008    28.136     8.697
     9   7 N        2.867     0.075    19.931     6.631
    10   6 C        3.101     0.045    26.865     8.494
    11   6 C        3.692    -0.086    22.341     6.763
    12   1 H        0.925     0.037     2.484     2.465
    13   1 H        0.925     0.050     2.319     2.381
    14   1 H        0.925     0.048     2.341     2.393
    15   1 H        0.924     0.021     2.721     2.579
    16   1 H        0.924     0.045     2.379     2.412
    17   1 H        0.924     0.021     2.722     2.580
    18   1 H        0.924     0.062     2.173     2.305
    19   1 H        0.924     0.054     2.275     2.359
    20   1 H        0.925     0.081     1.965     2.192
    21   1 H        0.924     0.088     1.898     2.154
    22   1 H        0.924     0.090     1.883     2.146
    23   1 H        0.926     0.109     1.706     2.042
    24   1 H        0.926     0.109     1.707     2.043
    25   1 H        0.926     0.115     1.657     2.013
    26   1 H        0.924     0.105     1.741     2.063
    27   1 H        0.925     0.101     1.773     2.082
    28   1 H        0.925     0.107     1.723     2.053

Wiberg/Mayer (AO) data.
largest (>0.10) Wiberg bond orders for each atom

     #   Z sym  total        # sym  WBO       # sym  WBO       # sym  WBO
 ---------------------------------------------------------------------------
     1   6 C    3.994 --     2 C    1.020    14 H    0.986    13 H    0.985
                            12 H    0.985
     2   6 C    3.997 --     1 C    1.020     3 C    1.007    16 H    0.977
                            15 H    0.974
     3   6 C    3.994 --     4 C    1.009     2 C    1.007    17 H    0.975
                            18 H    0.971
     4   6 C    3.983 --     3 C    1.009     5 C    0.980    19 H    0.974
                            20 H    0.963
     5   6 C    3.934 --     4 C    0.980     6 N    0.968    21 H    0.963
                            22 H    0.961
     6   7 N    3.722 --    10 C    1.365     7 C    1.232     5 C    0.968
     7   6 C    3.950 --     8 C    1.587     6 N    1.232    23 H    0.961
     8   6 C    3.948 --     7 C    1.587     9 N    1.231    24 H    0.961
     9   7 N    3.719 --    10 C    1.355     8 C    1.231    11 C    0.990
    10   6 C    3.946 --     6 N    1.365     9 N    1.355    25 H    0.953
    11   6 C    3.933 --     9 N    0.990    28 H    0.973    27 H    0.970
                            26 H    0.959
    12   1 H    0.999 --     1 C    0.985
    13   1 H    0.997 --     1 C    0.985
    14   1 H    0.998 --     1 C    0.986
    15   1 H    1.000 --     2 C    0.974
    16   1 H    0.998 --     2 C    0.977
    17   1 H    1.000 --     3 C    0.975
    18   1 H    0.996 --     3 C    0.971
    19   1 H    0.997 --     4 C    0.974
    20   1 H    0.992 --     4 C    0.963
    21   1 H    0.992 --     5 C    0.963
    22   1 H    0.992 --     5 C    0.961
    23   1 H    0.988 --     7 C    0.961
    24   1 H    0.988 --     8 C    0.961
    25   1 H    0.987 --    10 C    0.953
    26   1 H    0.988 --    11 C    0.959
    27   1 H    0.990 --    11 C    0.970
    28   1 H    0.988 --    11 C    0.973
 ---------------------------------------------------------------------------

molecular dipole:
                 x           y           z       tot (Debye)
 q only:       -3.082      -6.719      -4.064
   full:       -3.175      -6.725      -4.095      21.578

           -------------------------------------------------
          | TOTAL ENERGY              -33.424617770299 Eh   |
          | GRADIENT NORM               0.000403679551 Eh/α |
          | HOMO-LUMO GAP               3.440262054577 eV   |
           -------------------------------------------------

 * finished run on 2024/12/20 at 06:49:59.024
