   * xtb version 6.7.1 (edcfbbe) compiled by 'conda@3ef47c1a292c' on 2024-11-25

   ID    Z sym.   atoms
    1    6 C      1-4, 6-15, 17-23
    2    7 N      5
    3    8 O      16
    4    1 H      24-59

          program call               : xtb C0593.xyz --opt --namespace C0593 --charge +1
          :  Hamiltonian                  GFN2-xTB          :
 * total energy  :   -69.8829618 Eh     change       -0.1026976E-08 Eh
 * total energy  :   -69.8940074 Eh     change       -0.1104551E-01 Eh
 * total energy  :   -69.8981066 Eh     change       -0.4099198E-02 Eh
 * total energy  :   -69.8994312 Eh     change       -0.1324676E-02 Eh
 * total energy  :   -69.9005238 Eh     change       -0.1092587E-02 Eh
 * total energy  :   -69.9012727 Eh     change       -0.7488933E-03 Eh
 * total energy  :   -69.9020963 Eh     change       -0.8235478E-03 Eh
 * total energy  :   -69.9031574 Eh     change       -0.1061165E-02 Eh
 * total energy  :   -69.9042663 Eh     change       -0.1108873E-02 Eh
 * total energy  :   -69.9046367 Eh     change       -0.3703740E-03 Eh
 * total energy  :   -69.9305181 Eh     change       -0.5107884E-05 Eh
 * total energy  :   -69.9305241 Eh     change       -0.6020465E-05 Eh
 * total energy  :   -69.9305342 Eh     change       -0.1007169E-04 Eh
 * total energy  :   -69.9305471 Eh     change       -0.1288095E-04 Eh
 * total energy  :   -69.9305625 Eh     change       -0.1543393E-04 Eh
 * total energy  :   -69.9305725 Eh     change       -0.9981066E-05 Eh
 * total energy  :   -69.9305816 Eh     change       -0.9138897E-05 Eh
 * total energy  :   -69.9305881 Eh     change       -0.6487177E-05 Eh
 * total energy  :   -69.9305928 Eh     change       -0.4739774E-05 Eh
   *** GEOMETRY OPTIMIZATION CONVERGED AFTER 125 ITERATIONS ***

 final structure:
================
59
 xtb: 6.7.1 (edcfbbe)
C            3.70440843742205       -1.74571963092141        0.66113303891349
C            2.55325103964176       -1.55485863639404        1.59648681887435
C            1.34370014942625       -2.00831677649089        1.27522065813179
C            0.09322898583605       -1.86087822612054        2.08957112860663
N           -0.72123474027601       -3.11611528921746        2.10845736503405
C           -1.22159978226120       -3.51746523166796        0.76412311016177
C           -1.29776410774945       -2.62466054130115       -0.28287674421923
C           -1.77820203653335       -2.98936303145730       -1.54019503525008
C           -2.22061877181633       -4.31055900652067       -1.71348005130007
C           -2.19587134128435       -5.22839756839637       -0.63432305961707
C           -1.69415273050894       -4.80979107693523        0.58168679578351
C           -2.71398016310311       -6.65237052650773       -0.80765968153512
C           -2.62526707311457       -7.47429257707677        0.48395699150451
C           -4.19178345877179       -6.61351683633089       -1.22338403871169
C           -1.87671530072452       -7.37680151306834       -1.87138063877347
O           -2.69037649116011       -4.78577692459402       -2.87669041242507
C           -1.75299681306695       -1.85770052072858       -2.58186514747142
C           -2.63664877025285       -0.70770591570412       -2.06703551538273
C           -0.29768705516684       -1.38163418764288       -2.74214704880084
C           -2.25553331772816       -2.18306986302437       -3.99755282874793
C           -1.89990457561028       -2.90167449559207        2.97082144589322
C            0.13271624497759       -4.17394425825295        2.68878985577251
C            2.89169949502665       -0.80159807156638        2.84330362340363
H            3.39673500403665       -2.21739249692712       -0.26767724772982
H            4.46700274245917       -2.36460898522793        1.13166865769210
H            4.16198261342710       -0.78503138035927        0.43313231324289
H            1.21185450866086       -2.51043910494481        0.32722086827844
H            0.33797604009477       -1.61887179918546        3.12535294668974
H           -0.53401524343093       -1.04874674805352        1.71309473030483
H           -0.97262863547188       -1.60944253193094       -0.15677370363116
H           -1.68211347470690       -5.51062952495716        1.39437651055690
H           -3.22680025949424       -7.03879263101041        1.27965074190685
H           -3.01669033909666       -8.46930102489328        0.28944094140301
H           -1.59623762384837       -7.59013782153378        0.81857372684067
H           -4.31907623775170       -6.13741556070389       -2.18856770797980
H           -4.57670167856283       -7.62708896882709       -1.29242597092829
H           -4.77873705687838       -6.07190455962550       -0.48410146375669
H           -1.97269548490088       -6.90129249259970       -2.84060567587979
H           -0.82656424783387       -7.38419818151535       -1.58597937058326
H           -2.21550984225910       -8.40503786873328       -1.96240310414247
H           -2.69303870738425       -4.10681376004479       -3.56102091265913
H           -2.27711004067280       -0.29314297365804       -1.13014452530810
H           -2.65471936165623        0.09755991402353       -2.79661286944057
H           -3.65672920720427       -1.05484925734524       -1.91612770970320
H            0.33514127944769       -2.20749777262454       -3.06092453270578
H           -0.24680880807319       -0.60269250789154       -3.49831992923560
H            0.11266884995328       -0.97343681152975       -1.82335588832116
H           -1.64136167378218       -2.93473370617817       -4.49339218007247
H           -3.31327992979857       -2.44591599779925       -4.01216572231883
H           -2.16450339131202       -1.27897901533556       -4.59854806330749
H           -2.51060382713053       -3.80202178147095        2.99481399685658
H           -1.58936790583635       -2.65421343653046        3.98506645048565
H           -2.50323725501952       -2.08789490569981        2.57155010896025
H            0.90857138101728       -4.44587791338861        1.97611262929764
H            0.60383571025422       -3.80456349414716        3.59798338891603
H           -0.44970880006700       -5.05499966669332        2.94090580391120
H            3.89504660573572       -1.05988493804345        3.17278311716082
H            2.88289804780650        0.26786225282275        2.63411834145413
H            2.20071842609780       -0.98667184198852        3.66118067380720

          :  Hamiltonian                  GFN2-xTB          :
         :: total energy             -69.930592841298 Eh    ::
         :: gradient norm              0.000425074850 Eh/a0 ::
         :: HOMO-LUMO gap              4.023868170920 eV    ::
         :: SCC energy               -71.002326438043 Eh    ::
         :: -> dispersion             -0.058741894440 Eh    ::
         :: repulsion energy           1.071733596745 Eh    ::

    * Orbital Energies and Occupations

         #    Occupation            Energy/Eh            Energy/eV
      -------------------------------------------------------------
         1        2.0000           -0.8377118             -22.7953
       ...           ...                  ...                  ...
        53        2.0000           -0.5482463             -14.9185
        54        2.0000           -0.5450789             -14.8324
        55        2.0000           -0.5416908             -14.7402
        56        2.0000           -0.5396248             -14.6839
        57        2.0000           -0.5365440             -14.6001
        58        2.0000           -0.5298006             -14.4166
        59        2.0000           -0.5285849             -14.3835
        60        2.0000           -0.5217254             -14.1969
        61        2.0000           -0.5136422             -13.9769
        62        2.0000           -0.5072435             -13.8028
        63        2.0000           -0.5062544             -13.7759
        64        2.0000           -0.5049208             -13.7396
        65        2.0000           -0.4887979             -13.3009 (HOMO)
        66                         -0.3409235              -9.2770 (LUMO)
        67                         -0.3386671              -9.2156
        68                         -0.3219738              -8.7614
        69                         -0.2177785              -5.9261
        70                         -0.2029820              -5.5234
        71                         -0.1378899              -3.7522
        72                         -0.1289919              -3.5100
        73                         -0.1016567              -2.7662
        74                         -0.0694426              -1.8896
        75                         -0.0490373              -1.3344
        76                         -0.0363664              -0.9896
       ...                                ...                  ...
       128                          0.5312819              14.4569
      -------------------------------------------------------------
                  HL-Gap            0.1478744 Eh            4.0239 eV

     #   Z          covCN         q      C6AA      α(0)
     1   6 C        3.763    -0.123    22.896     6.821
     2   6 C        2.938     0.029    27.348     8.577
     3   6 C        2.896    -0.088    30.195     9.010
     4   6 C        3.769    -0.025    21.060     6.540
     5   7 N        3.624     0.121    19.163     6.502
     6   6 C        2.923     0.010    27.796     8.646
     7   6 C        2.933    -0.056    29.389     8.891
     8   6 C        2.963    -0.029    28.716     8.790
     9   6 C        2.848     0.147    24.809     8.163
    10   6 C        2.969    -0.001    28.042     8.686
    11   6 C        2.927    -0.064    29.597     8.922
    12   6 C        3.902     0.034    19.946     6.348
    13   6 C        3.763    -0.114    22.733     6.796
    14   6 C        3.762    -0.115    22.756     6.800
    15   6 C        3.762    -0.115    22.754     6.800
    16   8 O        1.661    -0.375    20.375     6.093
    17   6 C        3.902     0.029    20.032     6.362
    18   6 C        3.763    -0.113    22.714     6.794
    19   6 C        3.762    -0.114    22.720     6.795
    20   6 C        3.762    -0.122    22.881     6.819
    21   6 C        3.726    -0.082    22.181     6.724
    22   6 C        3.722    -0.083    22.200     6.729
    23   6 C        3.758    -0.121    22.865     6.817
    24   1 H        0.925     0.050     2.315     2.379
    25   1 H        0.925     0.066     2.127     2.281
    26   1 H        0.925     0.070     2.089     2.260
    27   1 H        0.926     0.046     2.364     2.405
    28   1 H        0.924     0.074     2.043     2.235
    29   1 H        0.924     0.076     2.023     2.225
    30   1 H        0.926     0.058     2.221     2.331
    31   1 H        0.926     0.058     2.225     2.333
    32   1 H        0.925     0.033     2.551     2.498
    33   1 H        0.925     0.054     2.269     2.356
    34   1 H        0.925     0.034     2.531     2.488
    35   1 H        0.925     0.061     2.187     2.313
    36   1 H        0.925     0.050     2.317     2.380
    37   1 H        0.925     0.033     2.545     2.495
    38   1 H        0.925     0.061     2.185     2.312
    39   1 H        0.925     0.033     2.538     2.491
    40   1 H        0.925     0.050     2.315     2.379
    41   1 H        0.805     0.327     0.646     1.262
    42   1 H        0.925     0.035     2.515     2.480
    43   1 H        0.925     0.054     2.275     2.359
    44   1 H        0.925     0.041     2.429     2.437
    45   1 H        0.925     0.040     2.449     2.447
    46   1 H        0.925     0.053     2.283     2.363
    47   1 H        0.925     0.038     2.476     2.461
    48   1 H        0.925     0.045     2.386     2.415
    49   1 H        0.925     0.045     2.386     2.416
    50   1 H        0.925     0.061     2.190     2.314
    51   1 H        0.925     0.094     1.842     2.123
    52   1 H        0.925     0.087     1.911     2.162
    53   1 H        0.925     0.090     1.880     2.144
    54   1 H        0.925     0.099     1.792     2.093
    55   1 H        0.925     0.087     1.909     2.161
    56   1 H        0.925     0.092     1.857     2.131
    57   1 H        0.925     0.067     2.118     2.276
    58   1 H        0.925     0.068     2.106     2.269
    59   1 H        0.925     0.040     2.449     2.447

Wiberg/Mayer (AO) data.
largest (>0.10) Wiberg bond orders for each atom

     #   Z sym  total        # sym  WBO       # sym  WBO       # sym  WBO
 ---------------------------------------------------------------------------
     1   6 C    3.992 --     2 C    1.033    24 H    0.983    26 H    0.965
                            25 H    0.964
     2   6 C    3.985 --     3 C    1.853    23 C    1.033     1 C    1.033
     3   6 C    3.964 --     2 C    1.853     4 C    1.017    27 H    0.957
     4   6 C    3.932 --     3 C    1.017    28 H    0.957    29 H    0.952
                             5 N    0.922
     5   7 N    3.800 --    22 C    0.958    21 C    0.958     4 C    0.922
                             6 C    0.897
     6   6 C    3.905 --     7 C    1.430    11 C    1.373     5 N    0.897
     7   6 C    3.987 --     6 C    1.430     8 C    1.397    30 H    0.950
     8   6 C    3.981 --     7 C    1.397     9 C    1.354    17 C    0.979
     9   6 C    3.945 --     8 C    1.354    10 C    1.294    16 O    1.125
    10   6 C    3.981 --    11 C    1.455     9 C    1.294    12 C    0.986
    11   6 C    3.986 --    10 C    1.455     6 C    1.373    31 H    0.951
    12   6 C    3.988 --    13 C    0.999    10 C    0.986    14 C    0.983
                            15 C    0.983
    13   6 C    3.995 --    12 C    0.999    32 H    0.984    34 H    0.983
                            33 H    0.982
    14   6 C    3.992 --    37 H    0.987    12 C    0.983    36 H    0.982
                            35 H    0.980
    15   6 C    3.992 --    39 H    0.987    12 C    0.983    40 H    0.982
                            38 H    0.980
    16   8 O    2.176 --     9 C    1.125    41 H    0.833
    17   6 C    3.989 --    20 C    0.999    19 C    0.987    18 C    0.987
                             8 C    0.979
    18   6 C    3.993 --    17 C    0.987    44 H    0.986    43 H    0.982
                            42 H    0.981
    19   6 C    3.993 --    17 C    0.987    45 H    0.986    46 H    0.982
                            47 H    0.981
    20   6 C    3.993 --    17 C    0.999    50 H    0.975    48 H    0.973
                            49 H    0.973
    21   6 C    3.936 --    53 H    0.977    52 H    0.976    51 H    0.975
                             5 N    0.958
    22   6 C    3.934 --    55 H    0.975    54 H    0.974    56 H    0.972
                             5 N    0.958
    23   6 C    3.993 --     2 C    1.033    57 H    0.975    59 H    0.975
                            58 H    0.959
    24   1 H    0.997 --     1 C    0.983
    25   1 H    0.995 --     1 C    0.964
    26   1 H    0.995 --     1 C    0.965
    27   1 H    0.998 --     3 C    0.957
    28   1 H    0.994 --     4 C    0.957
    29   1 H    0.994 --     4 C    0.952
    30   1 H    0.996 --     7 C    0.950
    31   1 H    0.996 --    11 C    0.951
    32   1 H    0.999 --    13 C    0.984
    33   1 H    0.997 --    13 C    0.982
    34   1 H    0.999 --    13 C    0.983
    35   1 H    0.996 --    14 C    0.980
    36   1 H    0.996 --    14 C    0.982
    37   1 H    0.999 --    14 C    0.987
    38   1 H    0.996 --    15 C    0.980
    39   1 H    0.999 --    15 C    0.987
    40   1 H    0.996 --    15 C    0.982
    41   1 H    0.893 --    16 O    0.833
    42   1 H    0.999 --    18 C    0.981
    43   1 H    0.996 --    18 C    0.982
    44   1 H    0.998 --    18 C    0.986
    45   1 H    0.998 --    19 C    0.986
    46   1 H    0.996 --    19 C    0.982
    47   1 H    0.999 --    19 C    0.981
    48   1 H    0.998 --    20 C    0.973
    49   1 H    0.998 --    20 C    0.973
    50   1 H    0.995 --    20 C    0.975
    51   1 H    0.991 --    21 C    0.975
    52   1 H    0.991 --    21 C    0.976
    53   1 H    0.992 --    21 C    0.977
    54   1 H    0.990 --    22 C    0.974
    55   1 H    0.992 --    22 C    0.975
    56   1 H    0.991 --    22 C    0.972
    57   1 H    0.995 --    23 C    0.975
    58   1 H    0.995 --    23 C    0.959
    59   1 H    0.998 --    23 C    0.975
 ---------------------------------------------------------------------------

molecular dipole:
                 x           y           z       tot (Debye)
 q only:       -1.063      -5.586       2.133
   full:       -1.081      -5.307       2.231      14.887

           -------------------------------------------------
          | TOTAL ENERGY              -69.930592841298 Eh   |
          | GRADIENT NORM               0.000425074850 Eh/α |
          | HOMO-LUMO GAP               4.023868170920 eV   |
           -------------------------------------------------

 * finished run on 2024/12/20 at 06:49:47.273
