   * xtb version 6.7.1 (edcfbbe) compiled by 'conda@3ef47c1a292c' on 2024-11-25

   ID    Z sym.   atoms
    1    6 C      1-4, 6-8, 10, 11, 13, 14, 16-25
    2    7 N      5, 9, 12
    3    8 O      15
    4    1 H      26-47

          program call               : xtb C0609.xyz --opt --namespace C0609 --charge +1
          :  Hamiltonian                  GFN2-xTB          :
 * total energy  :   -68.5595211 Eh     change       -0.2697675E-08 Eh
 * total energy  :   -68.6021131 Eh     change       -0.4259195E-01 Eh
 * total energy  :   -68.6093302 Eh     change       -0.7217082E-02 Eh
 * total energy  :   -68.6118818 Eh     change       -0.2551595E-02 Eh
 * total energy  :   -68.6124384 Eh     change       -0.5565769E-03 Eh
 * total energy  :   -68.6143077 Eh     change       -0.1869315E-02 Eh
 * total energy  :   -68.6155123 Eh     change       -0.1204621E-02 Eh
 * total energy  :   -68.6171855 Eh     change       -0.1673190E-02 Eh
 * total energy  :   -68.6184935 Eh     change       -0.1307983E-02 Eh
 * total energy  :   -68.6197510 Eh     change       -0.1257524E-02 Eh
 * total energy  :   -68.6264244 Eh     change       -0.1384664E-04 Eh
 * total energy  :   -68.6264367 Eh     change       -0.1223249E-04 Eh
 * total energy  :   -68.6264531 Eh     change       -0.1640889E-04 Eh
 * total energy  :   -68.6264673 Eh     change       -0.1422509E-04 Eh
 * total energy  :   -68.6264784 Eh     change       -0.1105543E-04 Eh
 * total energy  :   -68.6264862 Eh     change       -0.7852786E-05 Eh
 * total energy  :   -68.6264949 Eh     change       -0.8675945E-05 Eh
 * total energy  :   -68.6265042 Eh     change       -0.9297501E-05 Eh
 * total energy  :   -68.6265080 Eh     change       -0.3831566E-05 Eh
   *** GEOMETRY OPTIMIZATION CONVERGED AFTER 44 ITERATIONS ***

 final structure:
================
47
 xtb: 6.7.1 (edcfbbe)
C            3.24052687249458        1.51139616019799       -0.21921658846759
C            1.96115824484801        0.69768733021118       -0.08019182298876
C            1.02849856618097        1.23409661971521        1.02677250992050
C            0.49350111676136        2.57312233949761        0.68099718876944
N            0.98353334593969        3.74787338975358        1.11193396505902
C            1.95698300586246        3.96860139022907        2.15707276266921
C            1.25252182824486        4.22032782574062        3.50431632198059
C            0.29911302561899        3.16696115771944        3.75124725166536
N           -0.45890216851384        2.31861614770744        3.85139685222934
C            0.28582549232423        4.76881440535978        0.49217281997332
C           -0.65004548311209        4.15818611985481       -0.35747504537887
N           -0.49250077749215        2.79229455838963       -0.19700718227885
C           -1.28106356924088        1.81291314404212       -0.90101798894030
C           -2.81044387076274        2.08852332397050       -0.82599995094298
O           -3.38213704920969        2.37812262731294       -1.84922896435913
C           -3.48371725601093        1.95168260295682        0.46703327681308
C           -2.82979298239994        1.66720132069837        1.66878353122796
C           -3.54965884157615        1.54339024869284        2.84065419409586
C           -4.92882065945130        1.69171565894892        2.83417328552074
C           -5.59125679352561        1.97403878608871        1.64842480140086
C           -4.87665067947545        2.10689984874473        0.47603825470338
C           -1.48830815142465        4.91273418568337       -1.16905546310884
C           -1.36841578522206        6.28513406181426       -1.08242821804571
C           -0.44731129338874        6.89273408124344       -0.22644392242651
C            0.39810343732228        6.15036862831765        0.57310504439696
H            3.03060352847247        2.54390342973702       -0.49250408917371
H            3.86399581699049        1.08092489873009       -0.99761237206188
H            3.81183216679527        1.49876937791369        0.70625890592462
H            1.43213076135689        0.68389343585250       -1.03408195571835
H            2.21599338524438       -0.33125274567730        0.17342722385339
H            0.20476374114038        0.53154435532786        1.16602957914787
H            1.57111713641655        1.27349601814971        1.97048837964409
H            2.61398009973451        3.10116614034321        2.22908041839212
H            2.56185499443558        4.83707413824654        1.88737906207476
H            1.98775111437271        4.24686368576762        4.31112320062636
H            0.71528754150090        5.17265083592977        3.49029259027348
H           -1.02026965441527        1.84064341546876       -1.96516315590133
H           -1.08149521284312        0.81416943623857       -0.51244785303694
H           -1.76026058613602        1.54328882998308        1.71410727536699
H           -3.02742367130462        1.32976543243313        3.75990772840525
H           -5.48569121883636        1.58496780577770        3.75229338127786
H           -6.66404640768972        2.08779293503847        1.64047557023414
H           -5.37429226097049        2.32353685656521       -0.45694895614358
H           -2.19452031847731        4.45691081444772       -1.84192447469555
H           -1.99941717586709        6.90663049276696       -1.69705040535560
H           -0.39048677216170        7.96904901585429       -0.19566319293315
H            1.11570341744458        6.63090543222836        1.21813622631794

          :  Hamiltonian                  GFN2-xTB          :
         :: total energy             -68.626508019689 Eh    ::
         :: gradient norm              0.000367081554 Eh/a0 ::
         :: HOMO-LUMO gap              2.812899770348 eV    ::
         :: SCC energy               -69.781223404940 Eh    ::
         :: -> dispersion             -0.054595082793 Eh    ::
         :: repulsion energy           1.154715385251 Eh    ::

    * Orbital Energies and Occupations

         #    Occupation            Energy/Eh            Energy/eV
      -------------------------------------------------------------
         1        2.0000           -0.8744359             -23.7946
       ...           ...                  ...                  ...
        51        2.0000           -0.5808270             -15.8051
        52        2.0000           -0.5754202             -15.6580
        53        2.0000           -0.5725203             -15.5791
        54        2.0000           -0.5662272             -15.4078
        55        2.0000           -0.5645462             -15.3621
        56        2.0000           -0.5551889             -15.1075
        57        2.0000           -0.5453159             -14.8388
        58        2.0000           -0.5425238             -14.7628
        59        2.0000           -0.5407914             -14.7157
        60        2.0000           -0.5266072             -14.3297
        61        2.0000           -0.5184621             -14.1081
        62        2.0000           -0.5140540             -13.9881
        63        2.0000           -0.5124867             -13.9455 (HOMO)
        64                         -0.4091145             -11.1326 (LUMO)
        65                         -0.3981229             -10.8335
        66                         -0.3593894              -9.7795
        67                         -0.3528433              -9.6014
        68                         -0.3388791              -9.2214
        69                         -0.3329047              -9.0588
        70                         -0.3309550              -9.0057
        71                         -0.3044330              -8.2840
        72                         -0.2332601              -6.3473
        73                         -0.1965314              -5.3479
        74                         -0.1781636              -4.8481
       ...                                ...                  ...
       122                          1.0161841              27.6518
      -------------------------------------------------------------
                  HL-Gap            0.1033722 Eh            2.8129 eV

     #   Z          covCN         q      C6AA      α(0)
     1   6 C        3.751    -0.113    22.718     6.797
     2   6 C        3.801    -0.058    21.625     6.621
     3   6 C        3.804    -0.074    21.905     6.663
     4   6 C        3.063     0.121    25.288     8.246
     5   7 N        2.830    -0.002    21.302     6.855
     6   6 C        3.748    -0.005    20.732     6.494
     7   6 C        3.804    -0.065    21.744     6.638
     8   6 C        1.900     0.115    28.277     8.588
     9   7 N        0.911    -0.219    25.787     7.344
    10   6 C        3.093     0.037    27.061     8.526
    11   6 C        3.092     0.039    27.013     8.519
    12   7 N        2.830     0.016    20.968     6.801
    13   6 C        3.738    -0.041    21.397     6.601
    14   6 C        2.819     0.225    23.271     7.904
    15   8 O        0.858    -0.335    20.429     6.060
    16   6 C        2.969    -0.021    28.517     8.759
    17   6 C        2.920    -0.029    28.718     8.788
    18   6 C        2.917    -0.023    28.578     8.766
    19   6 C        2.920    -0.010    28.258     8.717
    20   6 C        2.916    -0.019    28.483     8.752
    21   6 C        2.928    -0.012    28.309     8.726
    22   6 C        2.909    -0.034    28.839     8.806
    23   6 C        2.926    -0.019    28.474     8.751
    24   6 C        2.926    -0.019    28.488     8.753
    25   6 C        2.909    -0.038    28.950     8.823
    26   1 H        0.925     0.032     2.552     2.498
    27   1 H        0.925     0.065     2.138     2.286
    28   1 H        0.925     0.046     2.374     2.409
    29   1 H        0.924     0.050     2.324     2.384
    30   1 H        0.925     0.070     2.084     2.258
    31   1 H        0.924     0.082     1.959     2.189
    32   1 H        0.925     0.077     2.005     2.215
    33   1 H        0.924     0.085     1.928     2.171
    34   1 H        0.924     0.088     1.899     2.155
    35   1 H        0.924     0.103     1.759     2.074
    36   1 H        0.924     0.092     1.862     2.134
    37   1 H        0.924     0.099     1.794     2.095
    38   1 H        0.925     0.087     1.904     2.158
    39   1 H        0.926     0.031     2.571     2.507
    40   1 H        0.926     0.068     2.106     2.269
    41   1 H        0.926     0.062     2.171     2.304
    42   1 H        0.926     0.062     2.171     2.304
    43   1 H        0.926     0.075     2.036     2.231
    44   1 H        0.926     0.087     1.905     2.158
    45   1 H        0.926     0.081     1.973     2.197
    46   1 H        0.926     0.077     2.009     2.216
    47   1 H        0.926     0.062     2.178     2.308

Wiberg/Mayer (AO) data.
largest (>0.10) Wiberg bond orders for each atom

     #   Z sym  total        # sym  WBO       # sym  WBO       # sym  WBO
 ---------------------------------------------------------------------------
     1   6 C    3.992 --     2 C    1.023    26 H    0.987    28 H    0.985
                            27 H    0.982
     2   6 C    3.981 --     1 C    1.023    29 H    0.977    30 H    0.971
                             3 C    0.963
     3   6 C    3.980 --     4 C    1.031     2 C    0.963    32 H    0.960
                            31 H    0.947
     4   6 C    3.949 --    12 N    1.337     5 N    1.309     3 C    1.031
     5   7 N    3.642 --     4 C    1.309    10 C    1.113     6 C    0.981
     6   6 C    3.953 --     5 N    0.981     7 C    0.966    33 H    0.962
                            34 H    0.961
     7   6 C    3.990 --     8 C    1.053     6 C    0.966    36 H    0.942
                            35 H    0.939
     8   6 C    3.948 --     9 N    2.856     7 C    1.053
     9   7 N    3.015 --     8 C    2.856
    10   6 C    3.953 --    25 C    1.346    11 C    1.280     5 N    1.113
    11   6 C    3.953 --    22 C    1.344    10 C    1.280    12 N    1.113
    12   7 N    3.666 --     4 C    1.337    11 C    1.113    13 C    0.980
    13   6 C    3.941 --    12 N    0.980    38 H    0.953    37 H    0.953
                            14 C    0.924
    14   6 C    3.931 --    15 O    1.829    16 C    1.074    13 C    0.924
    15   8 O    2.097 --    14 C    1.829
    16   6 C    3.986 --    17 C    1.361    21 C    1.350    14 C    1.074
    17   6 C    3.992 --    18 C    1.467    16 C    1.361    39 H    0.962
                            20 C    0.102
    18   6 C    3.989 --    17 C    1.467    19 C    1.422    40 H    0.966
                            21 C    0.101
    19   6 C    3.986 --    20 C    1.426    18 C    1.422    41 H    0.969
    20   6 C    3.989 --    21 C    1.466    19 C    1.426    42 H    0.967
                            17 C    0.102
    21   6 C    3.984 --    20 C    1.466    16 C    1.350    43 H    0.964
                            18 C    0.101
    22   6 C    3.982 --    23 C    1.488    11 C    1.344    44 H    0.959
                            25 C    0.118
    23   6 C    3.984 --    22 C    1.488    24 C    1.385    45 H    0.966
    24   6 C    3.984 --    25 C    1.486    23 C    1.385    46 H    0.966
    25   6 C    3.985 --    24 C    1.486    10 C    1.346    47 H    0.964
                            22 C    0.118
    26   1 H    0.999 --     1 C    0.987
    27   1 H    0.995 --     1 C    0.982
    28   1 H    0.998 --     1 C    0.985
    29   1 H    0.997 --     2 C    0.977
    30   1 H    0.994 --     2 C    0.971
    31   1 H    0.992 --     3 C    0.947
    32   1 H    0.993 --     3 C    0.960
    33   1 H    0.992 --     6 C    0.962
    34   1 H    0.992 --     6 C    0.961
    35   1 H    0.988 --     7 C    0.939
    36   1 H    0.992 --     7 C    0.942
    37   1 H    0.989 --    13 C    0.953
    38   1 H    0.992 --    13 C    0.953
    39   1 H    0.999 --    17 C    0.962
    40   1 H    0.995 --    18 C    0.966
    41   1 H    0.996 --    19 C    0.969
    42   1 H    0.995 --    20 C    0.967
    43   1 H    0.994 --    21 C    0.964
    44   1 H    0.992 --    22 C    0.959
    45   1 H    0.993 --    23 C    0.966
    46   1 H    0.994 --    24 C    0.966
    47   1 H    0.996 --    25 C    0.964
 ---------------------------------------------------------------------------

molecular dipole:
                 x           y           z       tot (Debye)
 q only:        0.510       6.486       2.123
   full:        0.992       6.696       2.279      18.154

           -------------------------------------------------
          | TOTAL ENERGY              -68.626508019689 Eh   |
          | GRADIENT NORM               0.000367081554 Eh/α |
          | HOMO-LUMO GAP               2.812899770348 eV   |
           -------------------------------------------------

 * finished run on 2024/12/20 at 06:50:28.742
