   * xtb version 6.7.1 (edcfbbe) compiled by 'conda@3ef47c1a292c' on 2024-11-25

   ID    Z sym.   atoms
    1    6 C      1, 2, 4, 6-15, 17-22
    2    7 N      3, 5, 23
    3    8 O      16, 24, 25
    4    1 H      26-45

          program call               : xtb C0604.xyz --opt --namespace C0604 --charge +1
          :  Hamiltonian                  GFN2-xTB          :
 * total energy  :   -71.3837626 Eh     change       -0.9444392E-09 Eh
 * total energy  :   -71.3942979 Eh     change       -0.1053535E-01 Eh
 * total energy  :   -71.3961258 Eh     change       -0.1827818E-02 Eh
 * total energy  :   -71.3961366 Eh     change       -0.1081777E-04 Eh
 * total energy  :   -71.3966256 Eh     change       -0.4890743E-03 Eh
 * total energy  :   -71.3967960 Eh     change       -0.1703583E-03 Eh
 * total energy  :   -71.3970731 Eh     change       -0.2771058E-03 Eh
 * total energy  :   -71.3973516 Eh     change       -0.2784620E-03 Eh
 * total energy  :   -71.3977230 Eh     change       -0.3714065E-03 Eh
 * total energy  :   -71.3981773 Eh     change       -0.4543194E-03 Eh
 * total energy  :   -71.4078212 Eh     change       -0.1526529E-04 Eh
 * total energy  :   -71.4078357 Eh     change       -0.1449681E-04 Eh
 * total energy  :   -71.4078539 Eh     change       -0.1820991E-04 Eh
 * total energy  :   -71.4078663 Eh     change       -0.1241498E-04 Eh
 * total energy  :   -71.4078758 Eh     change       -0.9495546E-05 Eh
 * total energy  :   -71.4078893 Eh     change       -0.1351006E-04 Eh
 * total energy  :   -71.4078939 Eh     change       -0.4529358E-05 Eh
 * total energy  :   -71.4078990 Eh     change       -0.5142692E-05 Eh
 * total energy  :   -71.4079037 Eh     change       -0.4702881E-05 Eh
   *** GEOMETRY OPTIMIZATION CONVERGED AFTER 111 ITERATIONS ***

 final structure:
================
45
 xtb: 6.7.1 (edcfbbe)
C            0.82918456247306       -0.12772574286346        0.87414642404411
C           -0.11935495810297       -1.17999890568869        0.32800461198476
N            0.44587471374660       -2.51391897883739        0.33613361461418
C            1.60327219644978       -2.90984543109782        0.84756886516760
N            1.78434897786629       -4.22102491614487        0.67127388325733
C            0.69032316251765       -4.71047809838985       -0.01604188626980
C           -0.16951657214783       -3.61878967673924       -0.21832454362006
C           -1.38491380343058       -3.77601534377025       -0.87017825117611
C           -1.73033457692755       -5.03782308336002       -1.31929022594138
C           -3.03222898254142       -5.24013247425909       -2.01979609722220
C           -0.86100681951919       -6.13912312678097       -1.11961046006583
C            0.34853820423900       -5.97756060631067       -0.46713740813455
C           -1.25593739750634       -7.48994660817318       -1.61562605866333
C            3.00724955953186       -4.91375677236791        0.96261548702819
C            4.17457566029654       -4.21963311738053        0.22422630187172
O            3.97959087090738       -3.15874232162428       -0.31699972917095
C            5.48083501300127       -4.89892832066439        0.24401350508466
C            5.72998224461563       -6.06771501589851        0.97071476930154
C            6.98609473518377       -6.63993042838264        0.94575235003447
C            7.99231431426542       -6.04672930553857        0.19433019636952
C            7.76802256008540       -4.88453349974684       -0.53055289572881
C            6.51196432415135       -4.31444394538345       -0.50149380571283
N            9.31498035006487       -6.66187446220677        0.16944946536107
O            9.45490101225476       -7.68252094448131        0.79854728554811
O           10.16538406002570       -6.10400858391053       -0.47869901058511
H            1.04608259705568       -0.29563993770368        1.92606356060003
H            0.36022567381698        0.84759463039521        0.78220586615235
H            1.75828223645801       -0.11001599615163        0.30992272376089
H           -1.04253963220492       -1.20079655171263        0.91692689833860
H           -0.38356459723267       -0.94301819448710       -0.70720372766045
H            2.30289746093063       -2.27231652348840        1.35013722639941
H           -2.04807455232515       -2.93982789319640       -1.02187071436724
H           -3.59148579098689       -4.31130579210355       -2.07848708683689
H           -2.86886320427760       -5.61051097825204       -3.03052822704434
H           -3.63808528964790       -5.97791058695274       -1.49657981198328
H            0.99902958991279       -6.82489940656228       -0.31825832625250
H           -0.48472561696827       -8.22519176401228       -1.40657089925161
H           -2.18116298909611       -7.81447154083725       -1.14209854175840
H           -1.43144763024563       -7.46641555478512       -2.68965226530094
H            3.21617283201108       -4.88851055688973        2.03731934703628
H            2.91238414537167       -5.95012331495095        0.63859773042035
H            4.96062260907372       -6.53290595257213        1.56558157662084
H            7.20554298680931       -7.54067021954392        1.49892104919159
H            8.57521273509557       -4.44934947928456       -1.10028615790307
H            6.30352302492932       -3.41072467689861       -1.05330660751942

          :  Hamiltonian                  GFN2-xTB          :
         :: total energy             -71.407903715100 Eh    ::
         :: gradient norm              0.000562617159 Eh/a0 ::
         :: HOMO-LUMO gap              2.444985101145 eV    ::
         :: SCC energy               -72.440215656401 Eh    ::
         :: -> dispersion             -0.045904335179 Eh    ::
         :: repulsion energy           1.032311941300 Eh    ::

    * Orbital Energies and Occupations

         #    Occupation            Energy/Eh            Energy/eV
      -------------------------------------------------------------
         1        2.0000           -0.8681131             -23.6226
       ...           ...                  ...                  ...
        52        2.0000           -0.5783955             -15.7389
        53        2.0000           -0.5742084             -15.6250
        54        2.0000           -0.5621379             -15.2966
        55        2.0000           -0.5583105             -15.1924
        56        2.0000           -0.5575694             -15.1722
        57        2.0000           -0.5554716             -15.1152
        58        2.0000           -0.5542635             -15.0823
        59        2.0000           -0.5467301             -14.8773
        60        2.0000           -0.5458145             -14.8524
        61        2.0000           -0.5360182             -14.5858
        62        2.0000           -0.5268707             -14.3369
        63        2.0000           -0.5241992             -14.2642
        64        2.0000           -0.5234437             -14.2436 (HOMO)
        65                         -0.4335921             -11.7986 (LUMO)
        66                         -0.4006201             -10.9014
        67                         -0.3889502             -10.5839
        68                         -0.3636262              -9.8948
        69                         -0.3505721              -9.5396
        70                         -0.3432698              -9.3408
        71                         -0.3177613              -8.6467
        72                         -0.2285814              -6.2200
        73                         -0.2204686              -5.9993
        74                         -0.1728939              -4.7047
        75                         -0.1316373              -3.5820
       ...                                ...                  ...
       120                          0.5418676              14.7450
      -------------------------------------------------------------
                  HL-Gap            0.0898515 Eh            2.4450 eV

     #   Z          covCN         q      C6AA      α(0)
     1   6 C        3.752    -0.127    22.999     6.839
     2   6 C        3.739    -0.014    20.897     6.523
     3   7 N        2.826     0.033    20.662     6.751
     4   6 C        3.064     0.073    26.306     8.410
     5   7 N        2.833     0.031    20.704     6.758
     6   6 C        3.103     0.032    27.159     8.540
     7   6 C        3.121     0.030    27.148     8.533
     8   6 C        2.914    -0.050    29.246     8.868
     9   6 C        2.973     0.027    27.400     8.586
    10   6 C        3.760    -0.123    22.911     6.824
    11   6 C        2.973     0.027    27.400     8.586
    12   6 C        2.914    -0.051    29.266     8.871
    13   6 C        3.760    -0.123    22.900     6.822
    14   6 C        3.742    -0.043    21.416     6.602
    15   6 C        2.822     0.230    23.181     7.889
    16   8 O        0.857    -0.339    20.490     6.069
    17   6 C        2.970    -0.008    28.209     8.712
    18   6 C        2.920    -0.024    28.599     8.770
    19   6 C        2.916    -0.016    28.406     8.740
    20   6 C        2.917     0.020    27.566     8.610
    21   6 C        2.915    -0.014    28.351     8.731
    22   6 C        2.928    -0.007    28.191     8.707
    23   7 N        2.758     0.555    13.423     5.441
    24   8 O        0.929    -0.359    20.844     6.123
    25   8 O        0.929    -0.355    20.764     6.111
    26   1 H        0.925     0.060     2.199     2.319
    27   1 H        0.925     0.081     1.967     2.193
    28   1 H        0.925     0.068     2.110     2.272
    29   1 H        0.924     0.084     1.941     2.179
    30   1 H        0.924     0.087     1.905     2.159
    31   1 H        0.926     0.113     1.667     2.019
    32   1 H        0.926     0.065     2.143     2.289
    33   1 H        0.925     0.062     2.171     2.304
    34   1 H        0.925     0.075     2.034     2.230
    35   1 H        0.925     0.074     2.038     2.232
    36   1 H        0.926     0.057     2.233     2.337
    37   1 H        0.925     0.060     2.195     2.317
    38   1 H        0.925     0.075     2.033     2.230
    39   1 H        0.925     0.075     2.033     2.230
    40   1 H        0.924     0.097     1.812     2.105
    41   1 H        0.925     0.102     1.771     2.081
    42   1 H        0.926     0.060     2.202     2.320
    43   1 H        0.926     0.101     1.774     2.083
    44   1 H        0.926     0.105     1.740     2.063
    45   1 H        0.926     0.091     1.872     2.140

Wiberg/Mayer (AO) data.
largest (>0.10) Wiberg bond orders for each atom

     #   Z sym  total        # sym  WBO       # sym  WBO       # sym  WBO
 ---------------------------------------------------------------------------
     1   6 C    3.984 --     2 C    1.021    26 H    0.983    28 H    0.982
                            27 H    0.977
     2   6 C    3.945 --     1 C    1.021     3 N    0.967    30 H    0.957
                            29 H    0.956
     3   7 N    3.680 --     4 C    1.380     7 C    1.121     2 C    0.967
     4   6 C    3.945 --     3 N    1.380     5 N    1.336    31 H    0.951
     5   7 N    3.661 --     4 C    1.336     6 C    1.115    14 C    0.997
     6   6 C    3.948 --    12 C    1.339     7 C    1.274     5 N    1.115
     7   6 C    3.950 --     8 C    1.336     6 C    1.274     3 N    1.121
     8   6 C    3.984 --     9 C    1.470     7 C    1.336    32 H    0.962
                            12 C    0.105
     9   6 C    3.986 --     8 C    1.470    11 C    1.297    10 C    1.042
    10   6 C    3.990 --     9 C    1.042    33 H    0.983    35 H    0.959
                            34 H    0.958
    11   6 C    3.984 --    12 C    1.468     9 C    1.297    13 C    1.042
    12   6 C    3.985 --    11 C    1.468     6 C    1.339    36 H    0.961
                             8 C    0.105
    13   6 C    3.990 --    11 C    1.042    37 H    0.983    39 H    0.959
                            38 H    0.958
    14   6 C    3.957 --     5 N    0.997    41 H    0.951    15 C    0.940
                            40 H    0.940
    15   6 C    3.926 --    16 O    1.833    17 C    1.049    14 C    0.940
    16   8 O    2.104 --    15 C    1.833
    17   6 C    3.985 --    18 C    1.366    22 C    1.365    15 C    1.049
    18   6 C    3.990 --    19 C    1.465    17 C    1.366    42 H    0.965
                            21 C    0.104
    19   6 C    3.982 --    18 C    1.465    20 C    1.386    43 H    0.956
                            22 C    0.103
    20   6 C    3.972 --    21 C    1.393    19 C    1.386    23 N    0.937
    21   6 C    3.980 --    22 C    1.456    20 C    1.393    44 H    0.955
                            18 C    0.104
    22   6 C    3.982 --    21 C    1.456    17 C    1.365    45 H    0.961
                            19 C    0.103
    23   7 N    3.916 --    25 O    1.473    24 O    1.469    20 C    0.937
    24   8 O    1.961 --    23 N    1.469    25 O    0.385
    25   8 O    1.965 --    23 N    1.473    24 O    0.385
    26   1 H    0.996 --     1 C    0.983
    27   1 H    0.993 --     1 C    0.977
    28   1 H    0.995 --     1 C    0.982
    29   1 H    0.992 --     2 C    0.956
    30   1 H    0.992 --     2 C    0.957
    31   1 H    0.986 --     4 C    0.951
    32   1 H    0.995 --     8 C    0.962
    33   1 H    0.996 --    10 C    0.983
    34   1 H    0.992 --    10 C    0.958
    35   1 H    0.992 --    10 C    0.959
    36   1 H    0.996 --    12 C    0.961
    37   1 H    0.996 --    13 C    0.983
    38   1 H    0.992 --    13 C    0.958
    39   1 H    0.992 --    13 C    0.959
    40   1 H    0.989 --    14 C    0.940
    41   1 H    0.989 --    14 C    0.951
    42   1 H    0.996 --    18 C    0.965
    43   1 H    0.989 --    19 C    0.956
    44   1 H    0.988 --    21 C    0.955
    45   1 H    0.991 --    22 C    0.961
 ---------------------------------------------------------------------------

molecular dipole:
                 x           y           z       tot (Debye)
 q only:        0.679      -7.293       0.436
   full:        0.731      -7.328       0.644      18.789

           -------------------------------------------------
          | TOTAL ENERGY              -71.407903715100 Eh   |
          | GRADIENT NORM               0.000562617159 Eh/α |
          | HOMO-LUMO GAP               2.444985101145 eV   |
           -------------------------------------------------

 * finished run on 2024/12/20 at 06:50:11.649
