   * xtb version 6.7.1 (edcfbbe) compiled by 'conda@3ef47c1a292c' on 2024-11-25

   ID    Z sym.   atoms
    1    6 C      1-6, 8, 10, 12, 13, 15-17, 20-25
    2    7 N      7, 11, 14, 19
    3    8 O      9, 18
    4    1 H      26-60

          program call               : xtb C0606.xyz --opt --namespace C0606 --charge +1
          :  Hamiltonian                  GFN2-xTB          :
 * total energy  :   -78.0184490 Eh     change       -0.6715624E-09 Eh
 * total energy  :   -78.0267901 Eh     change       -0.8341136E-02 Eh
 * total energy  :   -78.0289848 Eh     change       -0.2194666E-02 Eh
 * total energy  :   -78.0293963 Eh     change       -0.4115262E-03 Eh
 * total energy  :   -78.0296199 Eh     change       -0.2235895E-03 Eh
 * total energy  :   -78.0297115 Eh     change       -0.9161327E-04 Eh
 * total energy  :   -78.0298023 Eh     change       -0.9076699E-04 Eh
 * total energy  :   -78.0298898 Eh     change       -0.8752310E-04 Eh
 * total energy  :   -78.0299838 Eh     change       -0.9401430E-04 Eh
 * total energy  :   -78.0301046 Eh     change       -0.1208164E-03 Eh
 * total energy  :   -78.0491395 Eh     change       -0.1834051E-03 Eh
 * total energy  :   -78.0493411 Eh     change       -0.2015636E-03 Eh
 * total energy  :   -78.0495577 Eh     change       -0.2166580E-03 Eh
 * total energy  :   -78.0497669 Eh     change       -0.2091675E-03 Eh
 * total energy  :   -78.0496699 Eh     change        0.9694989E-04 Eh
 * total energy  :   -78.0500316 Eh     change       -0.3617038E-03 Eh
 * total energy  :   -78.0502021 Eh     change       -0.1704727E-03 Eh
 * total energy  :   -78.0503933 Eh     change       -0.1911475E-03 Eh
 * total energy  :   -78.0505560 Eh     change       -0.1627616E-03 Eh
 * total energy  :   -78.0507963 Eh     change       -0.2402525E-03 Eh

 final structure:
================
60
 xtb: 6.7.1 (edcfbbe)
C            4.08389513275726       -3.37816313093787        0.69191951505627
C            3.93613581010686       -3.45306524539828        2.20978581387164
C            3.01863837059139       -2.36937832855563        2.78246014801764
C            1.57928307659451       -2.40853393704812        2.26212445069057
C            0.79969086185735       -3.67890924609917        2.61331184508382
C            0.54319134613471       -3.84592574214011        4.11894600418533
N           -0.11868084182442       -2.68423583238823        4.68386952172385
C           -1.41459436266293       -2.37364598995307        4.63484645750736
O           -1.86495991888150       -1.26983442807098        4.87299542263642
C           -2.39458620072823       -3.53551070092525        4.28960593226780
N           -3.71292483601369       -2.97274135461968        4.24333336168952
C           -4.70609750892355       -3.09508241987609        5.16951955408630
C           -5.70255223575451       -2.24243770390796        4.80823846598981
N           -5.28642039121224       -1.58561349732441        3.68602015767107
C           -4.08176319759677       -2.04838924694668        3.36254686480515
C           -6.06696496987861       -0.76526647504729        2.80777485020034
C           -6.19948284173896       -1.54581125367380        1.46381108555387
O           -5.57648845602062       -2.57727640585947        1.31595692933720
N           -7.02633179477578       -1.04286349137096        0.55230004824979
C           -7.65731791654326        0.26023759755097        0.50424910918135
C           -6.73415861176821        1.33401654841575       -0.08783995706871
C           -6.16142305703118        0.97016917836748       -1.45995057354832
C           -7.19838922856963        0.78669686197300       -2.57058022670601
C           -8.02359857518287        2.03529998638014       -2.89327303414086
C           -7.17506844572716        3.21997507436802       -3.34302572682569
H            3.15199002094305       -3.62556704663816        0.18924883833345
H            4.84282634390903       -4.08001755210808        0.35095818165462
H            4.38412904857238       -2.37576698169529        0.38645321799552
H            3.57178500850742       -4.44311308988658        2.49467308173501
H            4.92200477406811       -3.33306650143785        2.66359627247544
H            3.02429420507284       -2.44648707347331        3.87170524826903
H            3.43699849285432       -1.39397604898582        2.52583575792017
H            1.04117215777234       -1.53843775218651        2.65010565122702
H            1.59491922815977       -2.30825702845338        1.17532679291031
H           -0.15735428198676       -3.64863685580605        2.08556114122945
H            1.34072549241147       -4.55590509944619        2.25871564501192
H           -0.06002609426913       -4.73745579261223        4.30018832553058
H            1.49066065716009       -3.97244728846900        4.64483722964333
H            0.48825404788031       -1.90236669166380        4.90040368745795
H           -2.14431932924668       -3.97330455146463        3.32140004314346
H           -2.34749858114032       -4.30201604852085        5.06417659884897
H           -4.64368030562175       -3.77042294110032        5.99908204432946
H           -6.64989090124124       -2.05352685857453        5.27191539737440
H           -3.49414667793141       -1.72182264136062        2.52653136239669
H           -7.04840241664995       -0.58536656636740        3.24745035529425
H           -5.56509197502230        0.18834147978429        2.62619142164013
H           -7.06741414756499       -1.58152972279228       -0.30426196132645
H           -8.55219115213754        0.16375954626744       -0.11150363332702
H           -7.97005615227668        0.55776109279021        1.50737635391330
H           -7.30155516741006        2.26168289215728       -0.15658158768103
H           -5.89983176142883        1.50989590648412        0.59543361893340
H           -5.46862287152109        1.75915571688805       -1.75422138321978
H           -5.57626364819421        0.05041648378579       -1.37290741344464
H           -6.66329307498287        0.48593024701866       -3.47421045314277
H           -7.88136571887941       -0.02811568536931       -2.31606021685899
H           -8.71718923439407        1.77576301784649       -3.69527885424014
H           -8.62518018475511        2.32401679434646       -2.02871037419317
H           -6.50237322680350        2.92633867531911       -4.14629126449977
H           -7.81476454301552        4.01926665068505       -3.71092344689338
H           -6.58273923816530        3.61820649850382       -2.52333169770756

          :  Hamiltonian                  GFN2-xTB          :
         :: total energy             -78.050987884696 Eh    ::
         :: gradient norm              0.007154894950 Eh/a0 ::
         :: HOMO-LUMO gap              3.162378903748 eV    ::
         :: SCC energy               -79.113458637014 Eh    ::
         :: -> dispersion             -0.051266568343 Eh    ::
         :: repulsion energy           1.062470752319 Eh    ::

    * Orbital Energies and Occupations

         #    Occupation            Energy/Eh            Energy/eV
      -------------------------------------------------------------
         1        2.0000           -0.8666388             -23.5824
       ...           ...                  ...                  ...
        59        2.0000           -0.5332333             -14.5100
        60        2.0000           -0.5315485             -14.4642
        61        2.0000           -0.5272858             -14.3482
        62        2.0000           -0.5265492             -14.3281
        63        2.0000           -0.5241679             -14.2633
        64        2.0000           -0.5234842             -14.2447
        65        2.0000           -0.5192658             -14.1299
        66        2.0000           -0.5055577             -13.7569
        67        2.0000           -0.5041946             -13.7198
        68        2.0000           -0.5012647             -13.6401
        69        2.0000           -0.5001836             -13.6107
        70        2.0000           -0.4963814             -13.5072
        71        2.0000           -0.4951216             -13.4729 (HOMO)
        72                         -0.3789063             -10.3106 (LUMO)
        73                         -0.3469159              -9.4401
        74                         -0.3357919              -9.1374
        75                         -0.3328304              -9.0568
        76                         -0.1600316              -4.3547
        77                         -0.1231650              -3.3515
        78                         -0.1094022              -2.9770
        79                         -0.0978309              -2.6621
        80                         -0.0749738              -2.0401
        81                         -0.0692303              -1.8839
        82                         -0.0370133              -1.0072
       ...                                ...                  ...
       135                          0.5049571              13.7406
      -------------------------------------------------------------
                  HL-Gap            0.1162153 Eh            3.1624 eV

     #   Z          covCN         q      C6AA      α(0)
     1   6 C        3.751    -0.106    22.586     6.778
     2   6 C        3.799    -0.056    21.578     6.614
     3   6 C        3.800    -0.062    21.695     6.632
     4   6 C        3.800    -0.063    21.720     6.636
     5   6 C        3.800    -0.069    21.817     6.650
     6   6 C        3.735    -0.012    20.869     6.520
     7   7 N        2.684    -0.157    24.394     7.335
     8   6 C        2.746     0.271    22.427     7.754
     9   8 O        0.859    -0.435    22.402     6.346
    10   6 C        3.745    -0.053    21.593     6.629
    11   7 N        2.874     0.082    19.809     6.610
    12   6 C        3.068    -0.003    28.026     8.681
    13   6 C        3.067    -0.005    28.089     8.691
    14   7 N        2.874     0.078    19.881     6.622
    15   6 C        3.102     0.074    26.228     8.392
    16   6 C        3.745    -0.051    21.561     6.624
    17   6 C        2.746     0.270    22.433     7.755
    18   8 O        0.859    -0.436    22.421     6.349
    19   7 N        2.684    -0.151    24.271     7.317
    20   6 C        3.735    -0.011    20.864     6.519
    21   6 C        3.800    -0.069    21.824     6.651
    22   6 C        3.800    -0.064    21.729     6.637
    23   6 C        3.800    -0.062    21.690     6.631
    24   6 C        3.799    -0.056    21.579     6.614
    25   6 C        3.751    -0.106    22.595     6.779
    26   1 H        0.925     0.033     2.542     2.493
    27   1 H        0.925     0.041     2.437     2.441
    28   1 H        0.925     0.039     2.459     2.452
    29   1 H        0.924     0.029     2.601     2.522
    30   1 H        0.924     0.038     2.469     2.457
    31   1 H        0.924     0.026     2.644     2.543
    32   1 H        0.924     0.042     2.417     2.431
    33   1 H        0.924     0.029     2.607     2.525
    34   1 H        0.924     0.051     2.309     2.376
    35   1 H        0.924     0.029     2.597     2.520
    36   1 H        0.925     0.063     2.161     2.299
    37   1 H        0.924     0.054     2.274     2.358
    38   1 H        0.924     0.076     2.017     2.221
    39   1 H        0.860     0.211     1.050     1.605
    40   1 H        0.924     0.098     1.801     2.099
    41   1 H        0.924     0.098     1.800     2.098
    42   1 H        0.926     0.104     1.751     2.069
    43   1 H        0.926     0.102     1.763     2.076
    44   1 H        0.926     0.121     1.602     1.979
    45   1 H        0.924     0.097     1.815     2.107
    46   1 H        0.924     0.100     1.789     2.092
    47   1 H        0.860     0.213     1.042     1.599
    48   1 H        0.924     0.077     2.010     2.217
    49   1 H        0.924     0.054     2.276     2.359
    50   1 H        0.925     0.064     2.152     2.294
    51   1 H        0.924     0.032     2.562     2.503
    52   1 H        0.924     0.053     2.283     2.363
    53   1 H        0.924     0.029     2.608     2.525
    54   1 H        0.924     0.043     2.415     2.430
    55   1 H        0.924     0.024     2.674     2.557
    56   1 H        0.924     0.038     2.470     2.458
    57   1 H        0.924     0.029     2.604     2.523
    58   1 H        0.925     0.040     2.449     2.447
    59   1 H        0.925     0.041     2.431     2.438
    60   1 H        0.925     0.034     2.534     2.489

Wiberg/Mayer (AO) data.
largest (>0.10) Wiberg bond orders for each atom

     #   Z sym  total        # sym  WBO       # sym  WBO       # sym  WBO
 ---------------------------------------------------------------------------
     1   6 C    3.996 --     2 C    1.020    28 H    0.987    27 H    0.987
                            26 H    0.986
     2   6 C    3.997 --     1 C    1.020     3 C    1.008    30 H    0.977
                            29 H    0.976
     3   6 C    3.996 --     2 C    1.008     4 C    1.008    32 H    0.976
                            31 H    0.975
     4   6 C    3.995 --     3 C    1.008     5 C    1.007    33 H    0.975
                            34 H    0.972
     5   6 C    3.992 --     4 C    1.007     6 C    0.990    35 H    0.976
                            36 H    0.968
     6   6 C    3.956 --     5 C    0.990     7 N    0.984    37 H    0.969
                            38 H    0.968
     7   7 N    3.479 --     8 C    1.313     6 C    0.984    39 H    0.921
                             9 O    0.208
     8   6 C    3.962 --     9 O    1.672     7 N    1.313    10 C    0.910
     9   8 O    2.016 --     8 C    1.672     7 N    0.208
    10   6 C    3.947 --    11 N    0.993    41 H    0.957    40 H    0.950
                             8 C    0.910
    11   7 N    3.714 --    15 C    1.355    12 C    1.213    10 C    0.993
    12   6 C    3.947 --    13 C    1.605    11 N    1.213    42 H    0.962
    13   6 C    3.946 --    12 C    1.605    14 N    1.209    43 H    0.962
    14   7 N    3.709 --    15 C    1.350    13 C    1.209    16 C    0.997
    15   6 C    3.948 --    11 N    1.355    14 N    1.350    44 H    0.953
    16   6 C    3.949 --    14 N    0.997    45 H    0.958    46 H    0.947
                            17 C    0.909
    17   6 C    3.962 --    18 O    1.660    19 N    1.325    16 C    0.909
    18   8 O    2.025 --    17 C    1.660    19 N    0.207
    19   7 N    3.491 --    17 C    1.325    20 C    0.984    47 H    0.920
                            18 O    0.207
    20   6 C    3.955 --    21 C    0.989    19 N    0.984    49 H    0.968
                            48 H    0.968
    21   6 C    3.991 --    22 C    1.007    20 C    0.989    51 H    0.976
                            50 H    0.969
    22   6 C    3.995 --    23 C    1.008    21 C    1.007    53 H    0.976
                            52 H    0.972
    23   6 C    3.996 --    22 C    1.008    24 C    1.007    54 H    0.976
                            55 H    0.975
    24   6 C    3.997 --    25 C    1.020    23 C    1.007    56 H    0.978
                            57 H    0.976
    25   6 C    3.996 --    24 C    1.020    58 H    0.987    59 H    0.986
                            60 H    0.986
    26   1 H    0.999 --     1 C    0.986
    27   1 H    0.998 --     1 C    0.987
    28   1 H    0.998 --     1 C    0.987
    29   1 H    0.999 --     2 C    0.976
    30   1 H    0.998 --     2 C    0.977
    31   1 H    0.999 --     3 C    0.975
    32   1 H    0.998 --     3 C    0.976
    33   1 H    0.999 --     4 C    0.975
    34   1 H    0.997 --     4 C    0.972
    35   1 H    0.999 --     5 C    0.976
    36   1 H    0.996 --     5 C    0.968
    37   1 H    0.997 --     6 C    0.969
    38   1 H    0.994 --     6 C    0.968
    39   1 H    0.954 --     7 N    0.921
    40   1 H    0.990 --    10 C    0.950
    41   1 H    0.990 --    10 C    0.957
    42   1 H    0.989 --    12 C    0.962
    43   1 H    0.989 --    13 C    0.962
    44   1 H    0.985 --    15 C    0.953
    45   1 H    0.990 --    16 C    0.958
    46   1 H    0.990 --    16 C    0.947
    47   1 H    0.954 --    19 N    0.920
    48   1 H    0.994 --    20 C    0.968
    49   1 H    0.997 --    20 C    0.968
    50   1 H    0.995 --    21 C    0.969
    51   1 H    0.999 --    21 C    0.976
    52   1 H    0.997 --    22 C    0.972
    53   1 H    0.999 --    22 C    0.976
    54   1 H    0.998 --    23 C    0.976
    55   1 H    0.999 --    23 C    0.975
    56   1 H    0.998 --    24 C    0.978
    57   1 H    0.999 --    24 C    0.976
    58   1 H    0.998 --    25 C    0.987
    59   1 H    0.998 --    25 C    0.986
    60   1 H    0.999 --    25 C    0.986
 ---------------------------------------------------------------------------

molecular dipole:
                 x           y           z       tot (Debye)
 q only:       -7.734      -3.736       5.603
   full:       -7.765      -3.757       5.607      26.151

           -------------------------------------------------
          | TOTAL ENERGY              -78.050987884696 Eh   |
          | GRADIENT NORM               0.007154894950 Eh/α |
          | HOMO-LUMO GAP               3.162378903748 eV   |
           -------------------------------------------------

 * finished run on 2024/12/20 at 06:50:21.265
