   * xtb version 6.7.1 (edcfbbe) compiled by 'conda@3ef47c1a292c' on 2024-11-25

   ID    Z sym.   atoms
    1    6 C      1, 2, 4-6, 8-10
    2    7 N      3, 7
    3    1 H      11-25

          program call               : xtb C0603.xyz --opt --namespace C0603 --charge +1
          :  Hamiltonian                  GFN2-xTB          :
 * total energy  :   -30.2831682 Eh     change       -0.1057003E-08 Eh
 * total energy  :   -30.2876411 Eh     change       -0.4472913E-02 Eh
 * total energy  :   -30.2882803 Eh     change       -0.6391481E-03 Eh
 * total energy  :   -30.2883648 Eh     change       -0.8456644E-04 Eh
 * total energy  :   -30.2884970 Eh     change       -0.1322070E-03 Eh
 * total energy  :   -30.2886113 Eh     change       -0.1143061E-03 Eh
 * total energy  :   -30.2887029 Eh     change       -0.9161057E-04 Eh
 * total energy  :   -30.2888390 Eh     change       -0.1360412E-03 Eh
 * total energy  :   -30.2889176 Eh     change       -0.7858920E-04 Eh
 * total energy  :   -30.2890224 Eh     change       -0.1047777E-03 Eh
 * total energy  :   -30.2894700 Eh     change       -0.5310652E-04 Eh
 * total energy  :   -30.2894953 Eh     change       -0.2523245E-04 Eh
 * total energy  :   -30.2895135 Eh     change       -0.1817319E-04 Eh
 * total energy  :   -30.2895318 Eh     change       -0.1832682E-04 Eh
 * total energy  :   -30.2895434 Eh     change       -0.1164084E-04 Eh
 * total energy  :   -30.2895674 Eh     change       -0.2394822E-04 Eh
 * total energy  :   -30.2895743 Eh     change       -0.6918425E-05 Eh
 * total energy  :   -30.2895847 Eh     change       -0.1039796E-04 Eh
 * total energy  :   -30.2895871 Eh     change       -0.2439830E-05 Eh
   *** GEOMETRY OPTIMIZATION CONVERGED AFTER 23 ITERATIONS ***

 final structure:
================
25
 xtb: 6.7.1 (edcfbbe)
C            1.08925383205092        0.08546375860616       -0.03054586998753
C            0.69096937055394       -1.05494325232951        0.82296811729507
N            1.02357505959633       -2.33617463888189        0.62594394087030
C            1.79537144042229       -2.86202751552141       -0.47030290050050
C            0.50720813428860       -3.09886521819320        1.65013264646776
C           -0.17051439040519       -2.24582501421310        2.47661169079120
N           -0.04920228182224       -0.98480602491051        1.93560692932038
C           -0.63608809262058        0.20107484939676        2.50384164216390
C           -0.92300080355007       -2.50156399170280        3.72610408881111
C            0.71770993090104       -4.56256285173588        1.73136122555663
H            1.17926689712833        0.99299022974378        0.56065206428219
H            0.35377261727338        0.26176962079606       -0.81715943125459
H            2.05042835956548       -0.10642217697008       -0.50013737365316
H            2.84126182028989       -2.97923896631584       -0.18077350665217
H            1.40214221886803       -3.83603078352450       -0.75506140070209
H            1.73328508377449       -2.19723144815831       -1.32791214458012
H           -1.62249788394287       -0.03634635538229        2.89830101684587
H           -0.01717481700221        0.58090692492153        3.31879818320930
H           -0.74110231142704        0.97125373243194        1.74428092621825
H           -1.98613207125083       -2.30751191227650        3.58671875394317
H           -0.80555916710391       -3.53636769327889        4.02775802438471
H           -0.56399558002326       -1.86318952461409        4.53149790263978
H            0.20066644352443       -5.07626977158899        0.92107776066433
H            1.77713762447766       -4.80471083326644        1.66764703619487
H            0.33274856643335       -4.94351114303196        2.67163067767135

          :  Hamiltonian                  GFN2-xTB          :
         :: total energy             -30.289587125087 Eh    ::
         :: gradient norm              0.000723320183 Eh/a0 ::
         :: HOMO-LUMO gap              4.186252136643 eV    ::
         :: SCC energy               -30.756833444127 Eh    ::
         :: -> dispersion             -0.018322286558 Eh    ::
         :: repulsion energy           0.467246319039 Eh    ::

    * Orbital Energies and Occupations

         #    Occupation            Energy/Eh            Energy/eV
      -------------------------------------------------------------
         1        2.0000           -0.8768487             -23.8603
       ...           ...                  ...                  ...
        16        2.0000           -0.6496813             -17.6787
        17        2.0000           -0.6495798             -17.6760
        18        2.0000           -0.6400067             -17.4155
        19        2.0000           -0.6316875             -17.1891
        20        2.0000           -0.6280776             -17.0909
        21        2.0000           -0.6269242             -17.0595
        22        2.0000           -0.6230088             -16.9529
        23        2.0000           -0.6195482             -16.8588
        24        2.0000           -0.6140067             -16.7080
        25        2.0000           -0.6040274             -16.4364
        26        2.0000           -0.6022716             -16.3886
        27        2.0000           -0.5812965             -15.8179
        28        2.0000           -0.5375180             -14.6266 (HOMO)
        29                         -0.3836761             -10.4404 (LUMO)
        30                         -0.3419913              -9.3061
        31                         -0.1765291              -4.8036
        32                         -0.1296231              -3.5272
        33                         -0.0644563              -1.7539
        34                         -0.0544513              -1.4817
        35                         -0.0294849              -0.8023
        36                         -0.0182290              -0.4960
        37                         -0.0164258              -0.4470
        38                          0.0088607               0.2411
        39                          0.0153722               0.4183
       ...                                ...                  ...
        55                          0.4591913              12.4952
      -------------------------------------------------------------
                  HL-Gap            0.1538419 Eh            4.1863 eV

     #   Z          covCN         q      C6AA      α(0)
     1   6 C        3.754    -0.136    23.172     6.864
     2   6 C        3.063     0.099    25.752     8.322
     3   7 N        2.865     0.019    20.908     6.791
     4   6 C        3.691    -0.076    22.149     6.734
     5   6 C        3.073     0.030    27.259     8.560
     6   6 C        3.074     0.030    27.260     8.560
     7   7 N        2.864     0.020    20.906     6.791
     8   6 C        3.691    -0.076    22.146     6.734
     9   6 C        3.754    -0.126    22.967     6.833
    10   6 C        3.754    -0.126    22.966     6.833
    11   1 H        0.925     0.093     1.848     2.126
    12   1 H        0.924     0.097     1.816     2.108
    13   1 H        0.925     0.093     1.846     2.125
    14   1 H        0.924     0.092     1.857     2.131
    15   1 H        0.925     0.100     1.783     2.088
    16   1 H        0.925     0.092     1.861     2.133
    17   1 H        0.925     0.100     1.786     2.090
    18   1 H        0.924     0.093     1.855     2.130
    19   1 H        0.925     0.092     1.861     2.133
    20   1 H        0.925     0.081     1.968     2.194
    21   1 H        0.925     0.082     1.957     2.188
    22   1 H        0.925     0.082     1.960     2.190
    23   1 H        0.925     0.081     1.968     2.194
    24   1 H        0.925     0.082     1.961     2.190
    25   1 H        0.925     0.082     1.958     2.188

Wiberg/Mayer (AO) data.
largest (>0.10) Wiberg bond orders for each atom

     #   Z sym  total        # sym  WBO       # sym  WBO       # sym  WBO
 ---------------------------------------------------------------------------
     1   6 C    3.979 --     2 C    1.041    13 H    0.966    11 H    0.966
                            12 H    0.948
     2   6 C    3.952 --     7 N    1.321     3 N    1.320     1 C    1.041
     3   7 N    3.674 --     2 C    1.320     5 C    1.166     4 C    0.992
     4   6 C    3.941 --     3 N    0.992    16 H    0.973    15 H    0.968
                            14 H    0.963
     5   6 C    3.948 --     6 C    1.531     3 N    1.166    10 C    1.042
     6   6 C    3.948 --     5 C    1.531     7 N    1.166     9 C    1.042
     7   7 N    3.674 --     2 C    1.321     6 C    1.166     8 C    0.992
     8   6 C    3.942 --     7 N    0.992    19 H    0.973    17 H    0.967
                            18 H    0.963
     9   6 C    3.984 --     6 C    1.042    21 H    0.973    22 H    0.963
                            20 H    0.957
    10   6 C    3.984 --     5 C    1.042    25 H    0.973    24 H    0.964
                            23 H    0.957
    11   1 H    0.991 --     1 C    0.966
    12   1 H    0.990 --     1 C    0.948
    13   1 H    0.991 --     1 C    0.966
    14   1 H    0.991 --     4 C    0.963
    15   1 H    0.989 --     4 C    0.968
    16   1 H    0.991 --     4 C    0.973
    17   1 H    0.990 --     8 C    0.967
    18   1 H    0.991 --     8 C    0.963
    19   1 H    0.991 --     8 C    0.973
    20   1 H    0.993 --     9 C    0.957
    21   1 H    0.993 --     9 C    0.973
    22   1 H    0.993 --     9 C    0.963
    23   1 H    0.993 --    10 C    0.957
    24   1 H    0.993 --    10 C    0.964
    25   1 H    0.993 --    10 C    0.973
 ---------------------------------------------------------------------------

molecular dipole:
                 x           y           z       tot (Debye)
 q only:        0.885      -3.220       2.476
   full:        0.907      -3.146       2.418      10.346

           -------------------------------------------------
          | TOTAL ENERGY              -30.289587125087 Eh   |
          | GRADIENT NORM               0.000723320183 Eh/α |
          | HOMO-LUMO GAP               4.186252136643 eV   |
           -------------------------------------------------

 * finished run on 2024/12/20 at 06:50:07.753
