   * xtb version 6.7.1 (edcfbbe) compiled by 'conda@3ef47c1a292c' on 2024-11-25

   ID    Z sym.   atoms
    1    7 N      1, 4, 6
    2    6 C      2, 3, 5, 7-24
    3    1 H      25-42

          program call               : xtb C0602.xyz --opt --namespace C0602 --charge +1
          :  Hamiltonian                  GFN2-xTB          :
 * total energy  :   -62.5343048 Eh     change       -0.3573817E-09 Eh
 * total energy  :   -62.5432550 Eh     change       -0.8950206E-02 Eh
 * total energy  :   -62.5460349 Eh     change       -0.2779930E-02 Eh
 * total energy  :   -62.5463815 Eh     change       -0.3466332E-03 Eh
 * total energy  :   -62.5466192 Eh     change       -0.2376915E-03 Eh
 * total energy  :   -62.5467234 Eh     change       -0.1041587E-03 Eh
 * total energy  :   -62.5468171 Eh     change       -0.9376716E-04 Eh
 * total energy  :   -62.5468586 Eh     change       -0.4142722E-04 Eh
 * total energy  :   -62.5468814 Eh     change       -0.2282029E-04 Eh
 * total energy  :   -62.5469039 Eh     change       -0.2252323E-04 Eh
 * total energy  :   -62.5469263 Eh     change       -0.2236554E-04 Eh
 * total energy  :   -62.5469489 Eh     change       -0.2257123E-04 Eh
 * total energy  :   -62.5469585 Eh     change       -0.9664403E-05 Eh
 * total energy  :   -62.5469644 Eh     change       -0.5905337E-05 Eh
 * total energy  :   -62.5469704 Eh     change       -0.5932539E-05 Eh
 * total energy  :   -62.5469766 Eh     change       -0.6230628E-05 Eh
 * total energy  :   -62.5469817 Eh     change       -0.5095834E-05 Eh
 * total energy  :   -62.5469842 Eh     change       -0.2490814E-05 Eh
   *** GEOMETRY OPTIMIZATION CONVERGED AFTER 18 ITERATIONS ***

 final structure:
================
42
 xtb: 6.7.1 (edcfbbe)
N            0.99492123892020        0.08714787461936        0.28488813341637
C            0.21060809557051        1.15134146502481        0.58485067154223
C            0.32525057400730        2.47191872474067        0.23425382445705
N           -0.68812690755150        3.15435882816029        0.86000323638882
C           -1.42186506968139        2.29463058759697        1.57097328587184
N           -0.88395742747221        1.06043090694339        1.41652675089054
C           -1.39732685263789       -0.14872295066194        1.96235283078155
C           -2.71908247388070       -0.50291569152911        1.72421725052862
C           -3.21065924963627       -1.67984178104817        2.25992119210107
C           -2.38933390348818       -2.49764523220331        3.01977434271794
C           -1.07057128076391       -2.14075708522257        3.24813405376604
C           -0.56659720650032       -0.96375666652354        2.72115671107707
C           -2.60961779490576        2.60523686912594        2.35213283485235
C           -2.78304723294446        2.05571456191149        3.62329548181973
C           -3.91839109816384        2.35153752714721        4.35330527734897
C           -4.88898198859613        3.18879381387333        3.82648125736127
C           -4.72156125747690        3.73591674904864        2.56403479380242
C           -3.58876779760462        3.45057291472611        1.82660394921718
C           -0.84912301664469        4.56305861942070        0.79833564431800
C           -1.01393850811380        5.29365504998123        1.96829418317769
C           -1.15609811672063        6.66737972197532        1.89365577565921
C           -1.12860869646664        7.30660378072060        0.66446888862274
C           -0.95414412609838        6.57255715021485       -0.49717647921419
C           -0.81163780802597        5.19734244997592       -0.43625567536485
H            0.60166036314188       -0.83339427644955        0.40312546570286
H            1.63795208568148        0.19661401589797       -0.48072795134735
H            1.05675018891219        2.96528710974179       -0.36871154299131
H           -3.35099672997902        0.13666869481135        1.12726675873273
H           -4.23663272757098       -1.95852980131767        2.07954004751649
H           -2.77803651245431       -3.41396999438353        3.43468923768212
H           -0.43077395499111       -2.77505756402417        3.84103386801758
H            0.45476313415571       -0.66899422415270        2.90999037308711
H           -2.02107426090672        1.41755724867462        4.04431322094641
H           -4.04357593368205        1.92847229586014        5.33756823487115
H           -5.77501681054787        3.41433029277979        4.39863622234576
H           -5.47736774436051        4.38440168823786        2.14978585428134
H           -3.46847192066673        3.86631745875076        0.83748347699805
H           -1.02039596437576        4.79179469548512        2.92355107243696
H           -1.28134914290011        7.23857483703561        2.79976034204622
H           -1.23958151433083        8.37801897398288        0.61243673358253
H           -0.93039891520786        7.06860214380824       -1.45465345311632
H           -0.68702573504341        4.61837821724300       -1.33883617593387

          :  Hamiltonian                  GFN2-xTB          :
         :: total energy             -62.546984173243 Eh    ::
         :: gradient norm              0.000388666848 Eh/a0 ::
         :: HOMO-LUMO gap              2.908607162299 eV    ::
         :: SCC energy               -63.697323392754 Eh    ::
         :: -> dispersion             -0.051653186920 Eh    ::
         :: repulsion energy           1.150339219512 Eh    ::

    * Orbital Energies and Occupations

         #    Occupation            Energy/Eh            Energy/eV
      -------------------------------------------------------------
         1        2.0000           -0.8569674             -23.3193
       ...           ...                  ...                  ...
        46        2.0000           -0.5529874             -15.0476
        47        2.0000           -0.5494158             -14.9504
        48        2.0000           -0.5469050             -14.8820
        49        2.0000           -0.5461349             -14.8611
        50        2.0000           -0.5424751             -14.7615
        51        2.0000           -0.5409822             -14.7209
        52        2.0000           -0.5336285             -14.5208
        53        2.0000           -0.5311212             -14.4525
        54        2.0000           -0.5284046             -14.3786
        55        2.0000           -0.5264664             -14.3259
        56        2.0000           -0.5245894             -14.2748
        57        2.0000           -0.5215905             -14.1932
        58        2.0000           -0.4999931             -13.6055 (HOMO)
        59                         -0.3931038             -10.6969 (LUMO)
        60                         -0.3552693              -9.6674
        61                         -0.3501839              -9.5290
        62                         -0.3487554              -9.4901
        63                         -0.3455153              -9.4019
        64                         -0.3408940              -9.2762
        65                         -0.3171648              -8.6305
        66                         -0.3116243              -8.4797
        67                         -0.2202196              -5.9925
        68                         -0.2153633              -5.8603
        69                         -0.2108270              -5.7369
       ...                                ...                  ...
       114                          0.5610706              15.2675
      -------------------------------------------------------------
                  HL-Gap            0.1068893 Eh            2.9086 eV

     #   Z          covCN         q      C6AA      α(0)
     1   7 N        2.635    -0.258    26.703     7.675
     2   6 C        2.988     0.121    25.340     8.257
     3   6 C        3.033    -0.058    29.394     8.893
     4   7 N        2.861     0.030    20.724     6.761
     5   6 C        3.073     0.097    25.778     8.325
     6   7 N        2.869    -0.011    21.470     6.882
     7   6 C        2.917     0.051    26.859     8.499
     8   6 C        2.920    -0.036    28.903     8.816
     9   6 C        2.921    -0.019    28.492     8.753
    10   6 C        2.919    -0.019    28.490     8.753
    11   6 C        2.921    -0.021    28.532     8.759
    12   6 C        2.920    -0.042    29.035     8.836
    13   6 C        2.973    -0.002    28.062     8.689
    14   6 C        2.923    -0.028    28.709     8.787
    15   6 C        2.919    -0.020    28.510     8.756
    16   6 C        2.920    -0.016    28.401     8.739
    17   6 C        2.918    -0.020    28.504     8.755
    18   6 C        2.923    -0.028    28.706     8.786
    19   6 C        2.919     0.052    26.841     8.496
    20   6 C        2.920    -0.035    28.863     8.810
    21   6 C        2.921    -0.019    28.477     8.751
    22   6 C        2.919    -0.018    28.468     8.750
    23   6 C        2.921    -0.019    28.486     8.752
    24   6 C        2.921    -0.036    28.895     8.815
    25   1 H        0.860     0.199     1.114     1.653
    26   1 H        0.860     0.201     1.103     1.645
    27   1 H        0.927     0.084     1.941     2.179
    28   1 H        0.926     0.048     2.341     2.393
    29   1 H        0.926     0.064     2.153     2.295
    30   1 H        0.926     0.067     2.122     2.278
    31   1 H        0.926     0.065     2.142     2.288
    32   1 H        0.926     0.058     2.221     2.331
    33   1 H        0.926     0.043     2.409     2.427
    34   1 H        0.926     0.060     2.193     2.316
    35   1 H        0.926     0.064     2.150     2.293
    36   1 H        0.926     0.061     2.188     2.313
    37   1 H        0.926     0.043     2.415     2.430
    38   1 H        0.926     0.049     2.337     2.391
    39   1 H        0.926     0.064     2.151     2.294
    40   1 H        0.926     0.067     2.119     2.277
    41   1 H        0.926     0.066     2.134     2.285
    42   1 H        0.926     0.054     2.268     2.355

Wiberg/Mayer (AO) data.
largest (>0.10) Wiberg bond orders for each atom

     #   Z sym  total        # sym  WBO       # sym  WBO       # sym  WBO
 ---------------------------------------------------------------------------
     1   7 N    3.285 --     2 C    1.204    26 H    0.941    25 H    0.934
                             3 C    0.104
     2   6 C    3.954 --     3 C    1.464     1 N    1.204     6 N    1.147
     3   6 C    3.912 --     2 C    1.464     4 N    1.168    27 H    0.965
                             1 N    0.104     5 C    0.104
     4   7 N    3.687 --     5 C    1.321     3 C    1.168    19 C    0.986
     5   6 C    3.941 --     4 N    1.321     6 N    1.241    13 C    1.059
                             3 C    0.104
     6   7 N    3.637 --     5 C    1.241     2 C    1.147     7 C    0.980
     7   6 C    3.943 --    12 C    1.395     8 C    1.393     6 N    0.980
                            10 C    0.105
     8   6 C    3.989 --     9 C    1.445     7 C    1.393    28 H    0.967
                            11 C    0.110
     9   6 C    3.989 --     8 C    1.445    10 C    1.436    29 H    0.968
                            12 C    0.109
    10   6 C    3.986 --    11 C    1.440     9 C    1.436    30 H    0.968
                             7 C    0.105
    11   6 C    3.988 --    10 C    1.440    12 C    1.440    31 H    0.968
                             8 C    0.110
    12   6 C    3.987 --    11 C    1.440     7 C    1.395    32 H    0.966
                             9 C    0.109
    13   6 C    3.979 --    14 C    1.373    18 C    1.371     5 C    1.059
                            16 C    0.102
    14   6 C    3.987 --    15 C    1.453    13 C    1.373    33 H    0.968
                            17 C    0.106
    15   6 C    3.989 --    14 C    1.453    16 C    1.432    34 H    0.968
                            18 C    0.106
    16   6 C    3.977 --    15 C    1.432    17 C    1.431    35 H    0.968
                            13 C    0.102
    17   6 C    3.989 --    18 C    1.455    16 C    1.431    36 H    0.968
                            14 C    0.106
    18   6 C    3.988 --    17 C    1.455    13 C    1.371    37 H    0.968
                            15 C    0.106
    19   6 C    3.941 --    24 C    1.394    20 C    1.389     4 N    0.986
                            22 C    0.104
    20   6 C    3.989 --    21 C    1.446    19 C    1.389    38 H    0.967
                            23 C    0.110
    21   6 C    3.989 --    20 C    1.446    22 C    1.435    39 H    0.967
                            24 C    0.109
    22   6 C    3.984 --    23 C    1.439    21 C    1.435    40 H    0.968
                            19 C    0.104
    23   6 C    3.988 --    24 C    1.442    22 C    1.439    41 H    0.967
                            20 C    0.110
    24   6 C    3.986 --    23 C    1.442    19 C    1.394    42 H    0.967
                            21 C    0.109
    25   1 H    0.960 --     1 N    0.934
    26   1 H    0.959 --     1 N    0.941
    27   1 H    0.992 --     3 C    0.965
    28   1 H    0.998 --     8 C    0.967
    29   1 H    0.995 --     9 C    0.968
    30   1 H    0.995 --    10 C    0.968
    31   1 H    0.995 --    11 C    0.968
    32   1 H    0.997 --    12 C    0.966
    33   1 H    0.998 --    14 C    0.968
    34   1 H    0.995 --    15 C    0.968
    35   1 H    0.995 --    16 C    0.968
    36   1 H    0.995 --    17 C    0.968
    37   1 H    0.998 --    18 C    0.968
    38   1 H    0.998 --    20 C    0.967
    39   1 H    0.995 --    21 C    0.967
    40   1 H    0.995 --    22 C    0.968
    41   1 H    0.995 --    23 C    0.967
    42   1 H    0.997 --    24 C    0.967
 ---------------------------------------------------------------------------

molecular dipole:
                 x           y           z       tot (Debye)
 q only:       -2.421       3.707       2.686
   full:       -2.381       3.598       2.473      12.639

           -------------------------------------------------
          | TOTAL ENERGY              -62.546984173243 Eh   |
          | GRADIENT NORM               0.000388666848 Eh/α |
          | HOMO-LUMO GAP               2.908607162299 eV   |
           -------------------------------------------------

 * finished run on 2024/12/20 at 06:50:07.180
