   * xtb version 6.7.1 (edcfbbe) compiled by 'conda@3ef47c1a292c' on 2024-11-25

   ID    Z sym.   atoms
    1    6 C      1-3, 5, 7-15
    2    7 N      4, 6
    3    1 H      16-28

          program call               : xtb C0608.xyz --opt --namespace C0608 --charge +1
          :  Hamiltonian                  GFN2-xTB          :
 * total energy  :   -39.8184320 Eh     change       -0.9473311E-09 Eh
 * total energy  :   -39.8442208 Eh     change       -0.2578881E-01 Eh
 * total energy  :   -39.8460421 Eh     change       -0.1821331E-02 Eh
 * total energy  :   -39.8461321 Eh     change       -0.8994320E-04 Eh
 * total energy  :   -39.8462982 Eh     change       -0.1661956E-03 Eh
 * total energy  :   -39.8463534 Eh     change       -0.5510838E-04 Eh
 * total energy  :   -39.8463799 Eh     change       -0.2650305E-04 Eh
 * total energy  :   -39.8463979 Eh     change       -0.1806073E-04 Eh
 * total energy  :   -39.8464169 Eh     change       -0.1899136E-04 Eh
 * total energy  :   -39.8464355 Eh     change       -0.1858554E-04 Eh
 * total energy  :   -39.8475757 Eh     change       -0.1335027E-04 Eh
 * total energy  :   -39.8475816 Eh     change       -0.5871576E-05 Eh
 * total energy  :   -39.8475884 Eh     change       -0.6806776E-05 Eh
 * total energy  :   -39.8475947 Eh     change       -0.6381941E-05 Eh
 * total energy  :   -39.8475901 Eh     change        0.4663273E-05 Eh
 * total energy  :   -39.8475991 Eh     change       -0.9048460E-05 Eh
 * total energy  :   -39.8475983 Eh     change        0.8462881E-06 Eh
 * total energy  :   -39.8475996 Eh     change       -0.1358619E-05 Eh
 * total energy  :   -39.8476034 Eh     change       -0.3729518E-05 Eh
   *** GEOMETRY OPTIMIZATION CONVERGED AFTER 70 ITERATIONS ***

 final structure:
================
28
 xtb: 6.7.1 (edcfbbe)
C            0.84197297732446       -0.04991506305144       -0.06843770693404
C            0.03548892290996       -0.82164656288720       -0.76968140859520
C           -1.46604345241104       -0.70348667677202       -0.73555485335996
N           -2.00148765300892       -0.55639399146897       -2.07290234525675
C           -2.33875948959699        0.58429563388396       -2.66355733058653
N           -2.73835719836368        0.37990403805353       -3.91356047127205
C           -2.65295091577710       -0.97259361158210       -4.16989486086860
C           -2.17663942368117       -1.57357423602872       -2.98868126693292
C           -1.97914393069489       -2.94743180247728       -2.90892489147531
C           -2.26964305945456       -3.68597032785653       -4.03701825087999
C           -2.74072709743500       -3.08767881101006       -5.21014698286797
C           -2.94186004429210       -1.72613530124264       -5.30156343081303
C           -3.19068890783523        1.37805265105619       -4.86526545432091
C           -3.28754941693170        2.69703853334891       -4.27271033569290
C           -3.37258151958660        3.78891105723124       -3.79116910230660
H            0.47190753522773        0.72631583417756        0.58080012016464
H            1.90946245965207       -0.17631166364046       -0.09982346366659
H            0.42203500088010       -1.60150707928653       -1.41074028228110
H           -1.90155550205381       -1.60635051684601       -0.29586270160793
H           -1.76602664238804        0.16003407906556       -0.13921099852736
H           -2.30324787017325        1.55125713102105       -2.19733550121564
H           -1.61559057481977       -3.41730801380026       -2.00990714928896
H           -2.13025877006069       -4.75493933377094       -4.01707181660730
H           -2.95232226238139       -3.71031038474985       -6.06455906636784
H           -3.30527717251602       -1.27245352745380       -6.20894920939703
H           -2.48867815993471        1.40755100574582       -5.70765468821169
H           -4.17398518448204        1.07738643181503       -5.24585870234251
H           -3.45831264810874        4.75487050852755       -3.38842784848576

          :  Hamiltonian                  GFN2-xTB          :
         :: total energy             -39.847603372683 Eh    ::
         :: gradient norm              0.000462879414 Eh/a0 ::
         :: HOMO-LUMO gap              3.433217187919 eV    ::
         :: SCC energy               -40.606036070969 Eh    ::
         :: -> dispersion             -0.025801240510 Eh    ::
         :: repulsion energy           0.758432698286 Eh    ::

    * Orbital Energies and Occupations

         #    Occupation            Energy/Eh            Energy/eV
      -------------------------------------------------------------
         1        2.0000           -0.8825753             -24.0161
       ...           ...                  ...                  ...
        25        2.0000           -0.6282816             -17.0964
        26        2.0000           -0.6210482             -16.8996
        27        2.0000           -0.6122009             -16.6588
        28        2.0000           -0.6116666             -16.6443
        29        2.0000           -0.5922848             -16.1169
        30        2.0000           -0.5830849             -15.8665
        31        2.0000           -0.5765023             -15.6874
        32        2.0000           -0.5653309             -15.3834
        33        2.0000           -0.5592370             -15.2176
        34        2.0000           -0.5566669             -15.1477
        35        2.0000           -0.5533402             -15.0572
        36        2.0000           -0.5440453             -14.8042
        37        2.0000           -0.5423862             -14.7591 (HOMO)
        38                         -0.4162178             -11.3259 (LUMO)
        39                         -0.3670126              -9.9869
        40                         -0.3582872              -9.7495
        41                         -0.3400674              -9.2537
        42                         -0.3066218              -8.3436
        43                         -0.2896036              -7.8805
        44                         -0.2409241              -6.5559
        45                         -0.1694194              -4.6101
        46                         -0.1241100              -3.3772
        47                         -0.0835714              -2.2741
        48                         -0.0625297              -1.7015
       ...                                ...                  ...
        73                          1.2959353              35.2642
      -------------------------------------------------------------
                  HL-Gap            0.1261684 Eh            3.4332 eV

     #   Z          covCN         q      C6AA      α(0)
     1   6 C        2.837    -0.079    29.966     8.971
     2   6 C        2.886    -0.041    29.007     8.830
     3   6 C        3.745    -0.019    20.989     6.535
     4   7 N        2.830     0.033    20.659     6.751
     5   6 C        3.068     0.068    26.413     8.427
     6   7 N        2.833     0.036    20.609     6.742
     7   6 C        3.119     0.037    27.010     8.512
     8   6 C        3.120     0.041    26.901     8.495
     9   6 C        2.908    -0.031    28.779     8.797
    10   6 C        2.925    -0.017    28.441     8.746
    11   6 C        2.926    -0.017    28.431     8.744
    12   6 C        2.908    -0.033    28.827     8.804
    13   6 C        3.742     0.002    20.627     6.480
    14   6 C        1.965    -0.029    31.837     9.112
    15   6 C        1.909    -0.074    33.133     9.296
    16   1 H        0.926     0.065     2.138     2.286
    17   1 H        0.926     0.078     1.997     2.210
    18   1 H        0.926     0.057     2.230     2.335
    19   1 H        0.924     0.092     1.864     2.135
    20   1 H        0.924     0.083     1.945     2.181
    21   1 H        0.926     0.108     1.711     2.045
    22   1 H        0.926     0.073     2.048     2.238
    23   1 H        0.926     0.081     1.965     2.192
    24   1 H        0.926     0.081     1.966     2.192
    25   1 H        0.926     0.071     2.074     2.252
    26   1 H        0.924     0.105     1.743     2.065
    27   1 H        0.924     0.105     1.737     2.061
    28   1 H        0.928     0.122     1.595     1.975

Wiberg/Mayer (AO) data.
largest (>0.10) Wiberg bond orders for each atom

     #   Z sym  total        # sym  WBO       # sym  WBO       # sym  WBO
 ---------------------------------------------------------------------------
     1   6 C    3.984 --     2 C    1.989    16 H    0.972    17 H    0.970
     2   6 C    3.981 --     1 C    1.989     3 C    0.995    18 H    0.963
     3   6 C    3.940 --     2 C    0.995    20 H    0.965     4 N    0.962
                            19 H    0.950
     4   7 N    3.684 --     5 C    1.371     8 C    1.128     3 C    0.962
                             6 N    0.104
     5   6 C    3.954 --     4 N    1.371     6 N    1.370    21 H    0.951
     6   7 N    3.682 --     5 C    1.370     7 C    1.127    13 C    0.958
                             4 N    0.104
     7   6 C    3.952 --    12 C    1.339     8 C    1.273     6 N    1.127
     8   6 C    3.952 --     9 C    1.338     7 C    1.273     4 N    1.128
     9   6 C    3.986 --    10 C    1.497     8 C    1.338    22 H    0.963
                            12 C    0.119
    10   6 C    3.985 --     9 C    1.497    11 C    1.376    23 H    0.966
    11   6 C    3.986 --    12 C    1.496    10 C    1.376    24 H    0.966
    12   6 C    3.986 --    11 C    1.496     7 C    1.339    25 H    0.964
                             9 C    0.119
    13   6 C    3.948 --    14 C    1.046     6 N    0.958    27 H    0.937
                            26 H    0.936
    14   6 C    3.978 --    15 C    2.903    13 C    1.046
    15   6 C    3.964 --    14 C    2.903    28 H    0.962
    16   1 H    0.996 --     1 C    0.972
    17   1 H    0.993 --     1 C    0.970
    18   1 H    0.997 --     2 C    0.963
    19   1 H    0.991 --     3 C    0.950
    20   1 H    0.992 --     3 C    0.965
    21   1 H    0.987 --     5 C    0.951
    22   1 H    0.994 --     9 C    0.963
    23   1 H    0.993 --    10 C    0.966
    24   1 H    0.993 --    11 C    0.966
    25   1 H    0.994 --    12 C    0.964
    26   1 H    0.988 --    13 C    0.936
    27   1 H    0.988 --    13 C    0.937
    28   1 H    0.985 --    15 C    0.962
 ---------------------------------------------------------------------------

molecular dipole:
                 x           y           z       tot (Debye)
 q only:       -4.200      -0.603      -5.851
   full:       -4.267      -0.479      -5.805      18.353

           -------------------------------------------------
          | TOTAL ENERGY              -39.847603372683 Eh   |
          | GRADIENT NORM               0.000462879414 Eh/α |
          | HOMO-LUMO GAP               3.433217187919 eV   |
           -------------------------------------------------

 * finished run on 2024/12/20 at 06:50:26.324
