   * xtb version 6.7.1 (edcfbbe) compiled by 'conda@3ef47c1a292c' on 2024-11-25

   ID    Z sym.   atoms
    1    6 C      1, 2, 4-9, 11
    2    7 N      3
    3    8 O      10
    4    1 H      12-23

          program call               : xtb C0605.xyz --opt --namespace C0605 --charge +1
          :  Hamiltonian                  GFN2-xTB          :
 * total energy  :   -31.9466356 Eh     change       -0.1385132E-09 Eh
 * total energy  :   -31.9514781 Eh     change       -0.4842538E-02 Eh
 * total energy  :   -31.9526755 Eh     change       -0.1197412E-02 Eh
 * total energy  :   -31.9530566 Eh     change       -0.3810685E-03 Eh
 * total energy  :   -31.9534064 Eh     change       -0.3498285E-03 Eh
 * total energy  :   -31.9536459 Eh     change       -0.2395102E-03 Eh
 * total energy  :   -31.9541100 Eh     change       -0.4640348E-03 Eh
 * total energy  :   -31.9547423 Eh     change       -0.6323520E-03 Eh
 * total energy  :   -31.9553279 Eh     change       -0.5856170E-03 Eh
 * total energy  :   -31.9555147 Eh     change       -0.1867916E-03 Eh
 * total energy  :   -31.9580012 Eh     change       -0.2076304E-03 Eh
 * total energy  :   -31.9580280 Eh     change       -0.2677141E-04 Eh
 * total energy  :   -31.9580545 Eh     change       -0.2644681E-04 Eh
 * total energy  :   -31.9580720 Eh     change       -0.1759467E-04 Eh
 * total energy  :   -31.9580908 Eh     change       -0.1879704E-04 Eh
 * total energy  :   -31.9581122 Eh     change       -0.2140411E-04 Eh
 * total energy  :   -31.9581294 Eh     change       -0.1710453E-04 Eh
 * total energy  :   -31.9581398 Eh     change       -0.1042402E-04 Eh
 * total energy  :   -31.9581434 Eh     change       -0.3631208E-05 Eh
   *** GEOMETRY OPTIMIZATION CONVERGED AFTER 26 ITERATIONS ***

 final structure:
================
23
 xtb: 6.7.1 (edcfbbe)
C            0.75050884712400       -0.55828268965187       -0.10202151076299
C            0.39356485111990        0.37525400981413       -1.24878439740402
N            1.02145709687769        0.04390486847085       -2.51954811293727
C            0.92115546404257        0.95687202610017       -3.49891481699463
C            1.32219958537494        0.67349690936930       -4.78849960442737
C            1.83773156787801       -0.58038803729373       -5.08058237081520
C            1.93981861599887       -1.51015998629162       -4.05261274191585
C            1.50943665608424       -1.17511806638248       -2.78739226737919
C           -1.14800106268713        0.46525598420678       -1.53755567515606
O           -1.52054409307419        0.53509962948125       -2.67384269189867
C           -2.02232751427352        0.49355261157604       -0.33670043342436
H            0.29270562618655       -1.53834325581687       -0.21150535059024
H            0.40218163963680       -0.12915714884189        0.83249798617039
H            1.82992175539642       -0.66967075406233       -0.02197029041212
H            0.69808552880605        1.39655948842051       -0.98589586488008
H            0.53571059454311        1.93075343118831       -3.23879668373129
H            1.22477194372439        1.42928024877649       -5.55082912707918
H            2.15334665518962       -0.82889602016583       -6.08146951281675
H            2.33788099002807       -2.49597898209475       -4.23202278744007
H            1.55819513406099       -1.88788639097026       -1.98073579129667
H           -2.07300922383403       -0.50103795662656        0.10451132111464
H           -1.63864949144605        1.17656355814449        0.41687140618811
H           -3.02690116675622        0.78857652265288       -0.63017068211143

          :  Hamiltonian                  GFN2-xTB          :
         :: total energy             -31.958143405825 Eh    ::
         :: gradient norm              0.000457661208 Eh/a0 ::
         :: HOMO-LUMO gap              2.883588351429 eV    ::
         :: SCC energy               -32.453195480963 Eh    ::
         :: -> dispersion             -0.018114802081 Eh    ::
         :: repulsion energy           0.495052075138 Eh    ::

    * Orbital Energies and Occupations

         #    Occupation            Energy/Eh            Energy/eV
      -------------------------------------------------------------
         1        2.0000           -0.8810137             -23.9736
       ...           ...                  ...                  ...
        17        2.0000           -0.6775848             -18.4380
        18        2.0000           -0.6721223             -18.2894
        19        2.0000           -0.6639327             -18.0665
        20        2.0000           -0.6464383             -17.5905
        21        2.0000           -0.6323730             -17.2077
        22        2.0000           -0.6289589             -17.1148
        23        2.0000           -0.6252411             -17.0137
        24        2.0000           -0.6194248             -16.8554
        25        2.0000           -0.6161498             -16.7663
        26        2.0000           -0.6136471             -16.6982
        27        2.0000           -0.6096049             -16.5882
        28        2.0000           -0.6033049             -16.4168
        29        2.0000           -0.5595384             -15.2258 (HOMO)
        30                         -0.4535685             -12.3422 (LUMO)
        31                         -0.4211315             -11.4596
        32                         -0.4088729             -11.1260
        33                         -0.3020336              -8.2188
        34                         -0.1803496              -4.9076
        35                         -0.1220326              -3.3207
        36                         -0.0704871              -1.9181
        37                         -0.0671118              -1.8262
        38                         -0.0410901              -1.1181
        39                         -0.0272449              -0.7414
        40                         -0.0126219              -0.3435
       ...                                ...                  ...
        56                          0.4913453              13.3702
      -------------------------------------------------------------
                  HL-Gap            0.1059699 Eh            2.8836 eV

     #   Z          covCN         q      C6AA      α(0)
     1   6 C        3.752    -0.132    23.097     6.854
     2   6 C        3.806    -0.009    20.731     6.482
     3   7 N        2.752     0.104    19.453     6.551
     4   6 C        2.899     0.043    27.026     8.524
     5   6 C        2.916    -0.007    28.189     8.706
     6   6 C        2.924     0.015    27.687     8.629
     7   6 C        2.916    -0.011    28.294     8.723
     8   6 C        2.885     0.031    27.307     8.567
     9   6 C        2.808     0.244    22.923     7.844
    10   8 O        0.857    -0.318    20.113     6.013
    11   6 C        3.754    -0.153    23.518     6.915
    12   1 H        0.925     0.070     2.082     2.256
    13   1 H        0.925     0.091     1.871     2.139
    14   1 H        0.925     0.078     2.004     2.214
    15   1 H        0.924     0.100     1.782     2.088
    16   1 H        0.926     0.108     1.714     2.047
    17   1 H        0.926     0.109     1.703     2.041
    18   1 H        0.926     0.107     1.724     2.053
    19   1 H        0.926     0.106     1.732     2.058
    20   1 H        0.926     0.111     1.687     2.031
    21   1 H        0.925     0.110     1.693     2.034
    22   1 H        0.925     0.095     1.835     2.118
    23   1 H        0.925     0.108     1.713     2.047

Wiberg/Mayer (AO) data.
largest (>0.10) Wiberg bond orders for each atom

     #   Z sym  total        # sym  WBO       # sym  WBO       # sym  WBO
 ---------------------------------------------------------------------------
     1   6 C    3.978 --     2 C    1.006    12 H    0.980    14 H    0.976
                            13 H    0.973
     2   6 C    3.946 --     1 C    1.006     3 N    0.968    15 H    0.931
                             9 C    0.894
     3   7 N    3.755 --     8 C    1.312     4 C    1.307     2 C    0.968
     4   6 C    3.957 --     5 C    1.454     3 N    1.307    16 H    0.955
     5   6 C    3.980 --     4 C    1.454     6 C    1.429    17 H    0.959
     6   6 C    3.967 --     5 C    1.429     7 C    1.411    18 H    0.961
     7   6 C    3.982 --     8 C    1.472     6 C    1.411    19 H    0.959
     8   6 C    3.956 --     7 C    1.472     3 N    1.312    20 H    0.950
     9   6 C    3.917 --    10 O    1.890    11 C    1.033     2 C    0.894
    10   8 O    2.150 --     9 C    1.890
    11   6 C    3.978 --     9 C    1.033    23 H    0.968    22 H    0.954
                            21 H    0.932
    12   1 H    0.995 --     1 C    0.980
    13   1 H    0.991 --     1 C    0.973
    14   1 H    0.994 --     1 C    0.976
    15   1 H    0.990 --     2 C    0.931
    16   1 H    0.988 --     4 C    0.955
    17   1 H    0.988 --     5 C    0.959
    18   1 H    0.989 --     6 C    0.961
    19   1 H    0.988 --     7 C    0.959
    20   1 H    0.988 --     8 C    0.950
    21   1 H    0.988 --    11 C    0.932
    22   1 H    0.991 --    11 C    0.954
    23   1 H    0.987 --    11 C    0.968
 ---------------------------------------------------------------------------

molecular dipole:
                 x           y           z       tot (Debye)
 q only:        1.890      -0.259      -4.300
   full:        1.956      -0.222      -4.184      11.752

           -------------------------------------------------
          | TOTAL ENERGY              -31.958143405825 Eh   |
          | GRADIENT NORM               0.000457661208 Eh/α |
          | HOMO-LUMO GAP               2.883588351429 eV   |
           -------------------------------------------------

 * finished run on 2024/12/20 at 06:50:12.310
