   * xtb version 6.7.1 (edcfbbe) compiled by 'conda@3ef47c1a292c' on 2024-11-25

   ID    Z sym.   atoms
    1    6 C      1, 2, 4-7, 11, 12, 14, 16-18
    2    7 N      3, 13, 15, 19
    3    9 F      8-10
    4    1 H      20-35

          program call               : xtb C0601.xyz --opt --namespace C0601 --charge +1
          :  Hamiltonian                  GFN2-xTB          :
 * total energy  :   -59.3816063 Eh     change       -0.3443219E-09 Eh
 * total energy  :   -59.3899591 Eh     change       -0.8352839E-02 Eh
 * total energy  :   -59.3918104 Eh     change       -0.1851224E-02 Eh
 * total energy  :   -59.3921030 Eh     change       -0.2926790E-03 Eh
 * total energy  :   -59.3924415 Eh     change       -0.3384468E-03 Eh
 * total energy  :   -59.3926175 Eh     change       -0.1760519E-03 Eh
 * total energy  :   -59.3927866 Eh     change       -0.1690374E-03 Eh
 * total energy  :   -59.3929716 Eh     change       -0.1850228E-03 Eh
 * total energy  :   -59.3931297 Eh     change       -0.1580584E-03 Eh
 * total energy  :   -59.3932573 Eh     change       -0.1276746E-03 Eh
 * total energy  :   -59.3995783 Eh     change       -0.1403191E-03 Eh
 * total energy  :   -59.3996492 Eh     change       -0.7090565E-04 Eh
 * total energy  :   -59.3997326 Eh     change       -0.8339143E-04 Eh
 * total energy  :   -59.3996759 Eh     change        0.5677739E-04 Eh
 * total energy  :   -59.3997621 Eh     change       -0.8626950E-04 Eh
 * total energy  :   -59.3997760 Eh     change       -0.1384229E-04 Eh
 * total energy  :   -59.3997956 Eh     change       -0.1963077E-04 Eh
 * total energy  :   -59.3998008 Eh     change       -0.5229489E-05 Eh
 * total energy  :   -59.3998043 Eh     change       -0.3526218E-05 Eh
   *** GEOMETRY OPTIMIZATION CONVERGED AFTER 109 ITERATIONS ***

 final structure:
================
35
 xtb: 6.7.1 (edcfbbe)
C            1.28770349048385        0.53612511410341        1.20862897009809
C            0.79125696274077       -0.60416395376704        0.42366550210446
N            1.42593235129636       -1.74462622220313        0.13103877860432
C            2.79559420669852       -2.07946783320479        0.46754615695484
C            3.55246764895042       -2.77374828567912       -0.67046023112706
C            3.50532816201099       -2.04835523808502       -2.01930248618189
C            3.91090784097230       -0.58589542656492       -1.93055537561389
F            4.94616462848358       -0.38015459341776       -1.11168299914270
F            4.21904055108480       -0.07662379724697       -3.11832817194850
F            2.89896541528422        0.17591190090527       -1.44186053519847
C            0.57247553731554       -2.55380627257233       -0.57240492467886
C           -0.59424753595999       -1.88188783770381       -0.72047688309640
N           -0.44076227985928       -0.66956289335688       -0.10653727676979
C           -1.47008192154222        0.35515392028643        0.01076070229515
N           -2.13406470646789        0.27248151566381        1.27159256242023
C           -3.37031734393515       -0.21069018431566        1.55513919765155
C           -3.53932545700630       -0.09526484241439        2.90942206206153
C           -2.33764469430464        0.46639538124168        3.37538710732539
N           -1.50243576820843        0.67934540890391        2.38370944474715
H            2.17107807577453        0.27693197020214        1.78163592815975
H            0.49947345155704        0.86222273340453        1.89656259341278
H            1.53761692302125        1.36992983190947        0.55196928565390
H            3.31324821427765       -1.15901661433154        0.73995370388258
H            2.79512025419954       -2.74160862902214        1.33952018085190
H            4.59155768895653       -2.85598040331827       -0.34751266523855
H            3.17818612191650       -3.78680466477534       -0.81811181046780
H            4.19716503269363       -2.53386601983119       -2.70984237016735
H            2.50811253203933       -2.07712741773617       -2.46408693375435
H            0.84332750437071       -3.53522191002375       -0.90073598129561
H           -1.50029886300680       -2.16907248208066       -1.21260211179802
H           -0.99178858268013        1.33635936354298       -0.08794268999675
H           -2.19374186762686        0.21084787959549       -0.79557121699935
H           -4.02356136557277       -0.57493363799802        0.78869889221394
H           -4.39663208790507       -0.36599568724372        3.48803861970556
H           -2.06177012007242        0.71789982710168        4.37919497533176

          :  Hamiltonian                  GFN2-xTB          :
         :: total energy             -59.399804349287 Eh    ::
         :: gradient norm              0.000558924125 Eh/a0 ::
         :: HOMO-LUMO gap              3.276628662479 eV    ::
         :: SCC energy               -60.076980179256 Eh    ::
         :: -> dispersion             -0.033195824694 Eh    ::
         :: repulsion energy           0.677175829970 Eh    ::

    * Orbital Energies and Occupations

         #    Occupation            Energy/Eh            Energy/eV
      -------------------------------------------------------------
         1        2.0000           -0.9944997             -27.0617
       ...           ...                  ...                  ...
        40        2.0000           -0.6344149             -17.2633
        41        2.0000           -0.6265027             -17.0480
        42        2.0000           -0.6200702             -16.8730
        43        2.0000           -0.6119800             -16.6528
        44        2.0000           -0.6081447             -16.5485
        45        2.0000           -0.6014937             -16.3675
        46        2.0000           -0.5927508             -16.1296
        47        2.0000           -0.5846165             -15.9082
        48        2.0000           -0.5729313             -15.5903
        49        2.0000           -0.5702202             -15.5165
        50        2.0000           -0.5290316             -14.3957
        51        2.0000           -0.5204592             -14.1624
        52        2.0000           -0.5189406             -14.1211 (HOMO)
        53                         -0.3985267             -10.8445 (LUMO)
        54                         -0.3688051             -10.0357
        55                         -0.3413563              -9.2888
        56                         -0.2737544              -7.4492
        57                         -0.1947186              -5.2986
        58                         -0.1426422              -3.8815
        59                         -0.1216869              -3.3113
        60                         -0.1045613              -2.8453
        61                         -0.0952490              -2.5919
        62                         -0.0907914              -2.4706
        63                         -0.0711065              -1.9349
       ...                                ...                  ...
        92                          0.5638968              15.3444
      -------------------------------------------------------------
                  HL-Gap            0.1204139 Eh            3.2766 eV

     #   Z          covCN         q      C6AA      α(0)
     1   6 C        3.754    -0.159    23.642     6.933
     2   6 C        3.085     0.123    25.210     8.231
     3   7 N        2.869     0.044    20.478     6.721
     4   6 C        3.740    -0.027    21.135     6.560
     5   6 C        3.801    -0.073    21.901     6.663
     6   6 C        3.803    -0.095    22.319     6.726
     7   6 C        3.329     0.486    17.381     6.618
     8   9 F        0.791    -0.196    11.191     3.952
     9   9 F        0.791    -0.186    11.096     3.935
    10   9 F        0.790    -0.229    11.542     4.013
    11   6 C        3.047    -0.012    28.278     8.722
    12   6 C        3.035    -0.009    28.212     8.712
    13   7 N        2.878     0.024    20.828     6.778
    14   6 C        3.681     0.031    20.267     6.447
    15   7 N        3.040     0.065    20.101     6.659
    16   6 C        3.019    -0.011    28.269     8.722
    17   6 C        3.021    -0.058    29.408     8.895
    18   6 C        3.113     0.040    26.959     8.506
    19   7 N        2.002    -0.239    27.031     7.711
    20   1 H        0.925     0.096     1.824     2.112
    21   1 H        0.924     0.139     1.465     1.893
    22   1 H        0.924     0.117     1.639     2.002
    23   1 H        0.924     0.097     1.811     2.104
    24   1 H        0.924     0.093     1.849     2.126
    25   1 H        0.924     0.094     1.842     2.123
    26   1 H        0.925     0.078     2.005     2.214
    27   1 H        0.924     0.103     1.755     2.072
    28   1 H        0.924     0.079     1.993     2.208
    29   1 H        0.927     0.103     1.756     2.072
    30   1 H        0.927     0.101     1.774     2.083
    31   1 H        0.924     0.112     1.683     2.029
    32   1 H        0.924     0.102     1.766     2.078
    33   1 H        0.926     0.052     2.297     2.370
    34   1 H        0.927     0.059     2.209     2.324
    35   1 H        0.926     0.058     2.220     2.330

Wiberg/Mayer (AO) data.
largest (>0.10) Wiberg bond orders for each atom

     #   Z sym  total        # sym  WBO       # sym  WBO       # sym  WBO
 ---------------------------------------------------------------------------
     1   6 C    3.964 --     2 C    1.058    20 H    0.966    22 H    0.934
                            21 H    0.921
     2   6 C    3.947 --     3 N    1.337    13 N    1.309     1 C    1.058
     3   7 N    3.691 --     2 C    1.337    11 C    1.194     4 C    0.971
     4   6 C    3.945 --     5 C    1.000     3 N    0.971    23 H    0.960
                            24 H    0.954
     5   6 C    3.984 --     6 C    1.007     4 C    1.000    26 H    0.971
                            25 H    0.966
     6   6 C    3.980 --     5 C    1.007    28 H    0.967    27 H    0.963
                             7 C    0.959
     7   6 C    3.832 --     9 F    0.971     6 C    0.959     8 F    0.958
                            10 F    0.921
     8   9 F    1.085 --     7 C    0.958
     9   9 F    1.096 --     7 C    0.971
    10   9 F    1.045 --     7 C    0.921
    11   6 C    3.948 --    12 C    1.625     3 N    1.194    29 H    0.960
    12   6 C    3.949 --    11 C    1.625    13 N    1.197    30 H    0.962
    13   7 N    3.674 --     2 C    1.309    12 C    1.197    14 C    0.957
    14   6 C    3.945 --    15 N    1.010    32 H    0.959    13 N    0.957
                            31 H    0.950
    15   7 N    3.632 --    16 C    1.234    19 N    1.163    14 C    1.010
    16   6 C    3.955 --    17 C    1.548    15 N    1.234    33 H    0.967
                            19 N    0.164
    17   6 C    3.983 --    16 C    1.548    18 C    1.342    34 H    0.971
    18   6 C    3.977 --    19 N    1.536    17 C    1.342    35 H    0.967
    19   7 N    2.984 --    18 C    1.536    15 N    1.163    16 C    0.164
    20   1 H    0.990 --     1 C    0.966
    21   1 H    0.980 --     1 C    0.921
    22   1 H    0.986 --     1 C    0.934
    23   1 H    0.990 --     4 C    0.960
    24   1 H    0.991 --     4 C    0.954
    25   1 H    0.991 --     5 C    0.966
    26   1 H    0.994 --     5 C    0.971
    27   1 H    0.989 --     6 C    0.963
    28   1 H    0.994 --     6 C    0.967
    29   1 H    0.989 --    11 C    0.960
    30   1 H    0.989 --    12 C    0.962
    31   1 H    0.987 --    14 C    0.950
    32   1 H    0.989 --    14 C    0.959
    33   1 H    0.997 --    16 C    0.967
    34   1 H    0.996 --    17 C    0.971
    35   1 H    0.997 --    18 C    0.967
 ---------------------------------------------------------------------------

molecular dipole:
                 x           y           z       tot (Debye)
 q only:        0.828      -2.953       0.155
   full:        0.433      -3.158       0.002       8.101

           -------------------------------------------------
          | TOTAL ENERGY              -59.399804349287 Eh   |
          | GRADIENT NORM               0.000558924125 Eh/α |
          | HOMO-LUMO GAP               3.276628662479 eV   |
           -------------------------------------------------

 * finished run on 2024/12/20 at 06:50:06.363
