   * xtb version 6.7.1 (edcfbbe) compiled by 'conda@3ef47c1a292c' on 2024-11-25

   ID    Z sym.   atoms
    1    6 C      1-12, 14-16, 18-20, 22-27
    2    7 N      13, 21
    3   17 Cl     17, 30
    4    8 O      28, 29
    5    1 H      31-67

          program call               : xtb C0607.xyz --opt --namespace C0607 --charge +1
          :  Hamiltonian                  GFN2-xTB          :
 * total energy  :   -93.0494395 Eh     change       -0.3190110E-08 Eh
 * total energy  :   -93.0570606 Eh     change       -0.7621094E-02 Eh
 * total energy  :   -93.0588970 Eh     change       -0.1836356E-02 Eh
 * total energy  :   -93.0593792 Eh     change       -0.4822189E-03 Eh
 * total energy  :   -93.0600286 Eh     change       -0.6493865E-03 Eh
 * total energy  :   -93.0604298 Eh     change       -0.4011961E-03 Eh
 * total energy  :   -93.0611022 Eh     change       -0.6724383E-03 Eh
 * total energy  :   -93.0617116 Eh     change       -0.6093465E-03 Eh
 * total energy  :   -93.0624881 Eh     change       -0.7765653E-03 Eh
 * total energy  :   -93.0630299 Eh     change       -0.5417212E-03 Eh
 * total energy  :   -93.0682580 Eh     change       -0.1333927E-04 Eh
 * total energy  :   -93.0682730 Eh     change       -0.1506521E-04 Eh
 * total energy  :   -93.0682848 Eh     change       -0.1180366E-04 Eh
 * total energy  :   -93.0683059 Eh     change       -0.2105998E-04 Eh
 * total energy  :   -93.0683215 Eh     change       -0.1563673E-04 Eh
 * total energy  :   -93.0683334 Eh     change       -0.1188205E-04 Eh
 * total energy  :   -93.0683447 Eh     change       -0.1123787E-04 Eh
 * total energy  :   -93.0683543 Eh     change       -0.9688446E-05 Eh
 * total energy  :   -93.0683589 Eh     change       -0.4505173E-05 Eh
   *** GEOMETRY OPTIMIZATION CONVERGED AFTER 44 ITERATIONS ***

 final structure:
================
67
 xtb: 6.7.1 (edcfbbe)
C            1.30810765895150       -0.02120704138912        0.84270599685412
C            1.02065753745089        1.47152071652433        0.73265789888488
C            1.54541253414157        2.09373600510233       -0.56235608380807
C            0.93268151011778        1.52835269628151       -1.84539760526000
C           -0.58793924196730        1.66014244755849       -1.94800434398514
C           -1.11493859688153        3.09557449307803       -1.89590771600211
C           -0.60190145490628        4.01459184739922       -3.00703967415679
C           -0.86133081491749        3.51988334518549       -4.43194693851328
C           -2.33139827018345        3.25474816007886       -4.76673322628693
C           -3.20115338932291        4.51447588558513       -4.79852099772435
C           -2.99965111019931        5.38109672456772       -6.04239657004989
C           -3.58647264911873        4.77097639852129       -7.32171060281493
N           -5.02666791116085        4.66319277907041       -7.24141248011433
C           -5.87454061771237        5.74882385960295       -7.31316319734272
C           -5.64140376067166        7.09332203227545       -7.56819902765648
C           -6.73497979120458        7.94158109431488       -7.56142240854092
Cl          -6.50537435074861        9.61070618477888       -7.87231758530421
C           -8.03594476256601        7.45715218350660       -7.29723972330934
C           -8.26655624926534        6.11465748901200       -7.05131551516101
C           -7.16976442987661        5.26372150411821       -7.07189486413527
N           -7.05273812164915        3.90251428131648       -6.87183310429889
C           -5.75707305369056        3.56892453632080       -6.97942531340547
C           -5.20734385668513        2.20805917938692       -6.84290394967070
C           -8.18296256872167        3.04658780474428       -6.57922407829050
C           -9.07396711202195        2.82283512955441       -7.80680194258717
C           -8.45449176231289        1.89744724811207       -8.86238059540615
C           -8.28019112225475        0.49192779624511       -8.32703893558982
O           -7.53322952588176        0.20357221594789       -7.42246260429951
O           -9.04760560367096       -0.38190980314192       -8.94661252232158
Cl          -9.35499791007091        8.55066045655897       -7.28447794026779
H            0.76295701479427       -0.58427338825010        0.08924988968952
H            1.00923546881000       -0.39062204571746        1.82093319962682
H            2.37103035606073       -0.21390443648731        0.71511624612057
H           -0.05377642601163        1.64328971801192        0.82072816773665
H            1.49913630912798        1.98400322728952        1.57057617357293
H            1.37861872640518        3.17240993156968       -0.52502874082620
H            2.62582398559076        1.93649286283244       -0.60917233283481
H            1.39848186280547        2.03061177842046       -2.69620595709082
H            1.18685470361505        0.46974311586530       -1.92389990798702
H           -0.91051510412024        1.18670689128990       -2.87863620594955
H           -1.04982509177898        1.10054833524427       -1.13268632357952
H           -2.20733299856853        3.06428438668924       -1.92430711687058
H           -0.83960047833688        3.54072438272910       -0.93875256932868
H           -1.05396370452624        5.00016051959742       -2.87150667485405
H            0.47493566624049        4.14478675475306       -2.89180867749869
H           -0.45448049991472        4.25540424878006       -5.12979327359726
H           -0.30781934240180        2.59321742445206       -4.58860896538182
H           -2.37152757482148        2.74729376254755       -5.73349844570007
H           -2.73879236456987        2.56761245532159       -4.02458843813559
H           -4.25714674286667        4.24052322338566       -4.71823925738714
H           -2.96860768482372        5.11834997140014       -3.92211393921227
H           -3.45881642483340        6.35647635019029       -5.87454729984420
H           -1.93455489143466        5.53860752813028       -6.20839992671805
H           -3.34632734732804        5.40708932232786       -8.17686110717247
H           -3.16257725426396        3.78290387272900       -7.49569663717840
H           -4.65766614526957        7.48260792393638       -7.76859868078719
H           -9.26595989662154        5.76878954675131       -6.84909954556273
H           -4.41075601504961        2.04427383978754       -7.56552731945260
H           -4.78569425446145        2.06204426479688       -5.84803128150596
H           -5.97017590416917        1.44669762660842       -6.99760108742205
H           -7.82444114271722        2.09018402185267       -6.19878809424321
H           -8.76671451185354        3.53487719461176       -5.79482863777131
H          -10.01503490693621        2.39128263285232       -7.46419401362993
H           -9.29612511408967        3.78067854763972       -8.27855903175332
H           -9.10636808963894        1.85175683237907       -9.73328148976911
H           -7.47819441304478        2.27738699980970       -9.16998622528724
H           -8.93964097190833       -1.28297727413985       -8.59766082180990

          :  Hamiltonian                  GFN2-xTB          :
         :: total energy             -93.068358855411 Eh    ::
         :: gradient norm              0.000357599359 Eh/a0 ::
         :: HOMO-LUMO gap              1.631735510178 eV    ::
         :: SCC energy               -94.272404120392 Eh    ::
         :: -> dispersion             -0.069338130779 Eh    ::
         :: repulsion energy           1.204045264981 Eh    ::

    * Orbital Energies and Occupations

         #    Occupation            Energy/Eh            Energy/eV
      -------------------------------------------------------------
         1        2.0000           -1.1629808             -31.6463
       ...           ...                  ...                  ...
        72        2.0000           -0.5279011             -14.3649
        73        2.0000           -0.5262740             -14.3206
        74        2.0000           -0.5246658             -14.2769
        75        2.0000           -0.5140220             -13.9873
        76        2.0000           -0.5111951             -13.9103
        77        2.0000           -0.5099007             -13.8751
        78        2.0000           -0.5034344             -13.6991
        79        2.0000           -0.4930076             -13.4154
        80        2.0000           -0.4902383             -13.3401
        81        2.0000           -0.4867056             -13.2439
        82        2.0000           -0.4723602             -12.8536
        83        2.0000           -0.4683763             -12.7452
        84        2.0000           -0.4663022             -12.6887 (HOMO)
        85                         -0.4063371             -11.0570 (LUMO)
        86                         -0.3673249              -9.9954
        87                         -0.3552844              -9.6678
        88                         -0.3510180              -9.5517
        89                         -0.2554212              -6.9504
        90                         -0.2483880              -6.7590
        91                         -0.2410345              -6.5589
        92                         -0.1759918              -4.7890
        93                         -0.1248077              -3.3962
        94                         -0.1003561              -2.7308
        95                         -0.0973463              -2.6489
       ...                                ...                  ...
       167                          0.5250443              14.2872
      -------------------------------------------------------------
                  HL-Gap            0.0599652 Eh            1.6317 eV

     #   Z          covCN         q      C6AA      α(0)
     1   6 C        3.751    -0.102    22.517     6.767
     2   6 C        3.799    -0.053    21.518     6.605
     3   6 C        3.800    -0.058    21.619     6.620
     4   6 C        3.800    -0.058    21.615     6.619
     5   6 C        3.800    -0.057    21.604     6.618
     6   6 C        3.800    -0.058    21.621     6.620
     7   6 C        3.800    -0.060    21.648     6.625
     8   6 C        3.800    -0.061    21.672     6.628
     9   6 C        3.800    -0.063    21.709     6.634
    10   6 C        3.800    -0.064    21.723     6.636
    11   6 C        3.801    -0.071    21.857     6.656
    12   6 C        3.740    -0.021    21.025     6.542
    13   7 N        2.830     0.017    20.944     6.797
    14   6 C        3.095     0.036    27.084     8.529
    15   6 C        2.953    -0.050    29.247     8.870
    16   6 C        2.922     0.093    25.926     8.350
    17  17 Cl       1.004    -0.079   101.629    15.423
    18   6 C        2.922     0.093    25.928     8.350
    19   6 C        2.953    -0.052    29.302     8.879
    20   6 C        3.096     0.033    27.140     8.538
    21   7 N        2.828     0.016    20.973     6.802
    22   6 C        3.069     0.124    25.214     8.234
    23   6 C        3.755    -0.151    23.487     6.910
    24   6 C        3.740    -0.029    21.176     6.566
    25   6 C        3.802    -0.067    21.777     6.644
    26   6 C        3.802    -0.099    22.397     6.738
    27   6 C        2.689     0.365    20.806     7.465
    28   8 O        0.856    -0.429    22.274     6.328
    29   8 O        1.660    -0.344    19.792     6.006
    30  17 Cl       1.005    -0.080   101.647    15.424
    31   1 H        0.925     0.033     2.546     2.495
    32   1 H        0.925     0.033     2.538     2.491
    33   1 H        0.925     0.036     2.507     2.476
    34   1 H        0.924     0.029     2.603     2.523
    35   1 H        0.924     0.030     2.592     2.517
    36   1 H        0.924     0.028     2.617     2.530
    37   1 H        0.924     0.032     2.558     2.501
    38   1 H        0.924     0.027     2.626     2.534
    39   1 H        0.924     0.034     2.526     2.485
    40   1 H        0.924     0.023     2.690     2.565
    41   1 H        0.924     0.035     2.517     2.481
    42   1 H        0.924     0.021     2.712     2.575
    43   1 H        0.924     0.039     2.462     2.454
    44   1 H        0.924     0.025     2.653     2.547
    45   1 H        0.924     0.042     2.425     2.435
    46   1 H        0.924     0.028     2.616     2.529
    47   1 H        0.924     0.043     2.407     2.426
    48   1 H        0.924     0.022     2.699     2.569
    49   1 H        0.924     0.044     2.402     2.424
    50   1 H        0.924     0.017     2.776     2.606
    51   1 H        0.925     0.060     2.203     2.321
    52   1 H        0.924     0.050     2.320     2.382
    53   1 H        0.925     0.072     2.060     2.245
    54   1 H        0.924     0.078     2.002     2.213
    55   1 H        0.925     0.082     1.955     2.187
    56   1 H        0.926     0.098     1.802     2.099
    57   1 H        0.926     0.096     1.819     2.109
    58   1 H        0.925     0.090     1.876     2.142
    59   1 H        0.924     0.111     1.692     2.034
    60   1 H        0.925     0.128     1.549     1.946
    61   1 H        0.925     0.106     1.728     2.056
    62   1 H        0.924     0.085     1.926     2.170
    63   1 H        0.924     0.075     2.027     2.227
    64   1 H        0.924     0.069     2.101     2.266
    65   1 H        0.925     0.089     1.888     2.149
    66   1 H        0.924     0.069     2.098     2.265
    67   1 H        0.804     0.348     0.594     1.211

Wiberg/Mayer (AO) data.
largest (>0.10) Wiberg bond orders for each atom

     #   Z sym  total        # sym  WBO       # sym  WBO       # sym  WBO
 ---------------------------------------------------------------------------
     1   6 C    3.997 --     2 C    1.020    33 H    0.988    32 H    0.987
                            31 H    0.986
     2   6 C    3.998 --     1 C    1.020     3 C    1.008    35 H    0.978
                            34 H    0.976
     3   6 C    3.997 --     2 C    1.008     4 C    1.008    37 H    0.977
                            36 H    0.976
     4   6 C    3.997 --     5 C    1.008     3 C    1.008    38 H    0.975
                            39 H    0.975
     5   6 C    3.998 --     4 C    1.008     6 C    1.008    40 H    0.975
                            41 H    0.974
     6   6 C    3.997 --     5 C    1.008     7 C    1.007    42 H    0.975
                            43 H    0.974
     7   6 C    3.996 --     8 C    1.008     6 C    1.007    44 H    0.974
                            45 H    0.974
     8   6 C    3.996 --     7 C    1.008     9 C    1.007    46 H    0.974
                            47 H    0.974
     9   6 C    3.996 --     8 C    1.007    10 C    1.007    48 H    0.972
                            49 H    0.972
    10   6 C    3.994 --    11 C    1.008     9 C    1.007    50 H    0.976
                            51 H    0.969
    11   6 C    3.984 --    10 C    1.008    12 C    0.985    52 H    0.974
                            53 H    0.965
    12   6 C    3.940 --    11 C    0.985    13 N    0.969    54 H    0.963
                            55 H    0.958
    13   7 N    3.661 --    22 C    1.323    14 C    1.131    12 C    0.969
    14   6 C    3.962 --    15 C    1.340    20 C    1.271    13 N    1.131
    15   6 C    3.979 --    16 C    1.441    14 C    1.340    56 H    0.956
                            19 C    0.103
    16   6 C    3.936 --    15 C    1.441    18 C    1.288    17 Cl   1.041
    17  17 Cl   1.206 --    16 C    1.041
    18   6 C    3.936 --    19 C    1.440    16 C    1.288    30 Cl   1.041
    19   6 C    3.979 --    18 C    1.440    20 C    1.341    57 H    0.957
                            15 C    0.103
    20   6 C    3.961 --    19 C    1.341    14 C    1.271    21 N    1.129
    21   7 N    3.658 --    22 C    1.318    20 C    1.129    24 C    0.971
    22   6 C    3.939 --    13 N    1.323    21 N    1.318    23 C    1.053
    23   6 C    3.966 --    22 C    1.053    58 H    0.955    60 H    0.940
                            59 H    0.934
    24   6 C    3.941 --    25 C    0.994    21 N    0.971    62 H    0.959
                            61 H    0.955
    25   6 C    3.988 --    24 C    0.994    26 C    0.990    63 H    0.970
                            64 H    0.969
    26   6 C    3.991 --    25 C    0.990    27 C    0.971    65 H    0.970
                            66 H    0.959
    27   6 C    3.913 --    28 O    1.718    29 O    1.191    26 C    0.971
    28   8 O    2.028 --    27 C    1.718    29 O    0.181
    29   8 O    2.254 --    27 C    1.191    67 H    0.852    28 O    0.181
    30  17 Cl   1.205 --    18 C    1.041
    31   1 H    0.999 --     1 C    0.986
    32   1 H    0.999 --     1 C    0.987
    33   1 H    0.999 --     1 C    0.988
    34   1 H    0.999 --     2 C    0.976
    35   1 H    0.999 --     2 C    0.978
    36   1 H    0.999 --     3 C    0.976
    37   1 H    0.999 --     3 C    0.977
    38   1 H    0.999 --     4 C    0.975
    39   1 H    0.999 --     4 C    0.975
    40   1 H    0.999 --     5 C    0.975
    41   1 H    0.999 --     5 C    0.974
    42   1 H    1.000 --     6 C    0.975
    43   1 H    0.998 --     6 C    0.974
    44   1 H    0.999 --     7 C    0.974
    45   1 H    0.998 --     7 C    0.974
    46   1 H    0.999 --     8 C    0.974
    47   1 H    0.998 --     8 C    0.974
    48   1 H    0.999 --     9 C    0.972
    49   1 H    0.998 --     9 C    0.972
    50   1 H    1.000 --    10 C    0.976
    51   1 H    0.996 --    10 C    0.969
    52   1 H    0.997 --    11 C    0.974
    53   1 H    0.994 --    11 C    0.965
    54   1 H    0.993 --    12 C    0.963
    55   1 H    0.993 --    12 C    0.958
    56   1 H    0.990 --    15 C    0.956
    57   1 H    0.990 --    19 C    0.957
    58   1 H    0.990 --    23 C    0.955
    59   1 H    0.982 --    23 C    0.934
    60   1 H    0.983 --    23 C    0.940
    61   1 H    0.988 --    24 C    0.955
    62   1 H    0.992 --    24 C    0.959
    63   1 H    0.993 --    25 C    0.970
    64   1 H    0.995 --    25 C    0.969
    65   1 H    0.992 --    26 C    0.970
    66   1 H    0.995 --    26 C    0.959
    67   1 H    0.879 --    29 O    0.852
 ---------------------------------------------------------------------------

molecular dipole:
                 x           y           z       tot (Debye)
 q only:      -11.267       6.688     -13.366
   full:      -11.574       7.229     -13.524      48.833

           -------------------------------------------------
          | TOTAL ENERGY              -93.068358855411 Eh   |
          | GRADIENT NORM               0.000357599359 Eh/α |
          | HOMO-LUMO GAP               1.631735510178 eV   |
           -------------------------------------------------

 * finished run on 2024/12/20 at 06:50:25.356
