   * xtb version 6.7.1 (edcfbbe) compiled by 'conda@3ef47c1a292c' on 2024-11-25

   ID    Z sym.   atoms
    1    6 C      1-16, 18-20, 23, 24
    2    7 N      17
    3    8 O      21, 22
    4    1 H      25-70

          program call               : xtb C0600.xyz --opt --namespace C0600 --charge +1
          :  Hamiltonian                  GFN2-xTB          :
 * total energy  :   -79.0872411 Eh     change       -0.2011831E-09 Eh
 * total energy  :   -79.0962062 Eh     change       -0.8965082E-02 Eh
 * total energy  :   -79.0986464 Eh     change       -0.2440195E-02 Eh
 * total energy  :   -79.0988989 Eh     change       -0.2525213E-03 Eh
 * total energy  :   -79.0991763 Eh     change       -0.2773922E-03 Eh
 * total energy  :   -79.0993226 Eh     change       -0.1462826E-03 Eh
 * total energy  :   -79.0995518 Eh     change       -0.2292173E-03 Eh
 * total energy  :   -79.0997258 Eh     change       -0.1740417E-03 Eh
 * total energy  :   -79.0998349 Eh     change       -0.1090375E-03 Eh
 * total energy  :   -79.0999015 Eh     change       -0.6663351E-04 Eh
 * total energy  :   -79.1008736 Eh     change       -0.1126065E-04 Eh
 * total energy  :   -79.1008830 Eh     change       -0.9462823E-05 Eh
 * total energy  :   -79.1008927 Eh     change       -0.9681948E-05 Eh
 * total energy  :   -79.1009009 Eh     change       -0.8180097E-05 Eh
 * total energy  :   -79.1009077 Eh     change       -0.6743466E-05 Eh
 * total energy  :   -79.1009149 Eh     change       -0.7232242E-05 Eh
 * total energy  :   -79.1009217 Eh     change       -0.6835788E-05 Eh
 * total energy  :   -79.1009272 Eh     change       -0.5489034E-05 Eh
 * total energy  :   -79.1009317 Eh     change       -0.4466694E-05 Eh
   *** GEOMETRY OPTIMIZATION CONVERGED AFTER 53 ITERATIONS ***

 final structure:
================
70
 xtb: 6.7.1 (edcfbbe)
C            1.49455308532274       -0.57869012915353       -0.20171400578832
C            1.52012503902800       -0.00253023854114        1.20910915304172
C            1.71416378408666        1.51433626105322        1.23899622247548
C            0.61029927536282        2.32065194766642        0.55163539181776
C           -0.79418805536696        2.11189669344993        1.12082331009856
C           -0.95186018759377        2.46355431193295        2.60143292940329
C           -0.61635578547149        3.91211124781044        2.96301792361214
C           -1.41358346730119        4.97146066334435        2.19930489702522
C           -2.93307340573026        4.85949827093299        2.33536138100894
C           -3.46654389000063        4.98770183803249        3.76338601152347
C           -3.15826542041291        6.31818854848499        4.45384766640657
C           -3.65450196955291        7.56194425877970        3.71261693048184
C           -5.15353456513161        7.57201734118056        3.40649111673273
C           -6.06812034093764        7.49108863787094        4.63092155565878
C           -5.86813442755710        8.59675728617545        5.67643197740296
C           -5.92524551378227       10.04249218787093        5.17201510235528
N           -7.26098197614039       10.72036204693391        5.15084934778806
C           -7.79465434624646       10.95250204971218        6.51932472353355
C           -7.08120388581777       11.98821341720006        7.42543595734036
C           -7.58377534313682       13.43613397858706        7.20962959554159
O           -8.89423411120072       13.41781680827931        6.67925675233882
O           -7.25479991131800       11.58156067266317        8.75290034469366
C           -7.11457897583670       12.00280407217936        4.43552508095943
C           -8.25095000872529        9.90606804362726        4.42138694535272
H            0.62016246794076       -0.23731620069334       -0.74996558629965
H            1.46554664634996       -1.66530605370391       -0.16416706387401
H            2.38462479835578       -0.27932597874046       -0.75104604327483
H            0.59803050333159       -0.27001534868413        1.72823111167771
H            2.34585900661230       -0.45912634947399        1.76044584699097
H            1.80215437317154        1.83478822719039        2.27934135377521
H            2.66080985601727        1.75251392466280        0.74688153941750
H            0.87201236748029        3.37928103971306        0.61477874661022
H            0.58864042293585        2.06199093684532       -0.50882686728350
H           -1.49338413837440        2.70910099137314        0.53089023692278
H           -1.08168933429570        1.06706855598817        0.98870004382996
H           -1.98137438453749        2.24672044855429        2.89634938085803
H           -0.30905699940241        1.81011535662009        3.19422806134501
H           -0.77558726081231        4.04194381749114        4.03619999293729
H            0.44441812203119        4.09016939626891        2.77674050552617
H           -1.08890988206405        5.95718214517428        2.54127074573512
H           -1.16521718677507        4.90667759809061        1.13838042640608
H           -3.39098740886263        5.62524269370132        1.70444920653819
H           -3.25423500770206        3.89357500067065        1.94248281660638
H           -4.54776242896513        4.83002670984451        3.74125670165006
H           -3.04421877047013        4.18815941377625        4.37366769122365
H           -3.59001456417245        6.29145553751395        5.45754056023860
H           -2.07845628853897        6.41267570429837        4.57713263072178
H           -3.38911964564153        8.44437009029963        4.30112071684224
H           -3.12083711363417        7.64248075101543        2.76471210136982
H           -5.38255021930979        8.46610083155640        2.81820163988620
H           -5.38630168575448        6.71932147138870        2.76866321749038
H           -7.10154401441412        7.45667627445698        4.28386558446553
H           -5.87983429565941        6.54438533632416        5.13770785354312
H           -6.57070675563087        8.43920591583536        6.49540203929783
H           -4.87296738050381        8.46389867522909        6.10245108575007
H           -5.27683783899628       10.65524233030526        5.79915320723671
H           -5.53230689770201       10.07442453364161        4.15484817833579
H           -8.83608415358059       11.26923283971666        6.42469950398108
H           -7.76480562340571       10.00570983880772        7.06202745055262
H           -5.99689183450145       11.96456605006914        7.27995477688622
H           -7.55653933515744       13.93670208334304        8.18377078686848
H           -6.91138307152600       13.98225211557035        6.53568062227332
H           -9.29046571208874       14.28895897183534        6.78205243691625
H           -8.16718234176578       11.72964625270669        9.03157167251936
H           -6.96493758712265       11.82210384252151        3.37249936835663
H           -8.01349285745662       12.60173005792980        4.57307293551734
H           -6.25931072474858       12.55528595017209        4.81628596096869
H           -7.85059030339673        9.61557337809397        3.45209171801399
H           -8.49827315132327        9.01199454937009        4.98771056857078
H           -9.16144796231005       10.48300007727931        4.26680822531556

          :  Hamiltonian                  GFN2-xTB          :
         :: total energy             -79.100931677338 Eh    ::
         :: gradient norm              0.000259276099 Eh/a0 ::
         :: HOMO-LUMO gap              6.147991558772 eV    ::
         :: SCC energy               -80.142875800032 Eh    ::
         :: -> dispersion             -0.059364566832 Eh    ::
         :: repulsion energy           1.041944122695 Eh    ::

    * Orbital Energies and Occupations

         #    Occupation            Energy/Eh            Energy/eV
      -------------------------------------------------------------
         1        2.0000           -0.8565805             -23.3087
       ...           ...                  ...                  ...
        61        2.0000           -0.5123579             -13.9420
        62        2.0000           -0.5065641             -13.7843
        63        2.0000           -0.5032084             -13.6930
        64        2.0000           -0.4961539             -13.5010
        65        2.0000           -0.4908232             -13.3560
        66        2.0000           -0.4870907             -13.2544
        67        2.0000           -0.4828162             -13.1381
        68        2.0000           -0.4728723             -12.8675
        69        2.0000           -0.4716199             -12.8334
        70        2.0000           -0.4685641             -12.7503
        71        2.0000           -0.4585331             -12.4773
        72        2.0000           -0.4532985             -12.3349
        73        2.0000           -0.4519866             -12.2992 (HOMO)
        74                         -0.2260521              -6.1512 (LUMO)
        75                         -0.1682222              -4.5776
        76                         -0.1436485              -3.9089
        77                         -0.1414648              -3.8495
        78                         -0.1068269              -2.9069
        79                         -0.0903478              -2.4585
        80                         -0.0713293              -1.9410
        81                         -0.0574318              -1.5628
        82                         -0.0520716              -1.4169
        83                         -0.0372355              -1.0132
        84                         -0.0285714              -0.7775
       ...                                ...                  ...
       142                          0.2683303               7.3016
      -------------------------------------------------------------
                  HL-Gap            0.2259345 Eh            6.1480 eV

     #   Z          covCN         q      C6AA      α(0)
     1   6 C        3.751    -0.102    22.502     6.765
     2   6 C        3.799    -0.052    21.509     6.603
     3   6 C        3.800    -0.057    21.600     6.617
     4   6 C        3.800    -0.057    21.595     6.616
     5   6 C        3.800    -0.056    21.588     6.615
     6   6 C        3.800    -0.057    21.595     6.616
     7   6 C        3.800    -0.057    21.595     6.616
     8   6 C        3.800    -0.057    21.598     6.617
     9   6 C        3.800    -0.058    21.614     6.619
    10   6 C        3.800    -0.059    21.632     6.622
    11   6 C        3.800    -0.059    21.645     6.624
    12   6 C        3.800    -0.061    21.679     6.629
    13   6 C        3.800    -0.062    21.695     6.632
    14   6 C        3.799    -0.071    21.865     6.658
    15   6 C        3.799    -0.072    21.887     6.661
    16   6 C        3.757    -0.043    21.394     6.595
    17   7 N        3.621     0.132    18.985     6.471
    18   6 C        3.763    -0.058    21.660     6.634
    19   6 C        3.721     0.104    18.970     6.221
    20   6 C        3.671     0.055    19.895     6.393
    21   8 O        1.655    -0.451    21.865     6.312
    22   8 O        1.657    -0.425    21.342     6.236
    23   6 C        3.726    -0.101    22.537     6.778
    24   6 C        3.728    -0.095    22.416     6.759
    25   1 H        0.925     0.034     2.535     2.490
    26   1 H        0.925     0.032     2.558     2.501
    27   1 H        0.925     0.034     2.530     2.488
    28   1 H        0.924     0.030     2.586     2.515
    29   1 H        0.924     0.027     2.624     2.533
    30   1 H        0.924     0.028     2.618     2.530
    31   1 H        0.924     0.029     2.603     2.523
    32   1 H        0.924     0.027     2.632     2.537
    33   1 H        0.924     0.032     2.559     2.502
    34   1 H        0.924     0.026     2.651     2.546
    35   1 H        0.924     0.032     2.552     2.498
    36   1 H        0.924     0.025     2.654     2.548
    37   1 H        0.924     0.033     2.540     2.492
    38   1 H        0.924     0.025     2.657     2.549
    39   1 H        0.924     0.033     2.539     2.492
    40   1 H        0.924     0.024     2.670     2.555
    41   1 H        0.924     0.034     2.526     2.485
    42   1 H        0.924     0.023     2.687     2.563
    43   1 H        0.924     0.037     2.488     2.467
    44   1 H        0.924     0.024     2.676     2.558
    45   1 H        0.924     0.040     2.451     2.448
    46   1 H        0.924     0.024     2.676     2.558
    47   1 H        0.924     0.041     2.433     2.439
    48   1 H        0.924     0.020     2.729     2.583
    49   1 H        0.924     0.045     2.389     2.417
    50   1 H        0.924     0.014     2.818     2.625
    51   1 H        0.925     0.054     2.271     2.357
    52   1 H        0.924     0.033     2.550     2.497
    53   1 H        0.925     0.062     2.172     2.304
    54   1 H        0.924     0.050     2.318     2.381
    55   1 H        0.924     0.078     1.999     2.211
    56   1 H        0.924     0.078     2.003     2.213
    57   1 H        0.924     0.094     1.845     2.124
    58   1 H        0.924     0.111     1.690     2.033
    59   1 H        0.924     0.099     1.795     2.095
    60   1 H        0.924     0.062     2.172     2.305
    61   1 H        0.924     0.061     2.187     2.313
    62   1 H        0.924     0.037     2.489     2.467
    63   1 H        0.805     0.310     0.691     1.305
    64   1 H        0.805     0.313     0.682     1.297
    65   1 H        0.925     0.096     1.824     2.112
    66   1 H        0.925     0.114     1.662     2.016
    67   1 H        0.925     0.092     1.861     2.134
    68   1 H        0.925     0.101     1.774     2.083
    69   1 H        0.925     0.102     1.764     2.077
    70   1 H        0.925     0.097     1.812     2.105

Wiberg/Mayer (AO) data.
largest (>0.10) Wiberg bond orders for each atom

     #   Z sym  total        # sym  WBO       # sym  WBO       # sym  WBO
 ---------------------------------------------------------------------------
     1   6 C    3.997 --     2 C    1.020    27 H    0.988    26 H    0.987
                            25 H    0.986
     2   6 C    3.998 --     1 C    1.020     3 C    1.008    29 H    0.978
                            28 H    0.976
     3   6 C    3.998 --     2 C    1.008     4 C    1.008    31 H    0.977
                            30 H    0.976
     4   6 C    3.998 --     5 C    1.008     3 C    1.008    33 H    0.975
                            32 H    0.975
     5   6 C    3.998 --     4 C    1.008     6 C    1.008    34 H    0.975
                            35 H    0.975
     6   6 C    3.997 --     5 C    1.008     7 C    1.008    36 H    0.975
                            37 H    0.975
     7   6 C    3.997 --     8 C    1.008     6 C    1.008    38 H    0.976
                            39 H    0.975
     8   6 C    3.997 --     9 C    1.008     7 C    1.008    40 H    0.975
                            41 H    0.975
     9   6 C    3.997 --     8 C    1.008    10 C    1.008    42 H    0.975
                            43 H    0.974
    10   6 C    3.997 --     9 C    1.008    11 C    1.007    44 H    0.975
                            45 H    0.974
    11   6 C    3.996 --    10 C    1.007    12 C    1.007    46 H    0.976
                            47 H    0.974
    12   6 C    3.996 --    13 C    1.007    11 C    1.007    48 H    0.976
                            49 H    0.974
    13   6 C    3.995 --    14 C    1.008    12 C    1.007    50 H    0.972
                            51 H    0.971
    14   6 C    3.992 --    13 C    1.008    15 C    1.004    52 H    0.974
                            53 H    0.970
    15   6 C    3.983 --    16 C    1.005    14 C    1.004    54 H    0.965
                            55 H    0.964
    16   6 C    3.926 --    15 C    1.005    56 H    0.965    57 H    0.959
                            17 N    0.921
    17   7 N    3.810 --    23 C    0.958    24 C    0.957    18 C    0.938
                            16 C    0.921
    18   6 C    3.928 --    19 C    0.976    59 H    0.958    58 H    0.956
                            17 N    0.938
    19   6 C    3.964 --    22 O    1.014    20 C    0.976    18 C    0.976
                            60 H    0.955
    20   6 C    3.954 --    21 O    0.999    19 C    0.976    61 H    0.968
                            62 H    0.968
    21   8 O    1.953 --    20 C    0.999    63 H    0.888
    22   8 O    1.982 --    19 C    1.014    64 H    0.885
    23   6 C    3.927 --    65 H    0.975    67 H    0.974    66 H    0.968
                            17 N    0.958
    24   6 C    3.927 --    70 H    0.975    68 H    0.973    69 H    0.972
                            17 N    0.957
    25   1 H    0.999 --     1 C    0.986
    26   1 H    0.999 --     1 C    0.987
    27   1 H    0.999 --     1 C    0.988
    28   1 H    0.999 --     2 C    0.976
    29   1 H    0.999 --     2 C    0.978
    30   1 H    0.999 --     3 C    0.976
    31   1 H    0.999 --     3 C    0.977
    32   1 H    0.999 --     4 C    0.975
    33   1 H    0.999 --     4 C    0.975
    34   1 H    0.999 --     5 C    0.975
    35   1 H    0.999 --     5 C    0.975
    36   1 H    0.999 --     6 C    0.975
    37   1 H    0.999 --     6 C    0.975
    38   1 H    0.999 --     7 C    0.976
    39   1 H    0.999 --     7 C    0.975
    40   1 H    0.999 --     8 C    0.975
    41   1 H    0.999 --     8 C    0.975
    42   1 H    0.999 --     9 C    0.975
    43   1 H    0.999 --     9 C    0.974
    44   1 H    0.999 --    10 C    0.975
    45   1 H    0.998 --    10 C    0.974
    46   1 H    0.999 --    11 C    0.976
    47   1 H    0.998 --    11 C    0.974
    48   1 H    1.000 --    12 C    0.976
    49   1 H    0.998 --    12 C    0.974
    50   1 H    1.000 --    13 C    0.972
    51   1 H    0.997 --    13 C    0.971
    52   1 H    0.999 --    14 C    0.974
    53   1 H    0.996 --    14 C    0.970
    54   1 H    0.997 --    15 C    0.965
    55   1 H    0.994 --    15 C    0.964
    56   1 H    0.994 --    16 C    0.965
    57   1 H    0.991 --    16 C    0.959
    58   1 H    0.988 --    18 C    0.956
    59   1 H    0.990 --    18 C    0.958
    60   1 H    0.996 --    19 C    0.955
    61   1 H    0.996 --    20 C    0.968
    62   1 H    0.999 --    20 C    0.968
    63   1 H    0.904 --    21 O    0.888
    64   1 H    0.902 --    22 O    0.885
    65   1 H    0.991 --    23 C    0.975
    66   1 H    0.987 --    23 C    0.968
    67   1 H    0.992 --    23 C    0.974
    68   1 H    0.989 --    24 C    0.973
    69   1 H    0.990 --    24 C    0.972
    70   1 H    0.991 --    24 C    0.975
 ---------------------------------------------------------------------------

molecular dipole:
                 x           y           z       tot (Debye)
 q only:      -13.612      20.327       9.725
   full:      -13.784      20.736       9.754      67.971

           -------------------------------------------------
          | TOTAL ENERGY              -79.100931677338 Eh   |
          | GRADIENT NORM               0.000259276099 Eh/α |
          | HOMO-LUMO GAP               6.147991558772 eV   |
           -------------------------------------------------

 * finished run on 2024/12/20 at 06:50:03.992
