   * xtb version 6.7.1 (edcfbbe) compiled by 'conda@3ef47c1a292c' on 2024-11-25

   ID    Z sym.   atoms
    1    6 C      1-18, 20-31
    2    7 N      19
    3    1 H      32-95

          program call               : xtb C0614.xyz --opt --namespace C0614 --charge +1
          :  Hamiltonian                  GFN2-xTB          :
 * total energy  :   -99.4444888 Eh     change       -0.6343726E-10 Eh
 * total energy  :   -99.4521557 Eh     change       -0.7666851E-02 Eh
 * total energy  :   -99.4538412 Eh     change       -0.1685500E-02 Eh
 * total energy  :   -99.4539471 Eh     change       -0.1058614E-03 Eh
 * total energy  :   -99.4540714 Eh     change       -0.1243399E-03 Eh
 * total energy  :   -99.4541346 Eh     change       -0.6317657E-04 Eh
 * total energy  :   -99.4543286 Eh     change       -0.1940411E-03 Eh
 * total energy  :   -99.4544862 Eh     change       -0.1575480E-03 Eh
 * total energy  :   -99.4545702 Eh     change       -0.8404418E-04 Eh
 * total energy  :   -99.4547318 Eh     change       -0.1615616E-03 Eh
 * total energy  :   -99.4561917 Eh     change       -0.1630063E-04 Eh
 * total energy  :   -99.4562077 Eh     change       -0.1599616E-04 Eh
 * total energy  :   -99.4562221 Eh     change       -0.1446952E-04 Eh
 * total energy  :   -99.4562356 Eh     change       -0.1349888E-04 Eh
 * total energy  :   -99.4562497 Eh     change       -0.1404672E-04 Eh
 * total energy  :   -99.4562635 Eh     change       -0.1381933E-04 Eh
 * total energy  :   -99.4562689 Eh     change       -0.5407478E-05 Eh
 * total energy  :   -99.4562774 Eh     change       -0.8537503E-05 Eh
 * total energy  :   -99.4562819 Eh     change       -0.4496843E-05 Eh
   *** GEOMETRY OPTIMIZATION CONVERGED AFTER 46 ITERATIONS ***

 final structure:
================
95
 xtb: 6.7.1 (edcfbbe)
C            1.24988119956700       -1.49331488070237        0.08355061912662
C            1.38240500052403       -0.96231517967210        1.50578078070991
C            1.53132677095783        0.55851719173890        1.56993416673190
C            0.33371135064287        1.34873520393796        1.03793869827176
C           -0.99113061499606        1.07977147798568        1.75485642528740
C           -0.97369958169755        1.33326684906814        3.26338734870470
C           -0.60317280505029        2.75958924855171        3.67340797959938
C           -1.55598223791489        3.84570434779349        3.17002690020523
C           -3.00575747231334        3.70429952296781        3.63958616615461
C           -3.19046573840069        3.64087555414262        5.15709503011044
C           -2.63836290698421        4.84336535474965        5.92440237056243
C           -3.29905441002579        6.18220429090712        5.58998626415338
C           -4.80172014168534        6.25259633418979        5.87283674008924
C           -5.20618997074692        5.90738022661237        7.30804120700645
C           -4.53526456673187        6.76280970152240        8.38450598010150
C           -4.85948134345919        8.25700408198649        8.32204589735320
C           -6.34880469996958        8.61788578930337        8.42642570208388
C           -7.14383631033931        7.98248202584530        9.57159020305623
N           -7.14073768660498        8.67513890680838       10.89931028921331
C           -7.90365297491956        9.96260228037714       10.85752032553114
C           -9.42666179352478        9.88533526894227       10.70836026182096
C          -10.24126313987947        9.81151794362138       12.00782153360833
C           -9.93050057184973       10.89840274115046       13.04007768992955
C          -10.08370662927301       12.33530554498619       12.53748486867380
C          -11.49037407368458       12.69904563043121       12.05772459700014
C          -12.59350987759412       12.52675888794482       13.10423215024401
C          -12.38531138194831       13.31192754483640       14.40122316759043
C          -12.26734340774534       14.82708513998267       14.22777601200237
C          -13.52277140354515       15.46448501480336       13.64510267082698
C           -7.72546760548516        7.75234814321016       11.88922700523861
C           -5.76414413248216        8.98367573829685       11.32724977686929
H            0.32425867536638       -1.15691956613282       -0.37659060523301
H            1.24959514417109       -2.58110429681754        0.08560838782165
H            2.08260446057894       -1.15284802593778       -0.52838511225243
H            0.51822720945663       -1.27640652467183        2.09363874672268
H            2.26744900912945       -1.40854463492649        1.96650772299105
H            1.72342705779524        0.84729142704978        2.60544403795674
H            2.41048663469076        0.84547361737169        0.98701081799024
H            0.57057903762008        2.41285895839457        1.10620711844048
H            0.19876382377250        1.12205286352678       -0.02134780686556
H           -1.76100322588619        1.70204521192761        1.29282761318950
H           -1.28282894811516        0.04065957678906        1.58957709267831
H           -1.95993234626923        1.08678887963670        3.66327936767391
H           -0.26191298081207        0.65007662990542        3.73105750661716
H           -0.55383440203751        2.80009911770987        4.76394868365082
H            0.39772844061120        2.98881774710018        3.30315996009505
H           -1.16676014857886        4.81604077375020        3.48748616126014
H           -1.55308768993093        3.84629663452881        2.07854520416567
H           -3.57841703371218        4.54411324138173        3.23881712477186
H           -3.43313480572221        2.79614920340084        3.21025590214230
H           -4.25680110238546        3.53157754147121        5.36870622981148
H           -2.69881600599360        2.74343330580912        5.53691395696418
H           -2.73869769192929        4.64421753686484        6.99412514541427
H           -1.57068816137457        4.93493696985244        5.71997068119504
H           -2.78559267314670        6.96816031903422        6.14959502519462
H           -3.14716533120568        6.39931374852776        4.53177423395749
H           -5.15110218540685        7.25774653508140        5.62383254933886
H           -5.32143418081076        5.56326585247376        5.20586291797556
H           -6.29337784030670        5.98910446235485        7.38976166609595
H           -4.95153986808008        4.86479195601320        7.50283650138648
H           -4.79567467292234        6.35687797183899        9.36713684138580
H           -3.45450903411038        6.65936148625808        8.28951068850137
H           -4.27506974142779        8.76642228623953        9.08919320086522
H           -4.51154135915777        8.64357724607418        7.36381211326099
H           -6.44730329152015        9.70435371506387        8.43612786189963
H           -6.82928016452616        8.27702656873577        7.50806971605290
H           -8.18840752222249        7.90508168343561        9.26661273521692
H           -6.77047570485188        6.97056602287411        9.73267867652583
H           -7.67347534220868       10.50541639059622       11.77489993450100
H           -7.49684193332272       10.53544485070588       10.02335214748261
H           -9.72803825808768       10.79529962136769       10.18791615236965
H           -9.71744078700679        9.05523338305733       10.06313157203112
H          -11.29070334054376        9.89619459548533       11.72485140917791
H          -10.12844904331322        8.83969339979094       12.48995449290997
H          -10.60331032822220       10.74863643847760       13.88446882653594
H           -8.91619316166236       10.77264960868762       13.43188094389745
H           -9.80629252568942       13.00523590667741       13.35223509522126
H           -9.38011268272529       12.52086920944554       11.72144700224551
H          -11.47233822594974       13.73885857282065       11.72821058507250
H          -11.74934994236266       12.09522434950496       11.18435941542401
H          -13.53675058268412       12.83476962277369       12.65113108954058
H          -12.69601393941333       11.46864486017247       13.35697318253482
H          -13.23420522991925       13.10433386466022       15.05682281878802
H          -11.49033574846566       12.94688688178715       14.91046320087601
H          -12.07585810668579       15.26353359415144       15.21078424932805
H          -11.40996913364715       15.06654738784721       13.59569093517588
H          -14.39403679722900       15.20075075140170       14.24019496754538
H          -13.42674073506223       16.54742970457751       13.64240566515984
H          -13.69267829198401       15.13927630074703       12.62187995134999
H           -7.06704566203205        6.89685121827213       12.03433521670514
H           -7.84986588121853        8.26105392229492       12.84301447523849
H           -8.69217170640452        7.39016135325073       11.54858400397543
H           -5.14076122496830        8.09571267583067       11.24534651914135
H           -5.34315171546496        9.77386627046853       10.71098518772586
H           -5.76297789718318        9.31625329698572       12.36429346723807

          :  Hamiltonian                  GFN2-xTB          :
         :: total energy             -99.456281929818 Eh    ::
         :: gradient norm              0.000460631889 Eh/a0 ::
         :: HOMO-LUMO gap              6.061091193897 eV    ::
         :: SCC energy              -100.910732931807 Eh    ::
         :: -> dispersion             -0.081966630110 Eh    ::
         :: repulsion energy           1.454451001990 Eh    ::

    * Orbital Energies and Occupations

         #    Occupation            Energy/Eh            Energy/eV
      -------------------------------------------------------------
         1        2.0000           -0.8558590             -23.2891
       ...           ...                  ...                  ...
        82        2.0000           -0.4883399             -13.2884
        83        2.0000           -0.4865396             -13.2394
        84        2.0000           -0.4848320             -13.1929
        85        2.0000           -0.4816370             -13.1060
        86        2.0000           -0.4815108             -13.1026
        87        2.0000           -0.4785035             -13.0207
        88        2.0000           -0.4741414             -12.9020
        89        2.0000           -0.4660152             -12.6809
        90        2.0000           -0.4644215             -12.6376
        91        2.0000           -0.4620068             -12.5718
        92        2.0000           -0.4539488             -12.3526
        93        2.0000           -0.4478308             -12.1861
        94        2.0000           -0.4466573             -12.1542 (HOMO)
        95                         -0.2239163              -6.0931 (LUMO)
        96                         -0.1633494              -4.4450
        97                         -0.1420691              -3.8659
        98                         -0.1370000              -3.7280
        99                         -0.0765281              -2.0824
       100                         -0.0739741              -2.0129
       101                         -0.0557618              -1.5174
       102                         -0.0315228              -0.8578
       103                         -0.0306037              -0.8328
       104                         -0.0287811              -0.7832
       105                         -0.0128323              -0.3492
       ...                                ...                  ...
       188                          0.2754289               7.4948
      -------------------------------------------------------------
                  HL-Gap            0.2227410 Eh            6.0611 eV

     #   Z          covCN         q      C6AA      α(0)
     1   6 C        3.751    -0.101    22.499     6.764
     2   6 C        3.799    -0.052    21.504     6.603
     3   6 C        3.800    -0.057    21.598     6.617
     4   6 C        3.800    -0.057    21.595     6.616
     5   6 C        3.800    -0.056    21.583     6.615
     6   6 C        3.800    -0.056    21.586     6.615
     7   6 C        3.800    -0.057    21.592     6.616
     8   6 C        3.800    -0.057    21.594     6.616
     9   6 C        3.800    -0.057    21.594     6.616
    10   6 C        3.800    -0.057    21.600     6.617
    11   6 C        3.800    -0.058    21.617     6.620
    12   6 C        3.800    -0.059    21.632     6.622
    13   6 C        3.800    -0.059    21.641     6.623
    14   6 C        3.800    -0.061    21.674     6.629
    15   6 C        3.800    -0.062    21.687     6.631
    16   6 C        3.799    -0.071    21.861     6.657
    17   6 C        3.798    -0.071    21.860     6.657
    18   6 C        3.758    -0.040    21.347     6.587
    19   7 N        3.620     0.129    19.042     6.481
    20   6 C        3.759    -0.041    21.349     6.587
    21   6 C        3.798    -0.071    21.862     6.657
    22   6 C        3.799    -0.071    21.857     6.657
    23   6 C        3.800    -0.062    21.690     6.631
    24   6 C        3.800    -0.061    21.681     6.630
    25   6 C        3.800    -0.059    21.644     6.624
    26   6 C        3.800    -0.059    21.645     6.624
    27   6 C        3.800    -0.059    21.633     6.622
    28   6 C        3.799    -0.053    21.528     6.606
    29   6 C        3.751    -0.104    22.545     6.771
    30   6 C        3.726    -0.091    22.346     6.749
    31   6 C        3.726    -0.091    22.349     6.750
    32   1 H        0.925     0.034     2.528     2.486
    33   1 H        0.925     0.031     2.568     2.506
    34   1 H        0.925     0.034     2.535     2.490
    35   1 H        0.924     0.030     2.585     2.514
    36   1 H        0.924     0.026     2.641     2.541
    37   1 H        0.924     0.028     2.619     2.531
    38   1 H        0.924     0.028     2.609     2.526
    39   1 H        0.924     0.027     2.626     2.534
    40   1 H        0.924     0.032     2.560     2.502
    41   1 H        0.924     0.027     2.637     2.539
    42   1 H        0.924     0.031     2.572     2.508
    43   1 H        0.924     0.026     2.645     2.543
    44   1 H        0.924     0.031     2.571     2.507
    45   1 H        0.924     0.025     2.657     2.549
    46   1 H        0.924     0.033     2.550     2.497
    47   1 H        0.924     0.025     2.658     2.549
    48   1 H        0.924     0.033     2.538     2.491
    49   1 H        0.924     0.025     2.655     2.548
    50   1 H        0.924     0.033     2.542     2.493
    51   1 H        0.924     0.024     2.671     2.556
    52   1 H        0.924     0.034     2.526     2.486
    53   1 H        0.924     0.023     2.695     2.567
    54   1 H        0.924     0.038     2.478     2.462
    55   1 H        0.924     0.024     2.676     2.558
    56   1 H        0.924     0.040     2.449     2.447
    57   1 H        0.924     0.024     2.673     2.557
    58   1 H        0.924     0.041     2.437     2.441
    59   1 H        0.924     0.020     2.734     2.586
    60   1 H        0.924     0.044     2.393     2.419
    61   1 H        0.924     0.013     2.844     2.637
    62   1 H        0.925     0.054     2.265     2.353
    63   1 H        0.924     0.033     2.547     2.496
    64   1 H        0.924     0.062     2.178     2.308
    65   1 H        0.924     0.047     2.359     2.402
    66   1 H        0.924     0.075     2.031     2.229
    67   1 H        0.924     0.078     2.000     2.211
    68   1 H        0.924     0.091     1.869     2.138
    69   1 H        0.924     0.091     1.869     2.138
    70   1 H        0.924     0.078     1.998     2.210
    71   1 H        0.924     0.075     2.029     2.228
    72   1 H        0.924     0.046     2.365     2.405
    73   1 H        0.924     0.061     2.186     2.312
    74   1 H        0.924     0.033     2.547     2.496
    75   1 H        0.925     0.054     2.274     2.358
    76   1 H        0.924     0.015     2.816     2.624
    77   1 H        0.924     0.045     2.382     2.414
    78   1 H        0.924     0.020     2.733     2.585
    79   1 H        0.924     0.042     2.427     2.436
    80   1 H        0.924     0.024     2.674     2.557
    81   1 H        0.924     0.040     2.443     2.444
    82   1 H        0.924     0.026     2.650     2.546
    83   1 H        0.924     0.035     2.516     2.480
    84   1 H        0.924     0.025     2.657     2.549
    85   1 H        0.924     0.031     2.567     2.505
    86   1 H        0.924     0.028     2.613     2.528
    87   1 H        0.925     0.037     2.483     2.464
    88   1 H        0.925     0.036     2.500     2.472
    89   1 H        0.925     0.034     2.533     2.489
    90   1 H        0.925     0.091     1.866     2.136
    91   1 H        0.925     0.099     1.795     2.095
    92   1 H        0.925     0.099     1.794     2.094
    93   1 H        0.925     0.100     1.789     2.092
    94   1 H        0.925     0.099     1.793     2.094
    95   1 H        0.925     0.091     1.867     2.137

Wiberg/Mayer (AO) data.
largest (>0.10) Wiberg bond orders for each atom

     #   Z sym  total        # sym  WBO       # sym  WBO       # sym  WBO
 ---------------------------------------------------------------------------
     1   6 C    3.997 --     2 C    1.020    34 H    0.988    33 H    0.987
                            32 H    0.986
     2   6 C    3.998 --     1 C    1.020     3 C    1.008    36 H    0.979
                            35 H    0.976
     3   6 C    3.998 --     2 C    1.008     4 C    1.008    38 H    0.977
                            37 H    0.975
     4   6 C    3.998 --     5 C    1.008     3 C    1.008    40 H    0.975
                            39 H    0.975
     5   6 C    3.998 --     6 C    1.008     4 C    1.008    41 H    0.975
                            42 H    0.975
     6   6 C    3.998 --     7 C    1.008     5 C    1.008    43 H    0.975
                            44 H    0.975
     7   6 C    3.998 --     6 C    1.008     8 C    1.008    45 H    0.975
                            46 H    0.974
     8   6 C    3.997 --     7 C    1.008     9 C    1.007    47 H    0.975
                            48 H    0.975
     9   6 C    3.997 --    10 C    1.008     8 C    1.007    49 H    0.976
                            50 H    0.975
    10   6 C    3.997 --    11 C    1.008     9 C    1.008    51 H    0.975
                            52 H    0.974
    11   6 C    3.997 --    10 C    1.008    12 C    1.008    53 H    0.975
                            54 H    0.973
    12   6 C    3.997 --    11 C    1.008    13 C    1.007    55 H    0.975
                            56 H    0.974
    13   6 C    3.996 --    12 C    1.007    14 C    1.007    57 H    0.976
                            58 H    0.974
    14   6 C    3.996 --    15 C    1.007    13 C    1.007    59 H    0.976
                            60 H    0.973
    15   6 C    3.995 --    16 C    1.008    14 C    1.007    61 H    0.971
                            62 H    0.970
    16   6 C    3.991 --    15 C    1.008    17 C    1.004    63 H    0.974
                            64 H    0.970
    17   6 C    3.984 --    18 C    1.005    16 C    1.004    65 H    0.966
                            66 H    0.965
    18   6 C    3.928 --    17 C    1.005    67 H    0.964    68 H    0.959
                            19 N    0.923
    19   7 N    3.808 --    30 C    0.961    31 C    0.960    20 C    0.924
                            18 C    0.923
    20   6 C    3.928 --    21 C    1.005    70 H    0.964    69 H    0.959
                            19 N    0.924
    21   6 C    3.984 --    20 C    1.005    22 C    1.004    72 H    0.966
                            71 H    0.965
    22   6 C    3.992 --    23 C    1.008    21 C    1.004    74 H    0.974
                            73 H    0.970
    23   6 C    3.995 --    22 C    1.008    24 C    1.007    76 H    0.971
                            75 H    0.971
    24   6 C    3.996 --    25 C    1.007    23 C    1.007    78 H    0.976
                            77 H    0.973
    25   6 C    3.997 --    26 C    1.008    24 C    1.007    80 H    0.975
                            79 H    0.974
    26   6 C    3.997 --    25 C    1.008    27 C    1.008    82 H    0.975
                            81 H    0.974
    27   6 C    3.997 --    28 C    1.008    26 C    1.008    83 H    0.977
                            84 H    0.976
    28   6 C    3.998 --    29 C    1.020    27 C    1.008    85 H    0.978
                            86 H    0.976
    29   6 C    3.997 --    28 C    1.020    87 H    0.987    88 H    0.987
                            89 H    0.986
    30   6 C    3.931 --    90 H    0.975    91 H    0.973    92 H    0.972
                            19 N    0.961
    31   6 C    3.931 --    95 H    0.975    93 H    0.973    94 H    0.972
                            19 N    0.960
    32   1 H    0.999 --     1 C    0.986
    33   1 H    0.999 --     1 C    0.987
    34   1 H    0.999 --     1 C    0.988
    35   1 H    0.999 --     2 C    0.976
    36   1 H    0.999 --     2 C    0.979
    37   1 H    0.999 --     3 C    0.975
    38   1 H    0.999 --     3 C    0.977
    39   1 H    0.999 --     4 C    0.975
    40   1 H    0.999 --     4 C    0.975
    41   1 H    0.999 --     5 C    0.975
    42   1 H    0.999 --     5 C    0.975
    43   1 H    0.999 --     6 C    0.975
    44   1 H    0.999 --     6 C    0.975
    45   1 H    0.999 --     7 C    0.975
    46   1 H    0.999 --     7 C    0.974
    47   1 H    0.999 --     8 C    0.975
    48   1 H    0.999 --     8 C    0.975
    49   1 H    0.999 --     9 C    0.976
    50   1 H    0.999 --     9 C    0.975
    51   1 H    0.999 --    10 C    0.975
    52   1 H    0.999 --    10 C    0.974
    53   1 H    0.999 --    11 C    0.975
    54   1 H    0.999 --    11 C    0.973
    55   1 H    0.999 --    12 C    0.975
    56   1 H    0.998 --    12 C    0.974
    57   1 H    0.999 --    13 C    0.976
    58   1 H    0.998 --    13 C    0.974
    59   1 H    1.000 --    14 C    0.976
    60   1 H    0.998 --    14 C    0.973
    61   1 H    1.000 --    15 C    0.971
    62   1 H    0.997 --    15 C    0.970
    63   1 H    0.999 --    16 C    0.974
    64   1 H    0.996 --    16 C    0.970
    65   1 H    0.998 --    17 C    0.966
    66   1 H    0.994 --    17 C    0.965
    67   1 H    0.994 --    18 C    0.964
    68   1 H    0.992 --    18 C    0.959
    69   1 H    0.992 --    20 C    0.959
    70   1 H    0.994 --    20 C    0.964
    71   1 H    0.994 --    21 C    0.965
    72   1 H    0.998 --    21 C    0.966
    73   1 H    0.996 --    22 C    0.970
    74   1 H    0.999 --    22 C    0.974
    75   1 H    0.997 --    23 C    0.971
    76   1 H    1.000 --    23 C    0.971
    77   1 H    0.998 --    24 C    0.973
    78   1 H    1.000 --    24 C    0.976
    79   1 H    0.998 --    25 C    0.974
    80   1 H    0.999 --    25 C    0.975
    81   1 H    0.998 --    26 C    0.974
    82   1 H    0.999 --    26 C    0.975
    83   1 H    0.999 --    27 C    0.977
    84   1 H    0.999 --    27 C    0.976
    85   1 H    0.999 --    28 C    0.978
    86   1 H    0.999 --    28 C    0.976
    87   1 H    0.999 --    29 C    0.987
    88   1 H    0.999 --    29 C    0.987
    89   1 H    0.999 --    29 C    0.986
    90   1 H    0.992 --    30 C    0.975
    91   1 H    0.990 --    30 C    0.973
    92   1 H    0.990 --    30 C    0.972
    93   1 H    0.990 --    31 C    0.973
    94   1 H    0.990 --    31 C    0.972
    95   1 H    0.992 --    31 C    0.975
 ---------------------------------------------------------------------------

molecular dipole:
                 x           y           z       tot (Debye)
 q only:      -13.621      16.480      20.128
   full:      -13.609      16.470      20.177      74.693

           -------------------------------------------------
          | TOTAL ENERGY              -99.456281929818 Eh   |
          | GRADIENT NORM               0.000460631889 Eh/α |
          | HOMO-LUMO GAP               6.061091193897 eV   |
           -------------------------------------------------

 * finished run on 2024/12/20 at 06:50:42.212
