   * xtb version 6.7.1 (edcfbbe) compiled by 'conda@3ef47c1a292c' on 2024-11-25

   ID    Z sym.   atoms
    1    6 C      1-4, 6, 8-11, 15-21
    2    7 N      5, 7, 12-14
    3    1 H      22-41

          program call               : xtb C0613.xyz --opt --namespace C0613 --charge +1
          :  Hamiltonian                  GFN2-xTB          :
 * total energy  :   -58.6887252 Eh     change       -0.8646950E-09 Eh
 * total energy  :   -58.6966475 Eh     change       -0.7922327E-02 Eh
 * total energy  :   -58.6982771 Eh     change       -0.1629649E-02 Eh
 * total energy  :   -58.6985183 Eh     change       -0.2411722E-03 Eh
 * total energy  :   -58.6987647 Eh     change       -0.2464301E-03 Eh
 * total energy  :   -58.6988867 Eh     change       -0.1219797E-03 Eh
 * total energy  :   -58.6991666 Eh     change       -0.2799067E-03 Eh
 * total energy  :   -58.6994403 Eh     change       -0.2736592E-03 Eh
 * total energy  :   -58.6997285 Eh     change       -0.2882686E-03 Eh
 * total energy  :   -58.6998685 Eh     change       -0.1399946E-03 Eh
 * total energy  :   -58.7039314 Eh     change       -0.1916104E-04 Eh
 * total energy  :   -58.7039476 Eh     change       -0.1617922E-04 Eh
 * total energy  :   -58.7039599 Eh     change       -0.1233812E-04 Eh
 * total energy  :   -58.7039719 Eh     change       -0.1199800E-04 Eh
 * total energy  :   -58.7039859 Eh     change       -0.1399149E-04 Eh
 * total energy  :   -58.7039675 Eh     change        0.1836098E-04 Eh
 * total energy  :   -58.7039957 Eh     change       -0.2815738E-04 Eh
 * total energy  :   -58.7040015 Eh     change       -0.5778747E-05 Eh
 * total energy  :   -58.7040048 Eh     change       -0.3295178E-05 Eh
   *** GEOMETRY OPTIMIZATION CONVERGED AFTER 88 ITERATIONS ***

 final structure:
================
41
 xtb: 6.7.1 (edcfbbe)
C            1.02468755127531        0.13368528022651        0.58665290244467
C            0.06188046055029        0.92989479690119       -0.30040941686627
C            0.13915271284463        0.59923756764839       -1.79202033209662
C           -0.47071967788637       -0.74567896741574       -2.17633235091340
N            0.63366692773155       -1.24866137816298        0.74342207538179
C            1.32233309800465       -2.31066129377326        0.34444198422640
N            0.64430413690304       -3.41588482272264        0.64767966991956
C           -0.51541001822131       -3.04610320971051        1.25540437063981
C           -0.51906321296050       -1.68629347159795        1.32162063103912
C            1.03564578800776       -4.75143456812473        0.26267831056435
C            1.13109740604024       -4.82259122694531       -1.23175752176998
N            1.34381481093127       -3.70993090833472       -1.96881983166555
N            1.38918677505125       -4.02940661185658       -3.20603157758592
N            1.21944119559718       -5.33653557990455       -3.32449611804361
C            1.04689813822624       -5.88967606039197       -2.09967616969312
C            1.22371311038574       -5.96342493108531       -4.58334956685194
C            1.02652673842004       -5.17916408954229       -5.71434499344369
C            1.02571064724575       -5.77387142408633       -6.96188028378290
C            1.21881432938933       -7.14057767889881       -7.08297270154352
C            1.42390553241727       -7.91466259921458       -5.95294441795431
C            1.43006381607469       -7.33265010987553       -4.69802479941307
H            1.05730170508158        0.58990353913056        1.58059143342087
H            2.02771668208790        0.15501377779871        0.15738037663622
H           -0.96207974649806        0.79252632456058        0.05047052312109
H            0.31468621683777        1.98257253725676       -0.16727028202814
H           -0.39969131744446        1.38552961005507       -2.32270585335588
H            1.17783122272786        0.63805714522855       -2.12331723276763
H           -1.43899438730395       -0.88053153866012       -1.69816288320597
H           -0.62353600667301       -0.77845001403307       -3.25109706369464
H            0.17611401018466       -1.58039257940117       -1.91986695909225
H            2.26449135031538       -2.29087062318102       -0.16648628348227
H           -1.24222592351420       -3.75459752615694        1.59661411088737
H           -1.24754425673045       -1.02170558664244        1.73828844636206
H            2.00780669610603       -4.98763739082635        0.71159003456976
H            0.29838273605187       -5.46486670745765        0.63580886511968
H            0.87147815647108       -6.92909711175226       -1.93090244305773
H            0.87891664731199       -4.11774834428145       -5.59694468402279
H            0.87188065710343       -5.16838958725568       -7.84122056099714
H            1.21467211208351       -7.60252816680236       -8.05764586512546
H            1.58383551777068       -8.97728556978360       -6.04588573486208
H            1.60974766200301       -7.94136090095419       -3.82549780701419

          :  Hamiltonian                  GFN2-xTB          :
         :: total energy             -58.704004760908 Eh    ::
         :: gradient norm              0.000803131271 Eh/a0 ::
         :: HOMO-LUMO gap              2.977948875158 eV    ::
         :: SCC energy               -59.617824469144 Eh    ::
         :: -> dispersion             -0.040673144785 Eh    ::
         :: repulsion energy           0.913819708235 Eh    ::

    * Orbital Energies and Occupations

         #    Occupation            Energy/Eh            Energy/eV
      -------------------------------------------------------------
         1        2.0000           -0.8768582             -23.8605
       ...           ...                  ...                  ...
        42        2.0000           -0.5748323             -15.6420
        43        2.0000           -0.5705161             -15.5245
        44        2.0000           -0.5591268             -15.2146
        45        2.0000           -0.5477223             -14.9043
        46        2.0000           -0.5396383             -14.6843
        47        2.0000           -0.5331368             -14.5074
        48        2.0000           -0.5315823             -14.4651
        49        2.0000           -0.5283463             -14.3770
        50        2.0000           -0.5268049             -14.3351
        51        2.0000           -0.5200456             -14.1512
        52        2.0000           -0.5046723             -13.7328
        53        2.0000           -0.5012382             -13.6394
        54        2.0000           -0.4970165             -13.5245 (HOMO)
        55                         -0.3875789             -10.5466 (LUMO)
        56                         -0.3651667              -9.9367
        57                         -0.3544297              -9.6445
        58                         -0.3222548              -8.7690
        59                         -0.3117881              -8.4842
        60                         -0.2953190              -8.0360
        61                         -0.1866155              -5.0781
        62                         -0.1695406              -4.6134
        63                         -0.1202155              -3.2712
        64                         -0.0993331              -2.7030
        65                         -0.0533951              -1.4530
       ...                                ...                  ...
       104                          0.5794883              15.7687
      -------------------------------------------------------------
                  HL-Gap            0.1094376 Eh            2.9779 eV

     #   Z          covCN         q      C6AA      α(0)
     1   6 C        3.741    -0.027    21.140     6.560
     2   6 C        3.801    -0.070    21.845     6.654
     3   6 C        3.800    -0.064    21.735     6.638
     4   6 C        3.751    -0.116    22.774     6.806
     5   7 N        2.870     0.078    19.883     6.623
     6   6 C        3.100     0.054    26.668     8.463
     7   7 N        2.878     0.071    19.997     6.642
     8   6 C        3.069    -0.008    28.148     8.699
     9   6 C        3.076    -0.006    28.099     8.691
    10   6 C        3.745    -0.022    21.036     6.542
    11   6 C        3.118     0.043    26.865     8.489
    12   7 N        2.065    -0.206    26.186     7.591
    13   7 N        2.181    -0.107    23.815     7.242
    14   7 N        3.023     0.110    19.356     6.534
    15   6 C        2.979    -0.025    28.625     8.776
    16   6 C        2.919     0.046    26.973     8.517
    17   6 C        2.923    -0.033    28.812     8.803
    18   6 C        2.921    -0.019    28.492     8.753
    19   6 C        2.919    -0.020    28.504     8.755
    20   6 C        2.921    -0.021    28.537     8.760
    21   6 C        2.920    -0.038    28.943     8.822
    22   1 H        0.924     0.084     1.936     2.176
    23   1 H        0.924     0.086     1.922     2.168
    24   1 H        0.924     0.057     2.235     2.338
    25   1 H        0.924     0.069     2.101     2.267
    26   1 H        0.924     0.056     2.247     2.344
    27   1 H        0.924     0.047     2.362     2.404
    28   1 H        0.925     0.032     2.562     2.503
    29   1 H        0.925     0.053     2.280     2.361
    30   1 H        0.925     0.040     2.448     2.447
    31   1 H        0.926     0.128     1.551     1.947
    32   1 H        0.926     0.101     1.779     2.086
    33   1 H        0.926     0.104     1.744     2.065
    34   1 H        0.924     0.089     1.891     2.150
    35   1 H        0.924     0.087     1.905     2.158
    36   1 H        0.927     0.057     2.240     2.340
    37   1 H        0.926     0.069     2.096     2.264
    38   1 H        0.926     0.060     2.200     2.319
    39   1 H        0.926     0.060     2.197     2.318
    40   1 H        0.926     0.058     2.225     2.333
    41   1 H        0.926     0.046     2.370     2.407

Wiberg/Mayer (AO) data.
largest (>0.10) Wiberg bond orders for each atom

     #   Z sym  total        # sym  WBO       # sym  WBO       # sym  WBO
 ---------------------------------------------------------------------------
     1   6 C    3.938 --     2 C    0.987     5 N    0.968    23 H    0.967
                            22 H    0.958
     2   6 C    3.983 --     3 C    1.008     1 C    0.987    24 H    0.972
                            25 H    0.969
     3   6 C    3.993 --     4 C    1.019     2 C    1.008    27 H    0.976
                            26 H    0.975
     4   6 C    3.994 --     3 C    1.019    28 H    0.987    29 H    0.985
                            30 H    0.981
     5   7 N    3.723 --     6 C    1.372     9 C    1.226     1 C    0.968
     6   6 C    3.945 --     5 N    1.372     7 N    1.352    31 H    0.949
     7   7 N    3.713 --     6 C    1.352     8 C    1.226    10 C    0.975
     8   6 C    3.949 --     9 C    1.592     7 N    1.226    32 H    0.962
     9   6 C    3.950 --     8 C    1.592     5 N    1.226    33 H    0.961
    10   6 C    3.947 --    11 C    0.990     7 N    0.975    35 H    0.964
                            34 H    0.947
    11   6 C    3.968 --    15 C    1.484    12 N    1.337    10 C    0.990
    12   7 N    3.047 --    13 N    1.470    11 C    1.337    14 N    0.110
    13   7 N    3.010 --    12 N    1.470    14 N    1.250    15 C    0.126
    14   7 N    3.735 --    15 C    1.265    13 N    1.250    16 C    1.019
                            12 N    0.110
    15   6 C    3.958 --    11 C    1.484    14 N    1.265    36 H    0.966
                            13 N    0.126
    16   6 C    3.950 --    21 C    1.383    17 C    1.378    14 N    1.019
    17   6 C    3.987 --    18 C    1.452    16 C    1.378    37 H    0.964
                            20 C    0.108
    18   6 C    3.990 --    17 C    1.452    19 C    1.433    38 H    0.968
                            21 C    0.108
    19   6 C    3.981 --    20 C    1.435    18 C    1.433    39 H    0.969
    20   6 C    3.990 --    21 C    1.448    19 C    1.435    40 H    0.969
                            17 C    0.108
    21   6 C    3.990 --    20 C    1.448    16 C    1.383    41 H    0.966
                            18 C    0.108
    22   1 H    0.992 --     1 C    0.958
    23   1 H    0.992 --     1 C    0.967
    24   1 H    0.997 --     2 C    0.972
    25   1 H    0.995 --     2 C    0.969
    26   1 H    0.997 --     3 C    0.975
    27   1 H    0.998 --     3 C    0.976
    28   1 H    0.999 --     4 C    0.987
    29   1 H    0.997 --     4 C    0.985
    30   1 H    0.998 --     4 C    0.981
    31   1 H    0.984 --     6 C    0.949
    32   1 H    0.989 --     8 C    0.962
    33   1 H    0.989 --     9 C    0.961
    34   1 H    0.991 --    10 C    0.947
    35   1 H    0.992 --    10 C    0.964
    36   1 H    0.997 --    15 C    0.966
    37   1 H    0.995 --    17 C    0.964
    38   1 H    0.996 --    18 C    0.968
    39   1 H    0.996 --    19 C    0.969
    40   1 H    0.996 --    20 C    0.969
    41   1 H    0.998 --    21 C    0.966
 ---------------------------------------------------------------------------

molecular dipole:
                 x           y           z       tot (Debye)
 q only:        1.169      -5.681      -0.979
   full:        1.157      -6.340      -0.638      16.461

           -------------------------------------------------
          | TOTAL ENERGY              -58.704004760908 Eh   |
          | GRADIENT NORM               0.000803131271 Eh/α |
          | HOMO-LUMO GAP               2.977948875158 eV   |
           -------------------------------------------------

 * finished run on 2024/12/20 at 06:50:36.262
