   * xtb version 6.7.1 (edcfbbe) compiled by 'conda@3ef47c1a292c' on 2024-11-25

   ID    Z sym.   atoms
    1    9 F      1
    2    6 C      2, 3, 5-9
    3    7 N      4
    4    1 H      10-18

          program call               : xtb C0619.xyz --opt --namespace C0619 --charge +1
          :  Hamiltonian                  GFN2-xTB          :
 * total energy  :   -26.8085261 Eh     change       -0.3510046E-09 Eh
 * total energy  :   -26.8103086 Eh     change       -0.1782512E-02 Eh
 * total energy  :   -26.8106421 Eh     change       -0.3334853E-03 Eh
 * total energy  :   -26.8106949 Eh     change       -0.5282286E-04 Eh
 * total energy  :   -26.8107305 Eh     change       -0.3563552E-04 Eh
 * total energy  :   -26.8107514 Eh     change       -0.2086900E-04 Eh
 * total energy  :   -26.8107595 Eh     change       -0.8111826E-05 Eh
 * total energy  :   -26.8107637 Eh     change       -0.4148746E-05 Eh
   *** GEOMETRY OPTIMIZATION CONVERGED AFTER 8 ITERATIONS ***

 final structure:
================
18
 xtb: 6.7.1 (edcfbbe)
F            0.81005171477139       -0.32201174835157       -1.00177371609171
C            1.97904639192692       -0.07009595772524       -0.34200127399188
C            3.07283922881951        0.21820295936220       -1.37885009838020
N            2.68600071446995        1.35931521516924       -2.19346203958381
C            1.85550842961651        1.16914308049613       -3.22591154624529
C            1.39400912238217        2.23457914343264       -3.97153561901653
C            1.80168553672184        3.52112575111107       -3.64408839847001
C            2.66638774599674        3.69497887419621       -2.56950514687483
C            3.08813702028581        2.59167946092301       -1.85851057601540
H            1.80056485521370        0.78642123648306        0.31635027975762
H            2.22918185211180       -0.95745907420413        0.24558979817241
H            4.01346604818720        0.42088214513731       -0.86590613290425
H            3.19316969020380       -0.65610544832470       -2.02309347084570
H            1.55181998451721        0.15525926538280       -3.44219312500102
H            0.72335224820033        2.05457368370093       -4.79639461393181
H            1.45434789047468        4.36994954456806       -4.21187802248623
H            3.00826054840764        4.67662719749521       -2.28280980013286
H            3.75538097769258        2.68490467114780       -1.01409649795844

          :  Hamiltonian                  GFN2-xTB          :
         :: total energy             -26.810763654230 Eh    ::
         :: gradient norm              0.000704898431 Eh/a0 ::
         :: HOMO-LUMO gap              3.668979630477 eV    ::
         :: SCC energy               -27.191084088831 Eh    ::
         :: -> dispersion             -0.012278610682 Eh    ::
         :: repulsion energy           0.380320434601 Eh    ::

    * Orbital Energies and Occupations

         #    Occupation            Energy/Eh            Energy/eV
      -------------------------------------------------------------
         1        2.0000           -0.9624399             -26.1893
       ...           ...                  ...                  ...
        12        2.0000           -0.7133083             -19.4101
        13        2.0000           -0.7084548             -19.2780
        14        2.0000           -0.6936272             -18.8746
        15        2.0000           -0.6910849             -18.8054
        16        2.0000           -0.6869164             -18.6919
        17        2.0000           -0.6807544             -18.5243
        18        2.0000           -0.6587365             -17.9251
        19        2.0000           -0.6428714             -17.4934
        20        2.0000           -0.6327098             -17.2169
        21        2.0000           -0.6319189             -17.1954
        22        2.0000           -0.6256090             -17.0237
        23        2.0000           -0.6123124             -16.6619
        24        2.0000           -0.6056642             -16.4810 (HOMO)
        25                         -0.4708317             -12.8120 (LUMO)
        26                         -0.4383079             -11.9270
        27                         -0.3180656              -8.6550
        28                         -0.1955168              -5.3203
        29                         -0.1078171              -2.9339
        30                         -0.0883589              -2.4044
        31                         -0.0802587              -2.1840
        32                         -0.0464239              -1.2633
        33                         -0.0374704              -1.0196
        34                         -0.0228142              -0.6208
        35                         -0.0138220              -0.3761
       ...                                ...                  ...
        45                          0.4374310              11.9031
      -------------------------------------------------------------
                  HL-Gap            0.1348325 Eh            3.6690 eV

     #   Z          covCN         q      C6AA      α(0)
     1   9 F        0.785    -0.232    11.569     4.018
     2   6 C        3.608     0.096    19.490     6.377
     3   6 C        3.759    -0.043    21.387     6.593
     4   7 N        2.751     0.118    19.230     6.513
     5   6 C        2.891     0.040    27.102     8.535
     6   6 C        2.915    -0.006    28.173     8.704
     7   6 C        2.925     0.018    27.617     8.618
     8   6 C        2.915    -0.007    28.205     8.709
     9   6 C        2.889     0.031    27.301     8.566
    10   1 H        0.924     0.083     1.951     2.185
    11   1 H        0.924     0.105     1.742     2.064
    12   1 H        0.924     0.105     1.742     2.064
    13   1 H        0.924     0.115     1.651     2.009
    14   1 H        0.926     0.125     1.570     1.959
    15   1 H        0.926     0.116     1.646     2.007
    16   1 H        0.926     0.113     1.668     2.020
    17   1 H        0.926     0.113     1.668     2.019
    18   1 H        0.926     0.110     1.698     2.038

Wiberg/Mayer (AO) data.
largest (>0.10) Wiberg bond orders for each atom

     #   Z sym  total        # sym  WBO       # sym  WBO       # sym  WBO
 ---------------------------------------------------------------------------
     1   9 F    1.024 --     2 C    0.954
     2   6 C    3.898 --     3 C    0.980    10 H    0.966    11 H    0.959
                             1 F    0.954
     3   6 C    3.943 --     2 C    0.980     4 N    0.972    12 H    0.962
                            13 H    0.957
     4   7 N    3.767 --     5 C    1.326     9 C    1.320     3 C    0.972
     5   6 C    3.951 --     6 C    1.458     4 N    1.326    14 H    0.951
     6   6 C    3.979 --     5 C    1.458     7 C    1.425    15 H    0.957
     7   6 C    3.967 --     6 C    1.425     8 C    1.416    16 H    0.960
     8   6 C    3.980 --     9 C    1.469     7 C    1.416    17 H    0.958
     9   6 C    3.957 --     8 C    1.469     4 N    1.320    18 H    0.954
    10   1 H    0.993 --     2 C    0.966
    11   1 H    0.988 --     2 C    0.959
    12   1 H    0.989 --     3 C    0.962
    13   1 H    0.986 --     3 C    0.957
    14   1 H    0.984 --     5 C    0.951
    15   1 H    0.986 --     6 C    0.957
    16   1 H    0.987 --     7 C    0.960
    17   1 H    0.987 --     8 C    0.958
    18   1 H    0.988 --     9 C    0.954
 ---------------------------------------------------------------------------

molecular dipole:
                 x           y           z       tot (Debye)
 q only:        5.158       3.550      -4.376
   full:        5.279       3.554      -4.291      19.509

           -------------------------------------------------
          | TOTAL ENERGY              -26.810763654230 Eh   |
          | GRADIENT NORM               0.000704898431 Eh/α |
          | HOMO-LUMO GAP               3.668979630477 eV   |
           -------------------------------------------------

 * finished run on 2024/12/20 at 06:50:45.154
