   * xtb version 6.7.1 (edcfbbe) compiled by 'conda@3ef47c1a292c' on 2024-11-25

   ID    Z sym.   atoms
    1    6 C      1-10, 12-17
    2    7 N      11
    3    1 H      18-45

          program call               : xtb C0610.xyz --opt --namespace C0610 --charge +1
          :  Hamiltonian                  GFN2-xTB          :
 * total energy  :   -51.0832144 Eh     change       -0.9017853E-09 Eh
 * total energy  :   -51.0861875 Eh     change       -0.2973081E-02 Eh
 * total energy  :   -51.0867173 Eh     change       -0.5297574E-03 Eh
 * total energy  :   -51.0868279 Eh     change       -0.1106084E-03 Eh
 * total energy  :   -51.0869425 Eh     change       -0.1145781E-03 Eh
 * total energy  :   -51.0870173 Eh     change       -0.7486850E-04 Eh
 * total energy  :   -51.0871023 Eh     change       -0.8496846E-04 Eh
 * total energy  :   -51.0871882 Eh     change       -0.8589425E-04 Eh
 * total energy  :   -51.0872501 Eh     change       -0.6191497E-04 Eh
 * total energy  :   -51.0873193 Eh     change       -0.6915960E-04 Eh
 * total energy  :   -51.0879609 Eh     change       -0.1604876E-04 Eh
 * total energy  :   -51.0879816 Eh     change       -0.2068998E-04 Eh
 * total energy  :   -51.0879892 Eh     change       -0.7627282E-05 Eh
 * total energy  :   -51.0880053 Eh     change       -0.1612140E-04 Eh
 * total energy  :   -51.0880128 Eh     change       -0.7479961E-05 Eh
 * total energy  :   -51.0880315 Eh     change       -0.1874436E-04 Eh
 * total energy  :   -51.0880418 Eh     change       -0.1022373E-04 Eh
 * total energy  :   -51.0880473 Eh     change       -0.5489375E-05 Eh
 * total energy  :   -51.0880522 Eh     change       -0.4916850E-05 Eh
   *** GEOMETRY OPTIMIZATION CONVERGED AFTER 30 ITERATIONS ***

 final structure:
================
45
 xtb: 6.7.1 (edcfbbe)
C            0.80149951048980       -0.63230945870712        0.13647312244646
C            0.94008947366139        0.54706285672274        1.09147345529947
C            1.17159125343262        1.87832457703772        0.37499818918430
C            0.03404914554288        2.31998354861505       -0.54844742623728
C           -1.32295086880390        2.49737018579245        0.13620518545471
C           -1.33269870808123        3.49161880562401        1.29894529804336
C           -0.87542668491303        4.90773312626144        0.94046163244644
C           -1.69352281657760        5.58924180305486       -0.15976103832795
C           -3.17794099540744        5.76348370842936        0.15812482849752
C           -3.46014226386290        6.72563048466883        1.32229012508617
N           -3.09511808266397        8.08239997509405        0.95902774749935
C           -3.96506039217931        8.83586896786991        0.27978783171203
C           -3.61684737741937       10.09924901614465       -0.15309918186690
C           -2.34630818717033       10.58360941976668        0.11196658737741
C           -1.43832126020464        9.79192102797722        0.81900589615366
C           -1.86650438549353        8.53629866356283        1.22611291052244
C           -0.06809470811770       10.27568000529310        1.13450384544397
H           -0.10422871647692       -0.55428067940417       -0.45941236789601
H            0.75712194468877       -1.56371383558874        0.69516912569802
H            1.65457676651083       -0.67852934774289       -0.53654119293834
H            0.05214811798919        0.61069873934756        1.72332521692185
H            1.79296828077735        0.36748410001184        1.75012557615625
H            1.35636509279809        2.65184318176255        1.12414138004314
H            2.07841088264523        1.79297545990911       -0.22851715045711
H            0.32665752765661        3.25645193619925       -1.02991459803383
H           -0.08405810838664        1.58136431621332       -1.34235750376727
H           -2.05201158722992        2.80461696527160       -0.61772218775752
H           -1.65581709128064        1.53227361226218        0.52020384755289
H           -2.34084480890031        3.52374996828809        1.71992699356474
H           -0.67609893491346        3.12002624908754        2.08656833583673
H           -0.88898531729081        5.50881357834138        1.85449493652600
H            0.16168909529470        4.86831900639960        0.60629634749154
H           -1.24610971782380        6.56209423479379       -0.38867841491784
H           -1.61815619430253        4.99069306655027       -1.06726322256761
H           -3.69685180694901        6.12451493113090       -0.73272592955485
H           -3.60706608839106        4.79741761974066        0.42000407362851
H           -4.52350340896262        6.70118705668750        1.56677398358311
H           -2.89166060202811        6.42219226082635        2.20164772722228
H           -4.94194279064669        8.41815135488591        0.08929138417164
H           -4.33525111496050       10.69379139687354       -0.69382230796888
H           -2.05534250488239       11.56764520341082       -0.22178766815344
H           -1.21173788546230        7.88541989644873        1.78662273371447
H            0.39440311181635       10.71166525269016        0.25163035754680
H           -0.11796578741499       11.05797921924656        1.89155829512673
H            0.56323899389174        9.47555854314728        1.50898322047775

          :  Hamiltonian                  GFN2-xTB          :
         :: total energy             -51.088052169057 Eh    ::
         :: gradient norm              0.000257774441 Eh/a0 ::
         :: HOMO-LUMO gap              0.923915682253 eV    ::
         :: SCC energy               -51.902483243004 Eh    ::
         :: -> dispersion             -0.037169995232 Eh    ::
         :: repulsion energy           0.814431073947 Eh    ::

    * Orbital Energies and Occupations

         #    Occupation            Energy/Eh            Energy/eV
      -------------------------------------------------------------
         1        2.0000           -0.8703092             -23.6823
       ...           ...                  ...                  ...
        36        2.0000           -0.5725141             -15.5789
        37        2.0000           -0.5631020             -15.3228
        38        2.0000           -0.5573883             -15.1673
        39        2.0000           -0.5526503             -15.0384
        40        2.0000           -0.5426501             -14.7663
        41        2.0000           -0.5358474             -14.5812
        42        2.0000           -0.5289270             -14.3928
        43        2.0000           -0.5167386             -14.0612
        44        2.0000           -0.5104263             -13.8894
        45        2.0000           -0.5067460             -13.7893
        46        2.0000           -0.4893008             -13.3146
        47        2.0000           -0.4855791             -13.2133
        48        2.0000           -0.4820878             -13.1183 (HOMO)
        49                         -0.4481346             -12.1944 (LUMO)
        50                         -0.4150859             -11.2951
        51                         -0.2983749              -8.1192
        52                         -0.1624487              -4.4205
        53                         -0.0783065              -2.1308
        54                         -0.0602991              -1.6408
        55                         -0.0469775              -1.2783
        56                         -0.0358948              -0.9767
        57                         -0.0319426              -0.8692
        58                         -0.0119557              -0.3253
        59                         -0.0080771              -0.2198
       ...                                ...                  ...
        96                          0.4464802              12.1493
      -------------------------------------------------------------
                  HL-Gap            0.0339533 Eh            0.9239 eV

     #   Z          covCN         q      C6AA      α(0)
     1   6 C        3.752    -0.104    22.547     6.772
     2   6 C        3.799    -0.053    21.532     6.607
     3   6 C        3.800    -0.058    21.625     6.621
     4   6 C        3.800    -0.059    21.640     6.623
     5   6 C        3.800    -0.060    21.662     6.627
     6   6 C        3.800    -0.062    21.684     6.630
     7   6 C        3.800    -0.061    21.672     6.628
     8   6 C        3.800    -0.066    21.759     6.642
     9   6 C        3.801    -0.069    21.811     6.649
    10   6 C        3.760    -0.034    21.237     6.570
    11   7 N        2.749     0.109    19.371     6.537
    12   6 C        2.894     0.025    27.441     8.589
    13   6 C        2.913    -0.015    28.376     8.735
    14   6 C        2.930    -0.004    28.115     8.696
    15   6 C        2.961     0.048    26.928     8.512
    16   6 C        2.898     0.018    27.597     8.613
    17   6 C        3.759    -0.133    23.106     6.853
    18   1 H        0.925     0.034     2.529     2.487
    19   1 H        0.925     0.037     2.491     2.468
    20   1 H        0.925     0.037     2.488     2.466
    21   1 H        0.924     0.029     2.596     2.520
    22   1 H        0.924     0.032     2.565     2.505
    23   1 H        0.924     0.024     2.667     2.554
    24   1 H        0.924     0.034     2.527     2.486
    25   1 H        0.924     0.023     2.681     2.561
    26   1 H        0.924     0.041     2.440     2.443
    27   1 H        0.924     0.025     2.662     2.551
    28   1 H        0.924     0.044     2.401     2.423
    29   1 H        0.924     0.025     2.663     2.552
    30   1 H        0.924     0.047     2.362     2.403
    31   1 H        0.924     0.016     2.799     2.616
    32   1 H        0.924     0.050     2.315     2.379
    33   1 H        0.924     0.022     2.696     2.568
    34   1 H        0.925     0.066     2.130     2.282
    35   1 H        0.924     0.050     2.323     2.383
    36   1 H        0.925     0.083     1.945     2.181
    37   1 H        0.924     0.086     1.919     2.167
    38   1 H        0.925     0.094     1.838     2.120
    39   1 H        0.926     0.103     1.757     2.073
    40   1 H        0.926     0.102     1.765     2.077
    41   1 H        0.926     0.100     1.789     2.092
    42   1 H        0.926     0.105     1.740     2.063
    43   1 H        0.925     0.093     1.852     2.128
    44   1 H        0.925     0.097     1.808     2.103
    45   1 H        0.925     0.078     2.002     2.213

Wiberg/Mayer (AO) data.
largest (>0.10) Wiberg bond orders for each atom

     #   Z sym  total        # sym  WBO       # sym  WBO       # sym  WBO
 ---------------------------------------------------------------------------
     1   6 C    3.996 --     2 C    1.020    20 H    0.987    19 H    0.987
                            18 H    0.986
     2   6 C    3.998 --     1 C    1.020     3 C    1.008    22 H    0.978
                            21 H    0.976
     3   6 C    3.997 --     2 C    1.008     4 C    1.008    24 H    0.977
                            23 H    0.976
     4   6 C    3.997 --     5 C    1.008     3 C    1.008    25 H    0.975
                            26 H    0.974
     5   6 C    3.996 --     4 C    1.008     6 C    1.008    27 H    0.975
                            28 H    0.974
     6   6 C    3.995 --     5 C    1.008     7 C    1.007    29 H    0.975
                            30 H    0.973
     7   6 C    3.995 --     8 C    1.007     6 C    1.007    32 H    0.972
                            31 H    0.972
     8   6 C    3.993 --     9 C    1.010     7 C    1.007    33 H    0.972
                            34 H    0.966
     9   6 C    3.981 --     8 C    1.010    35 H    0.974    10 C    0.972
                            36 H    0.960
    10   6 C    3.934 --     9 C    0.972    11 N    0.965    37 H    0.963
                            38 H    0.960
    11   7 N    3.766 --    12 C    1.327    16 C    1.325    10 C    0.965
    12   6 C    3.960 --    13 C    1.449    11 N    1.327    39 H    0.956
    13   6 C    3.983 --    12 C    1.449    14 C    1.440    40 H    0.960
    14   6 C    3.975 --    13 C    1.440    15 C    1.376    41 H    0.962
    15   6 C    3.981 --    16 C    1.411    14 C    1.376    17 C    1.046
    16   6 C    3.958 --    15 C    1.411    11 N    1.325    42 H    0.951
    17   6 C    3.983 --    15 C    1.046    45 H    0.979    43 H    0.960
                            44 H    0.946
    18   1 H    0.999 --     1 C    0.986
    19   1 H    0.999 --     1 C    0.987
    20   1 H    0.999 --     1 C    0.987
    21   1 H    0.999 --     2 C    0.976
    22   1 H    0.999 --     2 C    0.978
    23   1 H    0.999 --     3 C    0.976
    24   1 H    0.999 --     3 C    0.977
    25   1 H    0.999 --     4 C    0.975
    26   1 H    0.998 --     4 C    0.974
    27   1 H    0.999 --     5 C    0.975
    28   1 H    0.998 --     5 C    0.974
    29   1 H    0.999 --     6 C    0.975
    30   1 H    0.998 --     6 C    0.973
    31   1 H    1.000 --     7 C    0.972
    32   1 H    0.997 --     7 C    0.972
    33   1 H    0.999 --     8 C    0.972
    34   1 H    0.995 --     8 C    0.966
    35   1 H    0.997 --     9 C    0.974
    36   1 H    0.991 --     9 C    0.960
    37   1 H    0.992 --    10 C    0.963
    38   1 H    0.991 --    10 C    0.960
    39   1 H    0.989 --    12 C    0.956
    40   1 H    0.989 --    13 C    0.960
    41   1 H    0.990 --    14 C    0.962
    42   1 H    0.989 --    16 C    0.951
    43   1 H    0.991 --    17 C    0.960
    44   1 H    0.990 --    17 C    0.946
    45   1 H    0.994 --    17 C    0.979
 ---------------------------------------------------------------------------

molecular dipole:
                 x           y           z       tot (Debye)
 q only:       -4.672      15.711       1.332
   full:       -4.797      15.795       1.359      42.099

           -------------------------------------------------
          | TOTAL ENERGY              -51.088052169057 Eh   |
          | GRADIENT NORM               0.000257774441 Eh/α |
          | HOMO-LUMO GAP               0.923915682253 eV   |
           -------------------------------------------------

 * finished run on 2024/12/20 at 06:50:30.267
