   * xtb version 6.7.1 (edcfbbe) compiled by 'conda@3ef47c1a292c' on 2024-11-25

   ID    Z sym.   atoms
    1    6 C      1-3, 5, 6, 8, 9
    2    7 N      4
    3    8 O      7
    4    1 H      10-27

          program call               : xtb C0617.xyz --opt --namespace C0617 --charge +1
          :  Hamiltonian                  GFN2-xTB          :
 * total energy  :   -30.7382569 Eh     change       -0.6846790E-10 Eh
 * total energy  :   -30.7453696 Eh     change       -0.7112712E-02 Eh
 * total energy  :   -30.7471047 Eh     change       -0.1735074E-02 Eh
 * total energy  :   -30.7472522 Eh     change       -0.1474908E-03 Eh
 * total energy  :   -30.7474661 Eh     change       -0.2139000E-03 Eh
 * total energy  :   -30.7475836 Eh     change       -0.1174951E-03 Eh
 * total energy  :   -30.7478129 Eh     change       -0.2293563E-03 Eh
 * total energy  :   -30.7479127 Eh     change       -0.9980607E-04 Eh
 * total energy  :   -30.7479794 Eh     change       -0.6670003E-04 Eh
 * total energy  :   -30.7480291 Eh     change       -0.4966765E-04 Eh
 * total energy  :   -30.7490615 Eh     change       -0.7070274E-04 Eh
 * total energy  :   -30.7489048 Eh     change        0.1567019E-03 Eh
 * total energy  :   -30.7491618 Eh     change       -0.2570153E-03 Eh
 * total energy  :   -30.7492204 Eh     change       -0.5862191E-04 Eh
 * total energy  :   -30.7492728 Eh     change       -0.5240440E-04 Eh
 * total energy  :   -30.7492975 Eh     change       -0.2469487E-04 Eh
 * total energy  :   -30.7493160 Eh     change       -0.1844729E-04 Eh
 * total energy  :   -30.7493214 Eh     change       -0.5472854E-05 Eh
 * total energy  :   -30.7493258 Eh     change       -0.4387251E-05 Eh
   *** GEOMETRY OPTIMIZATION CONVERGED AFTER 28 ITERATIONS ***

 final structure:
================
27
 xtb: 6.7.1 (edcfbbe)
C            1.29600895511085       -0.15946214497142        0.73464744607159
C            0.38465248222457        1.05663288870523        0.88126172367010
C            1.01301388157241        2.35144384556162        0.34601155435605
N            0.52963618221993        2.81417822667700       -0.98975636079606
C           -0.93441812986936        3.11390887903618       -1.00311260364925
C           -1.49281240776996        3.81017704811130        0.24354442043550
O           -0.74748151173208        4.97080034870895        0.53153107790476
C            1.27712961456099        4.04228852992292       -1.33834721458099
C            0.80755357643809        1.79772220511651       -2.02075128974053
H            1.51576990118584       -0.39253976694726       -0.30366660202616
H            0.81862653251652       -1.02874401124047        1.17781523017959
H            2.23537232378058        0.00480433248146        1.25618828962602
H           -0.57388088863694        0.85440550872034        0.40351755917911
H            0.18240416931647        1.19309595488294        1.94448060113464
H            0.84562469200531        3.17742038323606        1.03754201390115
H            2.09213149572807        2.20578042507087        0.26400048966847
H           -1.12166492516870        3.74947814108473       -1.87048235502397
H           -1.48930837675546        2.18411856773415       -1.13414587347641
H           -2.53671711387729        4.05696842269273        0.01570633910045
H           -1.48895361313882        3.12862445373136        1.10453937212892
H           -1.24359252681978        5.54544351659708        1.12305493856527
H            2.34784354929543        3.85546517212528       -1.29148925450821
H            1.02339301110665        4.35940522093728       -2.34787659523890
H            1.01719848538702        4.83818824466677       -0.64369778211664
H            1.87825494663747        1.60851343462358       -2.07191554870764
H            0.29533767823909        0.86661793142940       -1.79147047618139
H            0.46922801644509        2.15020424130492       -2.99378909987438

          :  Hamiltonian                  GFN2-xTB          :
         :: total energy             -30.749325814012 Eh    ::
         :: gradient norm              0.000598914205 Eh/a0 ::
         :: HOMO-LUMO gap              9.084989882533 eV    ::
         :: SCC energy               -31.135039282327 Eh    ::
         :: -> dispersion             -0.018442651192 Eh    ::
         :: repulsion energy           0.385713468315 Eh    ::

    * Orbital Energies and Occupations

         #    Occupation            Energy/Eh            Energy/eV
      -------------------------------------------------------------
         1        2.0000           -0.8615316             -23.4435
       ...           ...                  ...                  ...
        16        2.0000           -0.6594043             -17.9433
        17        2.0000           -0.6563845             -17.8611
        18        2.0000           -0.6483347             -17.6421
        19        2.0000           -0.6472885             -17.6136
        20        2.0000           -0.6359654             -17.3055
        21        2.0000           -0.6329167             -17.2225
        22        2.0000           -0.6297390             -17.1361
        23        2.0000           -0.6257079             -17.0264
        24        2.0000           -0.6072636             -16.5245
        25        2.0000           -0.5922796             -16.1167
        26        2.0000           -0.5783492             -15.7377
        27        2.0000           -0.5710198             -15.5382
        28        2.0000           -0.5640094             -15.3475 (HOMO)
        29                         -0.2301422              -6.2625 (LUMO)
        30                         -0.1720423              -4.6815
        31                         -0.1500916              -4.0842
        32                         -0.1437694              -3.9122
        33                         -0.1073554              -2.9213
        34                         -0.0681993              -1.8558
        35                         -0.0524783              -1.4280
        36                         -0.0467547              -1.2723
        37                         -0.0330533              -0.8994
        38                         -0.0179676              -0.4889
        39                         -0.0064070              -0.1743
       ...                                ...                  ...
        54                          0.1652543               4.4968
      -------------------------------------------------------------
                  HL-Gap            0.3338672 Eh            9.0850 eV

     #   Z          covCN         q      C6AA      α(0)
     1   6 C        3.751    -0.122    22.893     6.823
     2   6 C        3.798    -0.068    21.797     6.648
     3   6 C        3.759    -0.047    21.468     6.605
     4   7 N        3.621     0.138    18.889     6.455
     5   6 C        3.760    -0.041    21.359     6.589
     6   6 C        3.672     0.071    19.621     6.349
     7   8 O        1.656    -0.440    21.640     6.280
     8   6 C        3.727    -0.105    22.607     6.788
     9   6 C        3.723    -0.097    22.458     6.767
    10   1 H        0.925     0.045     2.377     2.411
    11   1 H        0.925     0.065     2.143     2.289
    12   1 H        0.925     0.056     2.250     2.346
    13   1 H        0.925     0.051     2.312     2.378
    14   1 H        0.924     0.069     2.097     2.265
    15   1 H        0.925     0.101     1.780     2.086
    16   1 H        0.924     0.090     1.878     2.143
    17   1 H        0.924     0.099     1.793     2.094
    18   1 H        0.924     0.088     1.898     2.154
    19   1 H        0.924     0.063     2.163     2.300
    20   1 H        0.923     0.053     2.283     2.363
    21   1 H        0.805     0.315     0.677     1.293
    22   1 H        0.925     0.094     1.842     2.122
    23   1 H        0.925     0.095     1.836     2.119
    24   1 H        0.925     0.130     1.535     1.938
    25   1 H        0.925     0.101     1.777     2.085
    26   1 H        0.925     0.101     1.772     2.082
    27   1 H        0.925     0.094     1.838     2.120

Wiberg/Mayer (AO) data.
largest (>0.10) Wiberg bond orders for each atom

     #   Z sym  total        # sym  WBO       # sym  WBO       # sym  WBO
 ---------------------------------------------------------------------------
     1   6 C    3.989 --     2 C    1.019    12 H    0.985    10 H    0.984
                            11 H    0.983
     2   6 C    3.987 --     1 C    1.019     3 C    1.002    14 H    0.972
                            13 H    0.969
     3   6 C    3.924 --     2 C    1.002    16 H    0.965    15 H    0.964
                             4 N    0.926
     4   7 N    3.813 --     9 C    0.960     8 C    0.953     5 C    0.938
                             3 C    0.926
     5   6 C    3.943 --     6 C    1.003    18 H    0.965    17 H    0.965
                             4 N    0.938
     6   6 C    3.958 --     7 O    1.004     5 C    1.003    19 H    0.964
                            20 H    0.964
     7   8 O    1.959 --     6 C    1.004    21 H    0.885
     8   6 C    3.917 --    22 H    0.976    23 H    0.975    24 H    0.961
                             4 N    0.953
     9   6 C    3.929 --    27 H    0.976    25 H    0.974    26 H    0.971
                             4 N    0.960
    10   1 H    0.998 --     1 C    0.984
    11   1 H    0.996 --     1 C    0.983
    12   1 H    0.997 --     1 C    0.985
    13   1 H    0.997 --     2 C    0.969
    14   1 H    0.995 --     2 C    0.972
    15   1 H    0.990 --     3 C    0.964
    16   1 H    0.992 --     3 C    0.965
    17   1 H    0.990 --     5 C    0.965
    18   1 H    0.992 --     5 C    0.965
    19   1 H    0.996 --     6 C    0.964
    20   1 H    0.997 --     6 C    0.964
    21   1 H    0.900 --     7 O    0.885
    22   1 H    0.991 --     8 C    0.976
    23   1 H    0.991 --     8 C    0.975
    24   1 H    0.983 --     8 C    0.961
    25   1 H    0.990 --     9 C    0.974
    26   1 H    0.990 --     9 C    0.971
    27   1 H    0.991 --     9 C    0.976
 ---------------------------------------------------------------------------

molecular dipole:
                 x           y           z       tot (Debye)
 q only:        0.444       5.164      -1.321
   full:        0.219       5.208      -1.277      13.641

           -------------------------------------------------
          | TOTAL ENERGY              -30.749325814012 Eh   |
          | GRADIENT NORM               0.000598914205 Eh/α |
          | HOMO-LUMO GAP               9.084989882533 eV   |
           -------------------------------------------------

 * finished run on 2024/12/20 at 06:50:44.639
