   * xtb version 6.7.1 (edcfbbe) compiled by 'conda@3ef47c1a292c' on 2024-11-25

   ID    Z sym.   atoms
    1    6 C      1, 2, 4-6
    2   16 S      3
    3    1 H      7-19

          program call               : xtb C0616.xyz --opt --namespace C0616 --charge +1
          :  Hamiltonian                  GFN2-xTB          :
 * total energy  :   -20.1418507 Eh     change       -0.2364686E-10 Eh
 * total energy  :   -20.1437745 Eh     change       -0.1923781E-02 Eh
 * total energy  :   -20.1441012 Eh     change       -0.3267428E-03 Eh
 * total energy  :   -20.1441784 Eh     change       -0.7717506E-04 Eh
 * total energy  :   -20.1441903 Eh     change       -0.1184795E-04 Eh
 * total energy  :   -20.1441950 Eh     change       -0.4779667E-05 Eh
   *** GEOMETRY OPTIMIZATION CONVERGED AFTER 6 ITERATIONS ***

 final structure:
================
19
 xtb: 6.7.1 (edcfbbe)
C            0.93649437838201       -0.06024834659592       -0.12288405910511
C            0.47155966745893       -1.46070406100491        0.21999213771838
S            1.00343017055338       -1.93984947650962        1.91090247347708
C            0.45943897367634       -3.66669743966805        1.93366344192901
C            2.82703994489661       -2.11295697283700        1.75933334311183
C            3.33445056181482       -2.94415778007708        0.60303208018597
H            0.57945993997640        0.66079038820519        0.60821443688360
H            0.53289000663939        0.21931802898336       -1.09350591473077
H            2.01985612143190        0.00503518419479       -0.18247557992481
H           -0.61704395037090       -1.50665987371332        0.24906185321106
H            0.84465119366198       -2.20159881476128       -0.48459722400551
H            0.71954271410280       -4.17232822176837        1.00963337998650
H            0.92362349177251       -4.15982360720693        2.78313732394505
H           -0.61876142518423       -3.67083994382462        2.06815729518173
H            3.19747287875436       -1.08942562737112        1.70620274920087
H            3.13512913295581       -2.53647786268834        2.71550672967331
H            3.07449456093291       -2.51369434575854       -0.36034073061139
H            4.42073920841221       -2.97157825688836        0.66165694435838
H            2.98293243013278       -3.97143297070988        0.64882931951483

          :  Hamiltonian                  GFN2-xTB          :
         :: total energy             -20.144195041012 Eh    ::
         :: gradient norm              0.000619481867 Eh/a0 ::
         :: HOMO-LUMO gap              5.730836141007 eV    ::
         :: SCC energy               -20.418119217963 Eh    ::
         :: -> dispersion             -0.011431442369 Eh    ::
         :: repulsion energy           0.273924176951 Eh    ::

    * Orbital Energies and Occupations

         #    Occupation            Energy/Eh            Energy/eV
      -------------------------------------------------------------
         1        2.0000           -0.9393037             -25.5598
       ...           ...                  ...                  ...
         7        2.0000           -0.7062733             -19.2187
         8        2.0000           -0.7042618             -19.1639
         9        2.0000           -0.6835530             -18.6004
        10        2.0000           -0.6814557             -18.5434
        11        2.0000           -0.6666571             -18.1407
        12        2.0000           -0.6622946             -18.0220
        13        2.0000           -0.6573592             -17.8877
        14        2.0000           -0.6403903             -17.4259
        15        2.0000           -0.6306745             -17.1615
        16        2.0000           -0.6158271             -16.7575
        17        2.0000           -0.6122716             -16.6608
        18        2.0000           -0.6058762             -16.4867
        19        2.0000           -0.6030797             -16.4106 (HOMO)
        20                         -0.3924754             -10.6798 (LUMO)
        21                         -0.3885497             -10.5730
        22                         -0.2924475              -7.9579
        23                         -0.2090570              -5.6887
        24                         -0.1956659              -5.3243
        25                         -0.1482363              -4.0337
        26                         -0.0627020              -1.7062
        27                         -0.0494211              -1.3448
        28                         -0.0370112              -1.0071
        29                         -0.0247505              -0.6735
        30                         -0.0089361              -0.2432
       ...                                ...                  ...
        42                          0.2270742               6.1790
      -------------------------------------------------------------
                  HL-Gap            0.2106044 Eh            5.7308 eV

     #   Z          covCN         q      C6AA      α(0)
     1   6 C        3.782    -0.129    22.987     6.830
     2   6 C        3.793    -0.062    21.693     6.633
     3  16 S        2.950     0.323   128.558    19.083
     4   6 C        3.745    -0.131    23.091     6.855
     5   6 C        3.792    -0.064    21.734     6.639
     6   6 C        3.763    -0.126    22.959     6.830
     7   1 H        0.925     0.075     2.036     2.231
     8   1 H        0.925     0.092     1.856     2.130
     9   1 H        0.925     0.068     2.104     2.268
    10   1 H        0.925     0.098     1.805     2.101
    11   1 H        0.925     0.093     1.855     2.130
    12   1 H        0.925     0.107     1.720     2.051
    13   1 H        0.925     0.113     1.671     2.022
    14   1 H        0.925     0.112     1.678     2.026
    15   1 H        0.925     0.100     1.786     2.090
    16   1 H        0.925     0.098     1.800     2.098
    17   1 H        0.925     0.070     2.090     2.261
    18   1 H        0.925     0.094     1.843     2.123
    19   1 H        0.925     0.068     2.108     2.270

Wiberg/Mayer (AO) data.
largest (>0.10) Wiberg bond orders for each atom

     #   Z sym  total        # sym  WBO       # sym  WBO       # sym  WBO
 ---------------------------------------------------------------------------
     1   6 C    3.979 --     2 C    1.026     9 H    0.981     7 H    0.981
                             8 H    0.966
     2   6 C    3.947 --     1 C    1.026    11 H    0.961    10 H    0.959
                             3 S    0.951
     3  16 S    3.066 --     4 C    1.000     2 C    0.951     5 C    0.951
     4   6 C    3.946 --     3 S    1.000    12 H    0.967    13 H    0.966
                            14 H    0.966
     5   6 C    3.949 --     6 C    1.030    16 H    0.957    15 H    0.957
                             3 S    0.951
     6   6 C    3.981 --     5 C    1.030    19 H    0.979    17 H    0.978
                            18 H    0.962
     7   1 H    0.994 --     1 C    0.981
     8   1 H    0.991 --     1 C    0.966
     9   1 H    0.995 --     1 C    0.981
    10   1 H    0.990 --     2 C    0.959
    11   1 H    0.991 --     2 C    0.961
    12   1 H    0.988 --     4 C    0.967
    13   1 H    0.987 --     4 C    0.966
    14   1 H    0.987 --     4 C    0.966
    15   1 H    0.990 --     5 C    0.957
    16   1 H    0.990 --     5 C    0.957
    17   1 H    0.995 --     6 C    0.978
    18   1 H    0.991 --     6 C    0.962
    19   1 H    0.995 --     6 C    0.979
 ---------------------------------------------------------------------------

molecular dipole:
                 x           y           z       tot (Debye)
 q only:        2.521      -4.225       2.387
   full:        2.543      -4.386       2.295      14.144

           -------------------------------------------------
          | TOTAL ENERGY              -20.144195041012 Eh   |
          | GRADIENT NORM               0.000619481867 Eh/α |
          | HOMO-LUMO GAP               5.730836141007 eV   |
           -------------------------------------------------

 * finished run on 2024/12/20 at 06:50:43.967
