   * xtb version 6.7.1 (edcfbbe) compiled by 'conda@3ef47c1a292c' on 2024-11-25

   ID    Z sym.   atoms
    1    6 C      1-3, 5-9
    2    7 N      4
    3    1 H      10-21

          program call               : xtb C0611.xyz --opt --namespace C0611 --charge +1
          :  Hamiltonian                  GFN2-xTB          :
 * total energy  :   -25.7586439 Eh     change       -0.2369198E-09 Eh
 * total energy  :   -25.7607534 Eh     change       -0.2109533E-02 Eh
 * total energy  :   -25.7611663 Eh     change       -0.4129343E-03 Eh
 * total energy  :   -25.7613364 Eh     change       -0.1700670E-03 Eh
 * total energy  :   -25.7614993 Eh     change       -0.1628764E-03 Eh
 * total energy  :   -25.7616709 Eh     change       -0.1716432E-03 Eh
 * total energy  :   -25.7618764 Eh     change       -0.2054994E-03 Eh
 * total energy  :   -25.7621291 Eh     change       -0.2526955E-03 Eh
 * total energy  :   -25.7624044 Eh     change       -0.2752862E-03 Eh
 * total energy  :   -25.7626642 Eh     change       -0.2597981E-03 Eh
 * total energy  :   -25.7630163 Eh     change       -0.2623792E-04 Eh
 * total energy  :   -25.7630420 Eh     change       -0.2569919E-04 Eh
 * total energy  :   -25.7630611 Eh     change       -0.1913771E-04 Eh
 * total energy  :   -25.7630751 Eh     change       -0.1397002E-04 Eh
 * total energy  :   -25.7630856 Eh     change       -0.1049121E-04 Eh
 * total energy  :   -25.7630970 Eh     change       -0.1142569E-04 Eh
 * total energy  :   -25.7631037 Eh     change       -0.6682697E-05 Eh
 * total energy  :   -25.7631092 Eh     change       -0.5504721E-05 Eh
 * total energy  :   -25.7631108 Eh     change       -0.1626706E-05 Eh
   *** GEOMETRY OPTIMIZATION CONVERGED AFTER 22 ITERATIONS ***

 final structure:
================
21
 xtb: 6.7.1 (edcfbbe)
C            0.52795380747516        0.17129736849562        0.21956673144856
C            0.69449989506200        1.68353873374788        0.17164561393858
C            1.60326308690821        2.14791102520636       -0.97701793107235
N            0.99651932876877        1.85105209168119       -2.26216350921057
C            1.28406012907477        0.70566487369806       -2.88906843392280
C            0.66228022639828        0.36352775426751       -4.07332288846838
C           -0.27774383727645        1.22637900419277       -4.62056869026039
C           -0.56198096118349        2.41217325663363       -3.95378283982613
C            0.09118787733305        2.69392977060513       -2.77243876846327
H            0.02602329546497       -0.20912222670919       -0.66855097265618
H           -0.07619135373718       -0.10037094150772        1.08010753220176
H            1.49123137908330       -0.32267247138814        0.32080377210092
H           -0.28214934881668        2.16260451314584        0.08091049284122
H            1.14809981054196        2.02631815410736        1.10151593048631
H            1.76813100843303        3.22441770460180       -0.90399450965231
H            2.56642912415910        1.63918675295543       -0.91144284136332
H            2.02573124910405        0.06449864245994       -2.43621313216503
H            0.91416517748614       -0.56613259495949       -4.55793863973602
H           -0.77521261314232        0.98318593363899       -5.54619124054956
H           -1.28200395923376        3.11239995028101       -4.34587643681418
H           -0.10211332190361        3.60337270484604       -2.22233923885678

          :  Hamiltonian                  GFN2-xTB          :
         :: total energy             -25.763110792617 Eh    ::
         :: gradient norm              0.000180685767 Eh/a0 ::
         :: HOMO-LUMO gap              3.194876782504 eV    ::
         :: SCC energy               -26.202310698903 Eh    ::
         :: -> dispersion             -0.014829455935 Eh    ::
         :: repulsion energy           0.439199906286 Eh    ::

    * Orbital Energies and Occupations

         #    Occupation            Energy/Eh            Energy/eV
      -------------------------------------------------------------
         1        2.0000           -0.8842002             -24.0603
       ...           ...                  ...                  ...
        12        2.0000           -0.6981510             -18.9977
        13        2.0000           -0.6855926             -18.6559
        14        2.0000           -0.6824618             -18.5707
        15        2.0000           -0.6650784             -18.0977
        16        2.0000           -0.6548041             -17.8181
        17        2.0000           -0.6357757             -17.3003
        18        2.0000           -0.6278446             -17.0845
        19        2.0000           -0.6261877             -17.0394
        20        2.0000           -0.6249003             -17.0044
        21        2.0000           -0.6193753             -16.8541
        22        2.0000           -0.6000009             -16.3269
        23        2.0000           -0.5851082             -15.9216
        24        2.0000           -0.5800253             -15.7833 (HOMO)
        25                         -0.4626157             -12.5884 (LUMO)
        26                         -0.4322848             -11.7631
        27                         -0.3115948              -8.4789
        28                         -0.1741613              -4.7392
        29                         -0.0825445              -2.2461
        30                         -0.0668946              -1.8203
        31                         -0.0506364              -1.3779
        32                         -0.0336208              -0.9149
        33                         -0.0183812              -0.5002
        34                         -0.0154529              -0.4205
        35                         -0.0041636              -0.1133
       ...                                ...                  ...
        48                          0.4440881              12.0843
      -------------------------------------------------------------
                  HL-Gap            0.1174096 Eh            3.1949 eV

     #   Z          covCN         q      C6AA      α(0)
     1   6 C        3.752    -0.119    22.841     6.816
     2   6 C        3.801    -0.065    21.746     6.639
     3   6 C        3.760    -0.039    21.311     6.581
     4   7 N        2.750     0.117    19.241     6.515
     5   6 C        2.892     0.034    27.244     8.558
     6   6 C        2.915    -0.010    28.269     8.719
     7   6 C        2.925     0.014    27.696     8.630
     8   6 C        2.915    -0.009    28.251     8.716
     9   6 C        2.893     0.033    27.267     8.561
    10   1 H        0.925     0.037     2.493     2.469
    11   1 H        0.925     0.073     2.048     2.238
    12   1 H        0.925     0.055     2.254     2.348
    13   1 H        0.924     0.058     2.220     2.330
    14   1 H        0.925     0.083     1.950     2.184
    15   1 H        0.924     0.092     1.857     2.131
    16   1 H        0.924     0.095     1.831     2.116
    17   1 H        0.926     0.113     1.670     2.021
    18   1 H        0.926     0.109     1.703     2.041
    19   1 H        0.926     0.109     1.709     2.044
    20   1 H        0.926     0.109     1.701     2.039
    21   1 H        0.926     0.110     1.696     2.037

Wiberg/Mayer (AO) data.
largest (>0.10) Wiberg bond orders for each atom

     #   Z sym  total        # sym  WBO       # sym  WBO       # sym  WBO
 ---------------------------------------------------------------------------
     1   6 C    3.990 --     2 C    1.023    12 H    0.985    10 H    0.984
                            11 H    0.978
     2   6 C    3.982 --     1 C    1.023    13 H    0.974     3 C    0.973
                            14 H    0.965
     3   6 C    3.933 --     2 C    0.973     4 N    0.964    16 H    0.963
                            15 H    0.962
     4   7 N    3.770 --     5 C    1.329     9 C    1.325     3 C    0.964
     5   6 C    3.957 --     6 C    1.456     4 N    1.329    17 H    0.953
     6   6 C    3.981 --     5 C    1.456     7 C    1.426    18 H    0.959
     7   6 C    3.969 --     6 C    1.426     8 C    1.417    19 H    0.961
     8   6 C    3.980 --     9 C    1.466     7 C    1.417    20 H    0.959
     9   6 C    3.958 --     8 C    1.466     4 N    1.325    21 H    0.954
    10   1 H    0.999 --     1 C    0.984
    11   1 H    0.994 --     1 C    0.978
    12   1 H    0.997 --     1 C    0.985
    13   1 H    0.997 --     2 C    0.974
    14   1 H    0.991 --     2 C    0.965
    15   1 H    0.991 --     3 C    0.962
    16   1 H    0.991 --     3 C    0.963
    17   1 H    0.987 --     5 C    0.953
    18   1 H    0.988 --     6 C    0.959
    19   1 H    0.988 --     7 C    0.961
    20   1 H    0.988 --     8 C    0.959
    21   1 H    0.988 --     9 C    0.954
 ---------------------------------------------------------------------------

molecular dipole:
                 x           y           z       tot (Debye)
 q only:        1.218       3.044      -4.795
   full:        1.250       3.095      -4.844      14.952

           -------------------------------------------------
          | TOTAL ENERGY              -25.763110792617 Eh   |
          | GRADIENT NORM               0.000180685767 Eh/α |
          | HOMO-LUMO GAP               3.194876782504 eV   |
           -------------------------------------------------

 * finished run on 2024/12/20 at 06:50:30.769
