   * xtb version 6.7.1 (edcfbbe) compiled by 'conda@3ef47c1a292c' on 2024-11-25

   ID    Z sym.   atoms
    1    6 C      1, 3-9, 11, 13, 14, 16-18
    2    8 O      2, 10, 15
    3    7 N      12
    4    1 H      19-38

          program call               : xtb C0612.xyz --opt --namespace C0612 --charge +1
          :  Hamiltonian                  GFN2-xTB          :
 * total energy  :   -54.8396856 Eh     change       -0.5336958E-09 Eh
 * total energy  :   -54.8532152 Eh     change       -0.1352956E-01 Eh
 * total energy  :   -54.8575042 Eh     change       -0.4289013E-02 Eh
 * total energy  :   -54.8585793 Eh     change       -0.1075046E-02 Eh
 * total energy  :   -54.8596569 Eh     change       -0.1077595E-02 Eh
 * total energy  :   -54.8605870 Eh     change       -0.9301738E-03 Eh
 * total energy  :   -54.8615007 Eh     change       -0.9136213E-03 Eh
 * total energy  :   -54.8623950 Eh     change       -0.8943514E-03 Eh
 * total energy  :   -54.8630314 Eh     change       -0.6364407E-03 Eh
 * total energy  :   -54.8632141 Eh     change       -0.1826593E-03 Eh
 * total energy  :   -54.8777956 Eh     change       -0.1099663E-04 Eh
 * total energy  :   -54.8778059 Eh     change       -0.1031009E-04 Eh
 * total energy  :   -54.8778146 Eh     change       -0.8672937E-05 Eh
 * total energy  :   -54.8778216 Eh     change       -0.7060893E-05 Eh
 * total energy  :   -54.8778276 Eh     change       -0.5955480E-05 Eh
 * total energy  :   -54.8778330 Eh     change       -0.5394006E-05 Eh
 * total energy  :   -54.8778382 Eh     change       -0.5258304E-05 Eh
 * total energy  :   -54.8778435 Eh     change       -0.5270800E-05 Eh
 * total energy  :   -54.8778457 Eh     change       -0.2216514E-05 Eh
   *** GEOMETRY OPTIMIZATION CONVERGED AFTER 122 ITERATIONS ***

 final structure:
================
38
 xtb: 6.7.1 (edcfbbe)
C           -0.70374716824845        0.84657213055425        3.24312952281403
O           -0.76244390939087       -0.05986917084664        2.15921355474840
C           -0.00326457826707       -1.15412227574732        2.15923869096197
C           -0.11824528570519       -1.98519589108791        1.03116539500145
C            0.63026823613001       -3.12492340429451        0.93158592030350
C            1.52854086722776       -3.49907565497450        1.95019407045669
C            1.63048694249485       -2.67302323877910        3.07768784084941
C            0.88247553114712       -1.52326987042002        3.18159098313661
C            2.29605709661061       -4.70972272875608        1.74516894430465
O            2.22294088681545       -5.39116628825551        0.73648965237447
C            3.24959899580044       -5.11414477761934        2.88712772400095
N            4.07615400137480       -6.32307209270160        2.61195422205211
C            4.85383060683878       -6.17050137839566        1.35075405596746
C            5.73485881929935       -4.92156713413286        1.26041086576702
O            5.88586226474664       -4.16814411169364        2.18655719991940
C            6.34568330018527       -4.73487263134825       -0.08698799595744
C            5.00091397283716       -6.53039793858949        3.74514680990054
C            3.20285157420151       -7.50838208299505        2.48723216419086
H           -1.39925731453855        1.64506056224240        2.99291062686416
H            0.30028169547834        1.26330795158102        3.35830125883839
H           -1.01760985163548        0.37198039928496        4.17646263229691
H           -0.80614073086861       -1.69500068262656        0.25382293653064
H            0.54684757695690       -3.76300835730733        0.06531988587161
H            2.30126011017163       -2.91437977330005        3.88735891774069
H            0.98903683888365       -0.90765966458999        4.06017372410852
H            3.92760701682250       -4.28070859001870        3.08353437075085
H            2.65407111595452       -5.30415914049396        3.78255441751607
H            5.49313517199244       -7.04820942996168        1.22907416856723
H            4.14308752594918       -6.14302347920030        0.51806663638412
H            6.60942154834488       -5.67867524259934       -0.55460475779355
H            5.61564133808978       -4.23566149332595       -0.72535386452378
H            7.21727069162781       -4.08967045292492       -0.01347258079411
H            4.43880330867613       -6.64656196287469        4.66981565866773
H            5.59265610109604       -7.42949118255208        3.58205807626548
H            5.67003198394261       -5.67721801090685        3.84280485018677
H            2.64750683999914       -7.65863445415580        3.41113342592894
H            2.49936092781986       -7.36447762638331        1.66855886835671
H            3.80178595108074       -8.39536082983936        2.29017112757200

          :  Hamiltonian                  GFN2-xTB          :
         :: total energy             -54.877845718160 Eh    ::
         :: gradient norm              0.000140893066 Eh/a0 ::
         :: HOMO-LUMO gap              2.530075182183 eV    ::
         :: SCC energy               -55.613919225428 Eh    ::
         :: -> dispersion             -0.033805751719 Eh    ::
         :: repulsion energy           0.736073507267 Eh    ::

    * Orbital Energies and Occupations

         #    Occupation            Energy/Eh            Energy/eV
      -------------------------------------------------------------
         1        2.0000           -0.8642788             -23.5182
       ...           ...                  ...                  ...
        37        2.0000           -0.6032726             -16.4159
        38        2.0000           -0.5977003             -16.2643
        39        2.0000           -0.5955139             -16.2048
        40        2.0000           -0.5934874             -16.1496
        41        2.0000           -0.5923056             -16.1175
        42        2.0000           -0.5756396             -15.6639
        43        2.0000           -0.5602896             -15.2463
        44        2.0000           -0.5594587             -15.2236
        45        2.0000           -0.5458047             -14.8521
        46        2.0000           -0.5333591             -14.5134
        47        2.0000           -0.5247890             -14.2802
        48        2.0000           -0.5245246             -14.2730
        49        2.0000           -0.4965000             -13.5105 (HOMO)
        50                         -0.4035215             -10.9804 (LUMO)
        51                         -0.3930394             -10.6951
        52                         -0.3381656              -9.2020
        53                         -0.3038109              -8.2671
        54                         -0.2235657              -6.0835
        55                         -0.1991621              -5.4195
        56                         -0.1655617              -4.5052
        57                         -0.1401948              -3.8149
        58                         -0.1351194              -3.6768
        59                         -0.0719798              -1.9587
        60                         -0.0652485              -1.7755
       ...                                ...                  ...
        92                          0.5587383              15.2040
      -------------------------------------------------------------
                  HL-Gap            0.0929786 Eh            2.5301 eV

     #   Z          covCN         q      C6AA      α(0)
     1   6 C        3.644     0.021    20.570     6.519
     2   8 O        1.706    -0.218    17.612     5.666
     3   6 C        2.865     0.170    24.334     8.086
     4   6 C        2.915    -0.047    29.173     8.857
     5   6 C        2.926    -0.012    28.307     8.725
     6   6 C        2.969    -0.034    28.853     8.811
     7   6 C        2.918    -0.029    28.714     8.787
     8   6 C        2.913    -0.061    29.505     8.907
     9   6 C        2.821     0.221    23.344     7.917
    10   8 O        0.857    -0.399    21.661     6.240
    11   6 C        3.762    -0.067    21.831     6.660
    12   7 N        3.622     0.151    18.695     6.422
    13   6 C        3.764    -0.074    21.951     6.678
    14   6 C        2.808     0.247    22.864     7.834
    15   8 O        0.857    -0.347    20.651     6.093
    16   6 C        3.755    -0.156    23.574     6.923
    17   6 C        3.722    -0.099    22.507     6.775
    18   6 C        3.722    -0.099    22.506     6.775
    19   1 H        0.925     0.087     1.906     2.159
    20   1 H        0.924     0.060     2.202     2.321
    21   1 H        0.924     0.060     2.203     2.321
    22   1 H        0.926     0.079     1.994     2.208
    23   1 H        0.926     0.080     1.983     2.202
    24   1 H        0.926     0.044     2.398     2.422
    25   1 H        0.926     0.060     2.195     2.317
    26   1 H        0.924     0.121     1.603     1.980
    27   1 H        0.924     0.093     1.847     2.125
    28   1 H        0.924     0.101     1.773     2.082
    29   1 H        0.924     0.141     1.454     1.886
    30   1 H        0.925     0.083     1.953     2.185
    31   1 H        0.924     0.107     1.721     2.052
    32   1 H        0.925     0.104     1.749     2.068
    33   1 H        0.925     0.093     1.847     2.125
    34   1 H        0.925     0.093     1.849     2.127
    35   1 H        0.925     0.117     1.637     2.001
    36   1 H        0.925     0.093     1.850     2.127
    37   1 H        0.925     0.123     1.592     1.973
    38   1 H        0.925     0.092     1.860     2.133

Wiberg/Mayer (AO) data.
largest (>0.10) Wiberg bond orders for each atom

     #   Z sym  total        # sym  WBO       # sym  WBO       # sym  WBO
 ---------------------------------------------------------------------------
     1   6 C    3.925 --    19 H    0.977    20 H    0.974    21 H    0.974
                             2 O    0.966
     2   8 O    2.308 --     3 C    1.152     1 C    0.966
     3   6 C    3.938 --     8 C    1.313     4 C    1.296     2 O    1.152
     4   6 C    3.986 --     5 C    1.536     3 C    1.296    22 H    0.963
     5   6 C    3.984 --     4 C    1.536     6 C    1.301    23 H    0.963
     6   6 C    3.982 --     7 C    1.332     5 C    1.301     9 C    1.123
     7   6 C    3.991 --     8 C    1.508     6 C    1.332    24 H    0.966
     8   6 C    3.988 --     7 C    1.508     3 C    1.313    25 H    0.964
     9   6 C    3.928 --    10 O    1.730     6 C    1.123    11 C    0.958
    10   8 O    2.035 --     9 C    1.730
    11   6 C    3.928 --     9 C    0.958    27 H    0.953    26 H    0.940
                            12 N    0.938
    12   7 N    3.819 --    17 C    0.955    18 C    0.954    13 C    0.942
                            11 C    0.938
    13   6 C    3.933 --    14 C    0.973    28 H    0.947    12 N    0.942
                            29 H    0.928
    14   6 C    3.925 --    15 O    1.853    16 C    1.029    13 C    0.973
    15   8 O    2.096 --    14 C    1.853
    16   6 C    3.984 --    14 C    1.029    32 H    0.968    30 H    0.967
                            31 H    0.930
    17   6 C    3.924 --    33 H    0.976    34 H    0.975    35 H    0.967
                            12 N    0.955
    18   6 C    3.921 --    38 H    0.976    36 H    0.975    37 H    0.964
                            12 N    0.954
    19   1 H    0.992 --     1 C    0.977
    20   1 H    0.995 --     1 C    0.974
    21   1 H    0.995 --     1 C    0.974
    22   1 H    0.993 --     4 C    0.963
    23   1 H    0.993 --     5 C    0.963
    24   1 H    0.998 --     7 C    0.966
    25   1 H    0.996 --     8 C    0.964
    26   1 H    0.985 --    11 C    0.940
    27   1 H    0.991 --    11 C    0.953
    28   1 H    0.990 --    13 C    0.947
    29   1 H    0.980 --    13 C    0.928
    30   1 H    0.993 --    16 C    0.967
    31   1 H    0.988 --    16 C    0.930
    32   1 H    0.989 --    16 C    0.968
    33   1 H    0.991 --    17 C    0.976
    34   1 H    0.991 --    17 C    0.975
    35   1 H    0.986 --    17 C    0.967
    36   1 H    0.991 --    18 C    0.975
    37   1 H    0.985 --    18 C    0.964
    38   1 H    0.991 --    18 C    0.976
 ---------------------------------------------------------------------------

molecular dipole:
                 x           y           z       tot (Debye)
 q only:        6.555      -9.668       4.918
   full:        6.627      -9.749       5.150      32.696

           -------------------------------------------------
          | TOTAL ENERGY              -54.877845718160 Eh   |
          | GRADIENT NORM               0.000140893066 Eh/α |
          | HOMO-LUMO GAP               2.530075182183 eV   |
           -------------------------------------------------

 * finished run on 2024/12/20 at 06:50:33.520
