   * xtb version 6.7.1 (edcfbbe) compiled by 'conda@3ef47c1a292c' on 2024-11-25

   ID    Z sym.   atoms
    1    6 C      1, 2, 4, 5
    2   16 S      3
    3    1 H      6-16

          program call               : xtb C0618.xyz --opt --namespace C0618 --charge +1
          :  Hamiltonian                  GFN2-xTB          :
 * total energy  :   -16.9744296 Eh     change       -0.1273648E-10 Eh
 * total energy  :   -16.9763763 Eh     change       -0.1946642E-02 Eh
 * total energy  :   -16.9765978 Eh     change       -0.2214799E-03 Eh
 * total energy  :   -16.9766434 Eh     change       -0.4562958E-04 Eh
 * total energy  :   -16.9766531 Eh     change       -0.9761225E-05 Eh
 * total energy  :   -16.9766618 Eh     change       -0.8690591E-05 Eh
 * total energy  :   -16.9766701 Eh     change       -0.8293631E-05 Eh
 * total energy  :   -16.9766740 Eh     change       -0.3858307E-05 Eh
   *** GEOMETRY OPTIMIZATION CONVERGED AFTER 8 ITERATIONS ***

 final structure:
================
16
 xtb: 6.7.1 (edcfbbe)
C            0.99377115335778       -0.04565729925774       -0.08775432519142
C            0.60957074018004       -1.50594213734955       -0.21135500535772
S            1.09331457521742       -2.44325432060652        1.29331616602324
C            0.55913464598548       -4.10452850899170        0.81319747757041
C            2.87644170350298       -2.60646450969260        1.03611548606306
H            0.56194431193821        0.39883882141299        0.80531571450551
H            0.61021542934213        0.49578078241854       -0.94928463578878
H            2.07177765541166        0.08991961165180       -0.06466232962702
H           -0.47284278264051       -1.61145926265079       -0.28344079486482
H            1.08000360202771       -1.97796713058828       -1.07297260868140
H            0.93579753590341       -4.36206423781356       -0.17206441608156
H            0.92977498646986       -4.80938799122376        1.55255965572729
H           -0.52718684840333       -4.12985397720982        0.81803046837390
H            3.09082965565949       -2.95666054642884        0.03091159479390
H            3.33863486214907       -1.63812069705359        1.20542068526890
H            3.26148877389861       -3.30956859661660        1.76957686726652

          :  Hamiltonian                  GFN2-xTB          :
         :: total energy             -16.976673984721 Eh    ::
         :: gradient norm              0.000558617606 Eh/a0 ::
         :: HOMO-LUMO gap              5.730272295453 eV    ::
         :: SCC energy               -17.203317508276 Eh    ::
         :: -> dispersion             -0.008401046274 Eh    ::
         :: repulsion energy           0.226643523554 Eh    ::

    * Orbital Energies and Occupations

         #    Occupation            Energy/Eh            Energy/eV
      -------------------------------------------------------------
         1        2.0000           -0.9471489             -25.7732
       ...           ...                  ...                  ...
         4        2.0000           -0.7840556             -21.3352
         5        2.0000           -0.7462907             -20.3076
         6        2.0000           -0.7072916             -19.2464
         7        2.0000           -0.7065925             -19.2274
         8        2.0000           -0.6948976             -18.9091
         9        2.0000           -0.6813075             -18.5393
        10        2.0000           -0.6716057             -18.2753
        11        2.0000           -0.6621738             -18.0187
        12        2.0000           -0.6554033             -17.8344
        13        2.0000           -0.6423056             -17.4780
        14        2.0000           -0.6341271             -17.2555
        15        2.0000           -0.6104012             -16.6099
        16        2.0000           -0.6088789             -16.5684 (HOMO)
        17                         -0.3982953             -10.8382 (LUMO)
        18                         -0.3958267             -10.7710
        19                         -0.2827061              -7.6928
        20                         -0.2087047              -5.6791
        21                         -0.2029000              -5.5212
        22                         -0.1516258              -4.1259
        23                         -0.0605111              -1.6466
        24                         -0.0435800              -1.1859
        25                         -0.0213160              -0.5800
        26                         -0.0006666              -0.0181
        27                          0.0108739               0.2959
       ...                                ...                  ...
        36                          0.2290207               6.2320
      -------------------------------------------------------------
                  HL-Gap            0.2105836 Eh            5.7303 eV

     #   Z          covCN         q      C6AA      α(0)
     1   6 C        3.783    -0.131    23.030     6.836
     2   6 C        3.792    -0.067    21.792     6.648
     3  16 S        2.941     0.362   127.163    18.979
     4   6 C        3.745    -0.138    23.229     6.875
     5   6 C        3.745    -0.136    23.184     6.869
     6   1 H        0.925     0.076     2.019     2.222
     7   1 H        0.925     0.095     1.828     2.114
     8   1 H        0.925     0.070     2.089     2.260
     9   1 H        0.925     0.100     1.789     2.092
    10   1 H        0.925     0.092     1.859     2.132
    11   1 H        0.925     0.108     1.710     2.045
    12   1 H        0.925     0.116     1.643     2.005
    13   1 H        0.925     0.115     1.658     2.014
    14   1 H        0.925     0.108     1.717     2.049
    15   1 H        0.925     0.115     1.651     2.010
    16   1 H        0.925     0.114     1.659     2.014

Wiberg/Mayer (AO) data.
largest (>0.10) Wiberg bond orders for each atom

     #   Z sym  total        # sym  WBO       # sym  WBO       # sym  WBO
 ---------------------------------------------------------------------------
     1   6 C    3.978 --     2 C    1.026     8 H    0.982     6 H    0.981
                             7 H    0.965
     2   6 C    3.946 --     1 C    1.026    10 H    0.963     9 H    0.960
                             3 S    0.951
     3  16 S    3.083 --     5 C    1.002     4 C    1.002     2 C    0.951
     4   6 C    3.944 --     3 S    1.002    11 H    0.969    13 H    0.966
                            12 H    0.965
     5   6 C    3.944 --     3 S    1.002    14 H    0.969    16 H    0.965
                            15 H    0.965
     6   1 H    0.994 --     1 C    0.981
     7   1 H    0.990 --     1 C    0.965
     8   1 H    0.995 --     1 C    0.982
     9   1 H    0.990 --     2 C    0.960
    10   1 H    0.992 --     2 C    0.963
    11   1 H    0.988 --     4 C    0.969
    12   1 H    0.986 --     4 C    0.965
    13   1 H    0.987 --     4 C    0.966
    14   1 H    0.988 --     5 C    0.969
    15   1 H    0.987 --     5 C    0.965
    16   1 H    0.987 --     5 C    0.965
 ---------------------------------------------------------------------------

molecular dipole:
                 x           y           z       tot (Debye)
 q only:        2.447      -4.739       1.286
   full:        2.500      -4.885       1.104      14.227

           -------------------------------------------------
          | TOTAL ENERGY              -16.976673984721 Eh   |
          | GRADIENT NORM               0.000558617606 Eh/α |
          | HOMO-LUMO GAP               5.730272295453 eV   |
           -------------------------------------------------

 * finished run on 2024/12/20 at 06:50:44.815
