   * xtb version 6.7.1 (edcfbbe) compiled by 'conda@3ef47c1a292c' on 2024-11-25

   ID    Z sym.   atoms
    1    6 C      1, 2, 4, 6, 8, 10-16
    2    8 O      3, 5
    3    7 N      7, 9
    4    1 H      17-31

          program call               : xtb C0615.xyz --opt --namespace C0615 --charge +1
          :  Hamiltonian                  GFN2-xTB          :
 * total energy  :   -46.9676787 Eh     change       -0.4994263E-09 Eh
 * total energy  :   -46.9745415 Eh     change       -0.6862747E-02 Eh
 * total energy  :   -46.9759202 Eh     change       -0.1378762E-02 Eh
 * total energy  :   -46.9762798 Eh     change       -0.3595909E-03 Eh
 * total energy  :   -46.9765876 Eh     change       -0.3077711E-03 Eh
 * total energy  :   -46.9767597 Eh     change       -0.1720846E-03 Eh
 * total energy  :   -46.9769525 Eh     change       -0.1928081E-03 Eh
 * total energy  :   -46.9771413 Eh     change       -0.1887905E-03 Eh
 * total energy  :   -46.9773219 Eh     change       -0.1806058E-03 Eh
 * total energy  :   -46.9775097 Eh     change       -0.1878247E-03 Eh
 * total energy  :   -46.9819505 Eh     change       -0.3860012E-04 Eh
 * total energy  :   -46.9819744 Eh     change       -0.2392798E-04 Eh
 * total energy  :   -46.9820066 Eh     change       -0.3215070E-04 Eh
 * total energy  :   -46.9820247 Eh     change       -0.1814763E-04 Eh
 * total energy  :   -46.9820431 Eh     change       -0.1836325E-04 Eh
 * total energy  :   -46.9820610 Eh     change       -0.1795475E-04 Eh
 * total energy  :   -46.9820676 Eh     change       -0.6611416E-05 Eh
 * total energy  :   -46.9820759 Eh     change       -0.8245004E-05 Eh
 * total energy  :   -46.9820790 Eh     change       -0.3098844E-05 Eh
   *** GEOMETRY OPTIMIZATION CONVERGED AFTER 70 ITERATIONS ***

 final structure:
================
31
 xtb: 6.7.1 (edcfbbe)
C            1.90827145785457       -1.20847065549112        0.10032681560383
C            2.32675043277043       -1.14363221448957        1.55890330109510
O            1.53430749916036       -0.17444122019077        2.27918757773167
C            1.93468514405288        1.06723668935954        2.28345237996204
O            2.91530493735432        1.53505490315821        1.76982159638325
C            0.96473103850702        1.95404231823966        3.10857019611784
N            1.22722094658491        3.32568404968565        2.78684267169986
C            2.41867955930002        3.90773265113568        2.92751620523396
N            2.43921458849278        5.10481211584349        2.35830055398610
C            1.20060045822297        5.32478210703233        1.79012317764250
C            0.42464529415854        4.17982766912616        2.05433461061573
C           -0.88722232818708        4.08214992054637        1.60765409645527
C           -1.38633563594443        5.15339690345994        0.89496567792657
C           -0.61526609284325        6.28967159290844        0.63333641724473
C            0.68746296688253        6.39938646279073        1.07387410648439
C            3.54793733805163        6.01812991578464        2.31406187145302
H            0.85021894631886       -1.44332496922121        0.01804652173793
H            2.47907237489197       -1.98500897622491       -0.39920043138342
H            2.10379111064276       -0.26011809461451       -0.39505838391935
H            2.13624044634645       -2.08832919217381        2.06950147693497
H            3.38176918606289       -0.87074595836113        1.64869752820738
H           -0.06706421105775        1.69620080729563        2.87360422664044
H            1.14589495881464        1.75626464175284        4.16915746560539
H            3.24964800729517        3.46682835747611        3.44479705285892
H           -1.49509938414844        3.21416581752752        1.80361294095022
H           -2.39976046238739        5.11477211071764        0.52877475257756
H           -1.05318278268262        7.09948202294158        0.07218884471731
H            1.27861494328383        7.27710965900013        0.87167748404919
H            4.39946349172005        5.58882632081741        2.83649223046561
H            3.82740525183888        6.21242134026421        1.27768615273421
H            3.27408051865693        6.96278290389645        2.78589088218826

          :  Hamiltonian                  GFN2-xTB          :
         :: total energy             -46.982078980902 Eh    ::
         :: gradient norm              0.000682625990 Eh/a0 ::
         :: HOMO-LUMO gap              3.531482847487 eV    ::
         :: SCC energy               -47.650792802150 Eh    ::
         :: -> dispersion             -0.026942347371 Eh    ::
         :: repulsion energy           0.668713821248 Eh    ::

    * Orbital Energies and Occupations

         #    Occupation            Energy/Eh            Energy/eV
      -------------------------------------------------------------
         1        2.0000           -0.8813479             -23.9827
       ...           ...                  ...                  ...
        30        2.0000           -0.6251845             -17.0121
        31        2.0000           -0.6228029             -16.9473
        32        2.0000           -0.6183332             -16.8257
        33        2.0000           -0.6079260             -16.5425
        34        2.0000           -0.6027893             -16.4027
        35        2.0000           -0.5815898             -15.8259
        36        2.0000           -0.5745247             -15.6336
        37        2.0000           -0.5738118             -15.6142
        38        2.0000           -0.5664055             -15.4127
        39        2.0000           -0.5611981             -15.2710
        40        2.0000           -0.5537408             -15.0681
        41        2.0000           -0.5519693             -15.0198
        42        2.0000           -0.5433744             -14.7860 (HOMO)
        43                         -0.4135948             -11.2545 (LUMO)
        44                         -0.3654687              -9.9449
        45                         -0.3645614              -9.9202
        46                         -0.3564134              -9.6985
        47                         -0.2393575              -6.5132
        48                         -0.1769727              -4.8157
        49                         -0.1425407              -3.8787
        50                         -0.1201227              -3.2687
        51                         -0.0688571              -1.8737
        52                         -0.0403298              -1.0974
        53                         -0.0283533              -0.7715
       ...                                ...                  ...
        79                          0.5424736              14.7615
      -------------------------------------------------------------
                  HL-Gap            0.1297796 Eh            3.5315 eV

     #   Z          covCN         q      C6AA      α(0)
     1   6 C        3.751    -0.121    22.880     6.822
     2   6 C        3.698     0.069    19.586     6.330
     3   8 O        1.702    -0.230    17.821     5.700
     4   6 C        2.715     0.362    20.862     7.477
     5   8 O        0.856    -0.398    21.638     6.237
     6   6 C        3.743    -0.052    21.586     6.628
     7   7 N        2.831     0.039    20.567     6.736
     8   6 C        3.068     0.073    26.308     8.410
     9   7 N        2.825     0.052    20.340     6.698
    10   6 C        3.122     0.039    26.952     8.502
    11   6 C        3.110     0.040    26.950     8.505
    12   6 C        2.909    -0.032    28.800     8.800
    13   6 C        2.926    -0.017    28.430     8.744
    14   6 C        2.926    -0.017    28.439     8.746
    15   6 C        2.908    -0.031    28.775     8.796
    16   6 C        3.692    -0.079    22.201     6.742
    17   1 H        0.925     0.066     2.133     2.284
    18   1 H        0.925     0.074     2.044     2.236
    19   1 H        0.925     0.061     2.186     2.312
    20   1 H        0.924     0.083     1.946     2.181
    21   1 H        0.924     0.072     2.062     2.245
    22   1 H        0.925     0.112     1.678     2.026
    23   1 H        0.924     0.108     1.715     2.048
    24   1 H        0.926     0.118     1.627     1.995
    25   1 H        0.926     0.069     2.095     2.264
    26   1 H        0.926     0.082     1.958     2.188
    27   1 H        0.926     0.082     1.954     2.186
    28   1 H        0.926     0.076     2.023     2.224
    29   1 H        0.925     0.097     1.815     2.107
    30   1 H        0.924     0.104     1.751     2.069
    31   1 H        0.924     0.101     1.779     2.086

Wiberg/Mayer (AO) data.
largest (>0.10) Wiberg bond orders for each atom

     #   Z sym  total        # sym  WBO       # sym  WBO       # sym  WBO
 ---------------------------------------------------------------------------
     1   6 C    3.986 --     2 C    1.014    19 H    0.984    17 H    0.984
                            18 H    0.978
     2   6 C    3.894 --     1 C    1.014    21 H    0.970    20 H    0.968
                             3 O    0.900
     3   8 O    2.367 --     4 C    1.221     2 C    0.900     5 O    0.191
     4   6 C    3.934 --     5 O    1.736     3 O    1.221     6 C    0.911
     5   8 O    2.066 --     4 C    1.736     3 O    0.191
     6   6 C    3.952 --     7 N    0.999    22 H    0.956    23 H    0.942
                             4 C    0.911
     7   7 N    3.672 --     8 C    1.346    11 C    1.117     6 C    0.999
     8   6 C    3.951 --     9 N    1.381     7 N    1.346    24 H    0.951
     9   7 N    3.692 --     8 C    1.381    10 C    1.123    16 C    0.991
    10   6 C    3.952 --    15 C    1.340    11 C    1.275     9 N    1.123
    11   6 C    3.950 --    12 C    1.343    10 C    1.275     7 N    1.117
    12   6 C    3.986 --    13 C    1.492    11 C    1.343    25 H    0.962
                            15 C    0.119
    13   6 C    3.983 --    12 C    1.492    14 C    1.379    26 H    0.966
    14   6 C    3.986 --    15 C    1.494    13 C    1.379    27 H    0.966
    15   6 C    3.984 --    14 C    1.494    10 C    1.340    28 H    0.963
                            12 C    0.119
    16   6 C    3.936 --     9 N    0.991    29 H    0.976    31 H    0.964
                            30 H    0.963
    17   1 H    0.996 --     1 C    0.984
    18   1 H    0.994 --     1 C    0.978
    19   1 H    0.996 --     1 C    0.984
    20   1 H    0.993 --     2 C    0.968
    21   1 H    0.995 --     2 C    0.970
    22   1 H    0.987 --     6 C    0.956
    23   1 H    0.987 --     6 C    0.942
    24   1 H    0.985 --     8 C    0.951
    25   1 H    0.995 --    12 C    0.962
    26   1 H    0.993 --    13 C    0.966
    27   1 H    0.993 --    14 C    0.966
    28   1 H    0.994 --    15 C    0.963
    29   1 H    0.990 --    16 C    0.976
    30   1 H    0.988 --    16 C    0.963
    31   1 H    0.989 --    16 C    0.964
 ---------------------------------------------------------------------------

molecular dipole:
                 x           y           z       tot (Debye)
 q only:        2.629       7.167       4.112
   full:        2.703       7.029       4.350      22.105

           -------------------------------------------------
          | TOTAL ENERGY              -46.982078980902 Eh   |
          | GRADIENT NORM               0.000682625990 Eh/α |
          | HOMO-LUMO GAP               3.531482847487 eV   |
           -------------------------------------------------

 * finished run on 2024/12/20 at 06:50:43.672
