   * xtb version 6.7.1 (edcfbbe) compiled by 'conda@3ef47c1a292c' on 2024-11-25

   ID    Z sym.   atoms
    1    6 C      1, 2, 4, 6, 8, 9, 11-22
    2    7 N      3, 7, 10
    3    8 O      5
    4    1 H      23-48

          program call               : xtb C0623.xyz --opt --namespace C0623 --charge +1
          :  Hamiltonian                  GFN2-xTB          :
 * total energy  :   -64.3033479 Eh     change       -0.2811191E-09 Eh
 * total energy  :   -64.3123963 Eh     change       -0.9048381E-02 Eh
 * total energy  :   -64.3146179 Eh     change       -0.2221586E-02 Eh
 * total energy  :   -64.3150590 Eh     change       -0.4410805E-03 Eh
 * total energy  :   -64.3153627 Eh     change       -0.3037418E-03 Eh
 * total energy  :   -64.3155659 Eh     change       -0.2031840E-03 Eh
 * total energy  :   -64.3158137 Eh     change       -0.2477880E-03 Eh
 * total energy  :   -64.3160617 Eh     change       -0.2479920E-03 Eh
 * total energy  :   -64.3162966 Eh     change       -0.2349199E-03 Eh
 * total energy  :   -64.3164889 Eh     change       -0.1922941E-03 Eh
 * total energy  :   -64.3285245 Eh     change       -0.9319409E-05 Eh
 * total energy  :   -64.3285344 Eh     change       -0.9923551E-05 Eh
 * total energy  :   -64.3285408 Eh     change       -0.6384116E-05 Eh
 * total energy  :   -64.3285479 Eh     change       -0.7128300E-05 Eh
 * total energy  :   -64.3285530 Eh     change       -0.5067141E-05 Eh
 * total energy  :   -64.3285589 Eh     change       -0.5938058E-05 Eh
 * total energy  :   -64.3285660 Eh     change       -0.7117089E-05 Eh
 * total energy  :   -64.3285717 Eh     change       -0.5700501E-05 Eh
 * total energy  :   -64.3285766 Eh     change       -0.4824878E-05 Eh
   *** GEOMETRY OPTIMIZATION CONVERGED AFTER 72 ITERATIONS ***

 final structure:
================
48
 xtb: 6.7.1 (edcfbbe)
C            1.42157252677321       -1.74939235826515        2.37848556246919
C            1.16041919117048       -0.37092555343831        2.98269182479394
N            1.35170715936628        0.69470210368791        2.01593970502451
C            0.40653092025863        1.19445324313734        1.22698363626677
O            0.57472175513541        2.09055574188412        0.41842083165389
C           -1.03103297124791        0.59478337374352        1.36760183546046
N           -1.77703321012874        1.04493421459014        0.23133919937653
C           -2.18752912235310        0.29397835228600       -0.83193993049739
C           -2.61609409016371        1.15503903540712       -1.79298838813129
N           -2.44552266394927        2.41810734443728       -1.31021146107302
C           -1.92826057289737        2.32989843172462       -0.09109789696298
C           -2.72518629830281        3.63145747170518       -2.00887529269889
C           -4.04108440021181        4.08761484339784       -2.07327950142212
C           -5.15131164875199        3.32380581577436       -1.41789377442711
C           -4.28585358087957        5.26914995339735       -2.75576621534349
C           -3.25987367629395        5.98495488566911       -3.35914122444256
C           -1.96103655928345        5.49671860920187       -3.27342897055267
C           -1.66605734723749        4.32022479565903       -2.60306166118108
C           -0.26882307744622        3.78625971886562       -2.54843655155290
C           -3.54133874033282        7.24742854236603       -4.10592787116360
C            2.70160255254323        1.23967598248140        1.90079969837653
C            2.95060793727267        2.34699137073397        2.91721877587859
H            0.74634005412436       -1.95994740834168        1.55267888670242
H            1.28552889483782       -2.51257791758085        3.13890922123650
H            2.43991214535756       -1.81650246689185        2.00567849160121
H            0.15462687272732       -0.32125130540498        3.40328992644114
H            1.86471547173367       -0.19932299320878        3.79898061565007
H           -1.02043430816874       -0.49371310156060        1.38319620014080
H           -1.47660136680600        0.97593915274100        2.29099413179415
H           -2.15281579892282       -0.77598639346043       -0.82875876620347
H           -3.01226715911367        0.96726618652933       -2.76979126736101
H           -1.69580968375008        3.16527172340878        0.53869171462879
H           -6.08239212321433        3.87743728065591       -1.49010317824599
H           -5.29514515863562        2.35639480276142       -1.89850979421130
H           -4.93783181836449        3.14860392741027       -0.36364708230279
H           -5.29812731456942        5.63870491628499       -2.81561065880688
H           -1.15946855288750        6.04636336127435       -3.74293754211090
H            0.42812647412885        4.51872215130600       -2.94411673219912
H            0.03587153442961        3.53355725402697       -1.53413928959745
H           -0.18808406860262        2.88240561300884       -3.15353460218148
H           -3.53035471797088        7.05140215906850       -5.17796586914862
H           -4.51569272655741        7.64999003623751       -3.84427057718547
H           -2.77984239283806        7.99567091258390       -3.89941502938756
H            3.41038506308719        0.42247917642972        2.04236192643024
H            2.81288984977817        1.63669945821132        0.89022657545232
H            2.82695564937876        1.98453114991384        3.93497519876605
H            3.96474558127095        2.71849147336808        2.80615177210597
H            2.26131551647827        3.17090493286363        2.75198339821411

          :  Hamiltonian                  GFN2-xTB          :
         :: total energy             -64.328576555991 Eh    ::
         :: gradient norm              0.000491191498 Eh/a0 ::
         :: HOMO-LUMO gap              3.250379189320 eV    ::
         :: SCC energy               -65.320384528568 Eh    ::
         :: -> dispersion             -0.046656958467 Eh    ::
         :: repulsion energy           0.991807972577 Eh    ::

    * Orbital Energies and Occupations

         #    Occupation            Energy/Eh            Energy/eV
      -------------------------------------------------------------
         1        2.0000           -0.8659097             -23.5626
       ...           ...                  ...                  ...
        47        2.0000           -0.5624296             -15.3045
        48        2.0000           -0.5618221             -15.2880
        49        2.0000           -0.5584257             -15.1955
        50        2.0000           -0.5550861             -15.1047
        51        2.0000           -0.5480560             -14.9134
        52        2.0000           -0.5440480             -14.8043
        53        2.0000           -0.5418565             -14.7447
        54        2.0000           -0.5323531             -14.4861
        55        2.0000           -0.5285923             -14.3837
        56        2.0000           -0.5242100             -14.2645
        57        2.0000           -0.5123466             -13.9417
        58        2.0000           -0.4986613             -13.5693
        59        2.0000           -0.4977069             -13.5433 (HOMO)
        60                         -0.3782577             -10.2929 (LUMO)
        61                         -0.3462106              -9.4209
        62                         -0.3336683              -9.0796
        63                         -0.3322151              -9.0400
        64                         -0.3254990              -8.8573
        65                         -0.2049387              -5.5767
        66                         -0.1545647              -4.2059
        67                         -0.1300408              -3.5386
        68                         -0.0995425              -2.7087
        69                         -0.0841521              -2.2899
        70                         -0.0300614              -0.8180
       ...                                ...                  ...
       114                          0.5402426              14.7007
      -------------------------------------------------------------
                  HL-Gap            0.1194492 Eh            3.2504 eV

     #   Z          covCN         q      C6AA      α(0)
     1   6 C        3.752    -0.119    22.844     6.816
     2   6 C        3.743    -0.013    20.881     6.519
     3   7 N        2.732    -0.071    22.621     7.064
     4   6 C        2.767     0.260    22.619     7.789
     5   8 O        0.858    -0.444    22.582     6.371
     6   6 C        3.744    -0.048    21.512     6.617
     7   7 N        2.874     0.064    20.129     6.664
     8   6 C        3.067    -0.010    28.198     8.707
     9   6 C        3.070    -0.002    28.001     8.677
    10   7 N        2.878     0.071    20.000     6.642
    11   6 C        3.096     0.068    26.364     8.415
    12   6 C        2.930     0.008    27.846     8.654
    13   6 C        2.963     0.012    27.744     8.640
    14   6 C        3.757    -0.116    22.770     6.803
    15   6 C        2.932    -0.049    29.217     8.865
    16   6 C        2.962     0.031    27.295     8.569
    17   6 C        2.933    -0.049    29.211     8.864
    18   6 C        2.962     0.016    27.662     8.627
    19   6 C        3.757    -0.124    22.921     6.826
    20   6 C        3.759    -0.120    22.844     6.814
    21   6 C        3.755    -0.005    20.723     6.491
    22   6 C        3.752    -0.117    22.800     6.809
    23   1 H        0.925     0.041     2.431     2.438
    24   1 H        0.925     0.067     2.122     2.278
    25   1 H        0.925     0.061     2.186     2.312
    26   1 H        0.924     0.051     2.308     2.376
    27   1 H        0.924     0.077     2.006     2.215
    28   1 H        0.925     0.092     1.861     2.133
    29   1 H        0.924     0.088     1.903     2.157
    30   1 H        0.926     0.093     1.847     2.125
    31   1 H        0.926     0.099     1.791     2.093
    32   1 H        0.926     0.116     1.650     2.009
    33   1 H        0.925     0.066     2.125     2.280
    34   1 H        0.925     0.053     2.289     2.366
    35   1 H        0.925     0.043     2.413     2.429
    36   1 H        0.926     0.058     2.221     2.330
    37   1 H        0.926     0.060     2.198     2.319
    38   1 H        0.925     0.065     2.147     2.291
    39   1 H        0.925     0.069     2.099     2.266
    40   1 H        0.924     0.054     2.271     2.356
    41   1 H        0.925     0.069     2.099     2.266
    42   1 H        0.925     0.059     2.213     2.326
    43   1 H        0.925     0.063     2.163     2.300
    44   1 H        0.924     0.063     2.165     2.301
    45   1 H        0.924     0.081     1.973     2.196
    46   1 H        0.925     0.049     2.328     2.386
    47   1 H        0.925     0.066     2.133     2.284
    48   1 H        0.925     0.055     2.258     2.350

Wiberg/Mayer (AO) data.
largest (>0.10) Wiberg bond orders for each atom

     #   Z sym  total        # sym  WBO       # sym  WBO       # sym  WBO
 ---------------------------------------------------------------------------
     1   6 C    3.990 --     2 C    1.007    23 H    0.984    25 H    0.984
                            24 H    0.981
     2   6 C    3.963 --     1 C    1.007     3 N    0.980    26 H    0.969
                            27 H    0.966
     3   7 N    3.551 --     4 C    1.332     2 C    0.980    21 C    0.963
                             5 O    0.205
     4   6 C    3.964 --     5 O    1.636     3 N    1.332     6 C    0.903
     5   8 O    2.020 --     4 C    1.636     3 N    0.205
     6   6 C    3.950 --     7 N    0.998    28 H    0.960    29 H    0.950
                             4 C    0.903
     7   7 N    3.698 --    11 C    1.336     8 C    1.208     6 C    0.998
     8   6 C    3.946 --     9 C    1.602     7 N    1.208    30 H    0.963
     9   6 C    3.952 --     8 C    1.602    10 N    1.217    31 H    0.963
    10   7 N    3.714 --    11 C    1.366     9 C    1.217    12 C    0.951
    11   6 C    3.948 --    10 N    1.366     7 N    1.336    32 H    0.954
    12   6 C    3.910 --    13 C    1.369    18 C    1.359    10 N    0.951
    13   6 C    3.986 --    15 C    1.417    12 C    1.369    14 C    1.027
                            17 C    0.101
    14   6 C    3.993 --    13 C    1.027    33 H    0.982    35 H    0.973
                            34 H    0.969
    15   6 C    3.988 --    13 C    1.417    16 C    1.406    36 H    0.964
    16   6 C    3.986 --    15 C    1.406    17 C    1.402    20 C    1.035
    17   6 C    3.988 --    18 C    1.421    16 C    1.402    37 H    0.964
                            13 C    0.101
    18   6 C    3.986 --    17 C    1.421    12 C    1.359    19 C    1.030
    19   6 C    3.991 --    18 C    1.030    38 H    0.982    39 H    0.967
                            40 H    0.965
    20   6 C    3.992 --    16 C    1.035    42 H    0.982    43 H    0.973
                            41 H    0.959
    21   6 C    3.953 --    22 C    1.010    44 H    0.969    45 H    0.967
                             3 N    0.963
    22   6 C    3.990 --    21 C    1.010    48 H    0.986    46 H    0.984
                            47 H    0.980
    23   1 H    0.998 --     1 C    0.984
    24   1 H    0.995 --     1 C    0.981
    25   1 H    0.996 --     1 C    0.984
    26   1 H    0.997 --     2 C    0.969
    27   1 H    0.994 --     2 C    0.966
    28   1 H    0.991 --     6 C    0.960
    29   1 H    0.992 --     6 C    0.950
    30   1 H    0.990 --     8 C    0.963
    31   1 H    0.990 --     9 C    0.963
    32   1 H    0.987 --    11 C    0.954
    33   1 H    0.995 --    14 C    0.982
    34   1 H    0.997 --    14 C    0.969
    35   1 H    0.998 --    14 C    0.973
    36   1 H    0.995 --    15 C    0.964
    37   1 H    0.995 --    17 C    0.964
    38   1 H    0.995 --    19 C    0.982
    39   1 H    0.995 --    19 C    0.967
    40   1 H    0.997 --    19 C    0.965
    41   1 H    0.995 --    20 C    0.959
    42   1 H    0.996 --    20 C    0.982
    43   1 H    0.996 --    20 C    0.973
    44   1 H    0.996 --    21 C    0.969
    45   1 H    0.993 --    21 C    0.967
    46   1 H    0.998 --    22 C    0.984
    47   1 H    0.995 --    22 C    0.980
    48   1 H    0.997 --    22 C    0.986
 ---------------------------------------------------------------------------

molecular dipole:
                 x           y           z       tot (Debye)
 q only:       -2.721       3.211      -0.017
   full:       -2.813       2.918       0.220      10.317

           -------------------------------------------------
          | TOTAL ENERGY              -64.328576555991 Eh   |
          | GRADIENT NORM               0.000491191498 Eh/α |
          | HOMO-LUMO GAP               3.250379189320 eV   |
           -------------------------------------------------

 * finished run on 2024/12/20 at 06:50:54.093
