   * xtb version 6.7.1 (edcfbbe) compiled by 'conda@3ef47c1a292c' on 2024-11-25

   ID    Z sym.   atoms
    1    6 C      1, 2, 4, 6, 8, 9, 11-17
    2    7 N      3, 7, 10
    3    8 O      5
    4    1 H      18-41

          program call               : xtb C0622.xyz --opt --namespace C0622 --charge +1
          :  Hamiltonian                  GFN2-xTB          :
 * total energy  :   -52.5686461 Eh     change       -0.4898979E-09 Eh
 * total energy  :   -52.5782900 Eh     change       -0.9643865E-02 Eh
 * total energy  :   -52.5802571 Eh     change       -0.1967162E-02 Eh
 * total energy  :   -52.5806013 Eh     change       -0.3441671E-03 Eh
 * total energy  :   -52.5808263 Eh     change       -0.2249982E-03 Eh
 * total energy  :   -52.5809664 Eh     change       -0.1400987E-03 Eh
 * total energy  :   -52.5811358 Eh     change       -0.1694474E-03 Eh
 * total energy  :   -52.5813466 Eh     change       -0.2107790E-03 Eh
 * total energy  :   -52.5815743 Eh     change       -0.2276713E-03 Eh
 * total energy  :   -52.5818121 Eh     change       -0.2378458E-03 Eh
 * total energy  :   -52.5976020 Eh     change       -0.1998647E-04 Eh
 * total energy  :   -52.5976221 Eh     change       -0.2009978E-04 Eh
 * total energy  :   -52.5976645 Eh     change       -0.4238097E-04 Eh
 * total energy  :   -52.5976831 Eh     change       -0.1863362E-04 Eh
 * total energy  :   -52.5977212 Eh     change       -0.3801571E-04 Eh
 * total energy  :   -52.5977407 Eh     change       -0.1959279E-04 Eh
 * total energy  :   -52.5977501 Eh     change       -0.9319777E-05 Eh
 * total energy  :   -52.5977665 Eh     change       -0.1639351E-04 Eh
 * total energy  :   -52.5977703 Eh     change       -0.3827642E-05 Eh
   *** GEOMETRY OPTIMIZATION CONVERGED AFTER 101 ITERATIONS ***

 final structure:
================
41
 xtb: 6.7.1 (edcfbbe)
C            0.48100776115238       -3.75702190285164       -1.81853889103264
C            0.91187537430821       -3.74760359141832       -0.35276654718644
N            1.41880582793348       -2.45099527416414        0.05743623024889
C            0.68747281608503       -1.46718780855316        0.57199440254635
O            1.11675453116913       -0.37577813989977        0.90064476758593
C           -0.83498592680998       -1.75227972318277        0.79118323799903
N           -1.46752719710059       -0.48972363667587        1.02913410406847
C           -2.34573931601654        0.15579850852395        0.21042019998185
C           -2.50146158301394        1.41210567984347        0.70294388673355
N           -1.70559763035274        1.52681168939581        1.80602664488465
C           -1.08460013221292        0.36538510127133        1.97797548416986
C           -1.56612820859081        2.75136094130338        2.61177121613627
C           -0.54997255856529        2.52125941008604        3.72581720502402
C           -1.07676786954616        3.86422819505435        1.68296534652587
C           -2.93601673567652        3.08546071873976        3.20455122317926
C            2.84664435035962       -2.21607045251904       -0.13878703928708
C            3.66956827018529       -2.74985011647663        1.02724923723125
H           -0.30387736186225       -3.02946658307832       -2.00956360721829
H            0.11096844020892       -4.74282805745243       -2.08462856051566
H            1.32159186043602       -3.52244512525490       -2.46564269848371
H            0.08501596922968       -4.04999760643070        0.29204321742001
H            1.71680768348642       -4.47154460004564       -0.21260274841322
H           -1.29348362965584       -2.22339387646758       -0.07649752610826
H           -0.93953395393024       -2.40188079600941        1.66518878328985
H           -2.79480698692483       -0.31149676024294       -0.64169074524405
H           -3.11396256262774        2.20946131780923        0.33837211113840
H           -0.39348034845638        0.12946575299291        2.75984394984541
H            0.42449222685247        2.26184785043268        3.31932417387597
H           -0.43966779485817        3.43838668314661        4.29695868684191
H           -0.87993904790161        1.74380183302730        4.41069902191564
H           -1.81197087447825        4.10390683237665        0.92006473429081
H           -0.88955504789334        4.76338564781292        2.26181705033388
H           -0.14912316255993        3.57204471223457        1.19635316944168
H           -3.67428933242046        3.26827226994628        2.42881176405518
H           -3.28984139950373        2.27503334692952        3.83790535028781
H           -2.85845468100193        3.98195697720317        3.81204643844091
H            3.14565186801711       -2.69720596018071       -1.07115201681927
H            2.99436653202041       -1.13866325015456       -0.23063196165008
H            3.52199490753578       -3.81909519919343        1.15900605405995
H            4.72353529752584       -2.57064475917868        0.83815264155577
H            3.39285962544212       -2.24184024875715        1.94714200889195

          :  Hamiltonian                  GFN2-xTB          :
         :: total energy             -52.597770291129 Eh    ::
         :: gradient norm              0.000556292050 Eh/a0 ::
         :: HOMO-LUMO gap              3.607755999010 eV    ::
         :: SCC energy               -53.340629392733 Eh    ::
         :: -> dispersion             -0.034967657151 Eh    ::
         :: repulsion energy           0.742859101604 Eh    ::

    * Orbital Energies and Occupations

         #    Occupation            Energy/Eh            Energy/eV
      -------------------------------------------------------------
         1        2.0000           -0.8685652             -23.6349
       ...           ...                  ...                  ...
        36        2.0000           -0.5853997             -15.9295
        37        2.0000           -0.5836322             -15.8814
        38        2.0000           -0.5816123             -15.8265
        39        2.0000           -0.5783565             -15.7379
        40        2.0000           -0.5757061             -15.6658
        41        2.0000           -0.5664721             -15.4145
        42        2.0000           -0.5646832             -15.3658
        43        2.0000           -0.5646605             -15.3652
        44        2.0000           -0.5627759             -15.3139
        45        2.0000           -0.5561103             -15.1325
        46        2.0000           -0.5425673             -14.7640
        47        2.0000           -0.5280404             -14.3687
        48        2.0000           -0.5127425             -13.9524 (HOMO)
        49                         -0.3801599             -10.3447 (LUMO)
        50                         -0.3488736              -9.4933
        51                         -0.3340674              -9.0904
        52                         -0.1745875              -4.7508
        53                         -0.1375771              -3.7437
        54                         -0.1131995              -3.0803
        55                         -0.0856195              -2.3298
        56                         -0.0573993              -1.5619
        57                         -0.0461849              -1.2568
        58                         -0.0300157              -0.8168
        59                         -0.0244020              -0.6640
       ...                                ...                  ...
        92                          0.5001268              13.6091
      -------------------------------------------------------------
                  HL-Gap            0.1325826 Eh            3.6078 eV

     #   Z          covCN         q      C6AA      α(0)
     1   6 C        3.752    -0.119    22.844     6.816
     2   6 C        3.743    -0.013    20.885     6.520
     3   7 N        2.733    -0.071    22.622     7.064
     4   6 C        2.766     0.260    22.627     7.790
     5   8 O        0.858    -0.441    22.524     6.363
     6   6 C        3.744    -0.050    21.541     6.621
     7   7 N        2.875     0.065    20.103     6.659
     8   6 C        3.062    -0.010    28.208     8.709
     9   6 C        3.079    -0.004    28.029     8.680
    10   7 N        2.871     0.051    20.340     6.698
    11   6 C        3.098     0.065    26.439     8.427
    12   6 C        3.837     0.076    19.297     6.250
    13   6 C        3.760    -0.134    23.133     6.857
    14   6 C        3.760    -0.129    23.016     6.839
    15   6 C        3.760    -0.128    23.009     6.838
    16   6 C        3.755    -0.006    20.734     6.493
    17   6 C        3.752    -0.117    22.803     6.810
    18   1 H        0.925     0.041     2.432     2.439
    19   1 H        0.925     0.067     2.124     2.279
    20   1 H        0.925     0.061     2.184     2.311
    21   1 H        0.924     0.051     2.311     2.378
    22   1 H        0.924     0.078     2.004     2.214
    23   1 H        0.925     0.092     1.855     2.130
    24   1 H        0.924     0.088     1.894     2.152
    25   1 H        0.926     0.095     1.835     2.118
    26   1 H        0.927     0.100     1.786     2.090
    27   1 H        0.927     0.124     1.578     1.964
    28   1 H        0.925     0.066     2.130     2.282
    29   1 H        0.925     0.080     1.981     2.201
    30   1 H        0.925     0.055     2.254     2.348
    31   1 H        0.925     0.059     2.209     2.324
    32   1 H        0.925     0.078     2.003     2.213
    33   1 H        0.925     0.063     2.165     2.301
    34   1 H        0.925     0.059     2.213     2.326
    35   1 H        0.925     0.056     2.242     2.342
    36   1 H        0.925     0.079     1.994     2.208
    37   1 H        0.924     0.063     2.165     2.301
    38   1 H        0.924     0.082     1.964     2.191
    39   1 H        0.925     0.049     2.327     2.386
    40   1 H        0.925     0.066     2.131     2.283
    41   1 H        0.925     0.054     2.265     2.353

Wiberg/Mayer (AO) data.
largest (>0.10) Wiberg bond orders for each atom

     #   Z sym  total        # sym  WBO       # sym  WBO       # sym  WBO
 ---------------------------------------------------------------------------
     1   6 C    3.990 --     2 C    1.007    18 H    0.984    20 H    0.984
                            19 H    0.981
     2   6 C    3.964 --     1 C    1.007     3 N    0.980    21 H    0.969
                            22 H    0.966
     3   7 N    3.550 --     4 C    1.330     2 C    0.980    16 C    0.963
                             5 O    0.206
     4   6 C    3.965 --     5 O    1.640     3 N    1.330     6 C    0.902
     5   8 O    2.024 --     4 C    1.640     3 N    0.206
     6   6 C    3.949 --     7 N    0.998    23 H    0.960    24 H    0.949
                             4 C    0.902
     7   7 N    3.701 --    11 C    1.337     8 C    1.208     6 C    0.998
     8   6 C    3.947 --     9 C    1.606     7 N    1.208    25 H    0.963
     9   6 C    3.953 --     8 C    1.606    10 N    1.220    26 H    0.961
    10   7 N    3.703 --    11 C    1.373     9 C    1.220    12 C    0.920
    11   6 C    3.946 --    10 N    1.373     7 N    1.337    27 H    0.949
    12   6 C    3.937 --    13 C    1.000    15 C    0.987    14 C    0.986
                            10 N    0.920
    13   6 C    3.986 --    12 C    1.000    30 H    0.982    28 H    0.980
                            29 H    0.977
    14   6 C    3.985 --    12 C    0.986    33 H    0.983    31 H    0.981
                            32 H    0.977
    15   6 C    3.986 --    12 C    0.987    35 H    0.984    34 H    0.981
                            36 H    0.978
    16   6 C    3.953 --    17 C    1.010    37 H    0.968    38 H    0.966
                             3 N    0.963
    17   6 C    3.991 --    16 C    1.010    41 H    0.986    39 H    0.984
                            40 H    0.980
    18   1 H    0.998 --     1 C    0.984
    19   1 H    0.995 --     1 C    0.981
    20   1 H    0.996 --     1 C    0.984
    21   1 H    0.997 --     2 C    0.969
    22   1 H    0.994 --     2 C    0.966
    23   1 H    0.991 --     6 C    0.960
    24   1 H    0.992 --     6 C    0.949
    25   1 H    0.990 --     8 C    0.963
    26   1 H    0.990 --     9 C    0.961
    27   1 H    0.985 --    11 C    0.949
    28   1 H    0.996 --    13 C    0.980
    29   1 H    0.993 --    13 C    0.977
    30   1 H    0.997 --    13 C    0.982
    31   1 H    0.996 --    14 C    0.981
    32   1 H    0.993 --    14 C    0.977
    33   1 H    0.996 --    14 C    0.983
    34   1 H    0.997 --    15 C    0.981
    35   1 H    0.997 --    15 C    0.984
    36   1 H    0.993 --    15 C    0.978
    37   1 H    0.996 --    16 C    0.968
    38   1 H    0.993 --    16 C    0.966
    39   1 H    0.998 --    17 C    0.984
    40   1 H    0.995 --    17 C    0.980
    41   1 H    0.997 --    17 C    0.986
 ---------------------------------------------------------------------------

molecular dipole:
                 x           y           z       tot (Debye)
 q only:       -1.905      -0.477       2.168
   full:       -2.063      -0.757       2.121       7.764

           -------------------------------------------------
          | TOTAL ENERGY              -52.597770291129 Eh   |
          | GRADIENT NORM               0.000556292050 Eh/α |
          | HOMO-LUMO GAP               3.607755999010 eV   |
           -------------------------------------------------

 * finished run on 2024/12/20 at 06:50:51.712
