   * xtb version 6.7.1 (edcfbbe) compiled by 'conda@3ef47c1a292c' on 2024-11-25

   ID    Z sym.   atoms
    1    6 C      1-3, 5, 6, 8-10
    2    7 N      4, 7
    3    1 H      11-23

          program call               : xtb C0627.xyz --opt --namespace C0627 --charge +1
          :  Hamiltonian                  GFN2-xTB          :
 * total energy  :   -29.1994296 Eh     change       -0.1400615E-08 Eh
 * total energy  :   -29.2028506 Eh     change       -0.3420956E-02 Eh
 * total energy  :   -29.2036709 Eh     change       -0.8203219E-03 Eh
 * total energy  :   -29.2038271 Eh     change       -0.1562110E-03 Eh
 * total energy  :   -29.2039206 Eh     change       -0.9353110E-04 Eh
 * total energy  :   -29.2039614 Eh     change       -0.4081772E-04 Eh
 * total energy  :   -29.2040138 Eh     change       -0.5234622E-04 Eh
 * total energy  :   -29.2040821 Eh     change       -0.6835295E-04 Eh
 * total energy  :   -29.2041585 Eh     change       -0.7636458E-04 Eh
 * total energy  :   -29.2042415 Eh     change       -0.8299889E-04 Eh
 * total energy  :   -29.2063933 Eh     change       -0.5233752E-04 Eh
 * total energy  :   -29.2064228 Eh     change       -0.2943785E-04 Eh
 * total energy  :   -29.2064612 Eh     change       -0.3840091E-04 Eh
 * total energy  :   -29.2064889 Eh     change       -0.2776263E-04 Eh
 * total energy  :   -29.2064993 Eh     change       -0.1036617E-04 Eh
 * total energy  :   -29.2065165 Eh     change       -0.1718841E-04 Eh
 * total energy  :   -29.2065258 Eh     change       -0.9322784E-05 Eh
 * total energy  :   -29.2065309 Eh     change       -0.5075131E-05 Eh
 * total energy  :   -29.2065353 Eh     change       -0.4379147E-05 Eh
   *** GEOMETRY OPTIMIZATION CONVERGED AFTER 43 ITERATIONS ***

 final structure:
================
23
 xtb: 6.7.1 (edcfbbe)
C            1.82562475295275        0.37361453928468        0.30204722911509
C            0.52655912737515       -0.08744366763337        0.94858355765788
C            0.20687650701260        0.68020486933256        2.23789572917804
N           -0.05951356889323        2.07240967436311        1.96286144249576
C           -1.24217710340737        2.57700512176036        1.51435047566423
C           -1.06528912010274        3.91079746273426        1.31470845510730
N            0.22924936345629        4.20532976250328        1.64070361940053
C            0.81730146247065        3.06817495247130        2.02741420642590
C            0.78395688703001        5.49436754129427        1.57024670627044
C            2.02345265732339        5.80947122924055        1.90516861089033
H            1.76730809584512        1.41189137939130       -0.02174420200930
H            2.03414080637969       -0.23386820098051       -0.57359422297487
H            2.65975784198000        0.26529069685860        0.99139771757709
H           -0.29983664697502        0.02228679958147        0.24434597113436
H            0.60534368091079       -1.14313199339950        1.20798275317881
H           -0.67508345590710        0.25141465474257        2.71754510423541
H            1.05143422226494        0.61737590184656        2.92653697317386
H           -2.11329177101213        1.97001627782389        1.37476297803808
H           -1.75739754955922        4.65360693776244        0.97390320738762
H            1.83465778768954        2.96719476790107        2.34878455226411
H            0.08176118466337        6.23030878794710        1.20917949158348
H            2.35892720742495        6.82675126523788        1.81846545167927
H            2.74549763107698        5.10088123993659        2.27047419252639

          :  Hamiltonian                  GFN2-xTB          :
         :: total energy             -29.206535265662 Eh    ::
         :: gradient norm              0.000867558985 Eh/a0 ::
         :: HOMO-LUMO gap              3.820758445614 eV    ::
         :: SCC energy               -29.682948498855 Eh    ::
         :: -> dispersion             -0.016371030179 Eh    ::
         :: repulsion energy           0.476413233193 Eh    ::

    * Orbital Energies and Occupations

         #    Occupation            Energy/Eh            Energy/eV
      -------------------------------------------------------------
         1        2.0000           -0.8992555             -24.4700
       ...           ...                  ...                  ...
        15        2.0000           -0.6806594             -18.5217
        16        2.0000           -0.6745409             -18.3552
        17        2.0000           -0.6630520             -18.0426
        18        2.0000           -0.6513184             -17.7233
        19        2.0000           -0.6391942             -17.3934
        20        2.0000           -0.6316231             -17.1873
        21        2.0000           -0.6224631             -16.9381
        22        2.0000           -0.6084977             -16.5581
        23        2.0000           -0.5947620             -16.1843
        24        2.0000           -0.5901354             -16.0584
        25        2.0000           -0.5813443             -15.8192
        26        2.0000           -0.5725613             -15.5802
        27        2.0000           -0.5704392             -15.5224 (HOMO)
        28                         -0.4300289             -11.7017 (LUMO)
        29                         -0.3809608             -10.3665
        30                         -0.3380196              -9.1980
        31                         -0.1803078              -4.9064
        32                         -0.1279625              -3.4820
        33                         -0.0653807              -1.7791
        34                         -0.0621581              -1.6914
        35                         -0.0467558              -1.2723
        36                         -0.0289707              -0.7883
        37                         -0.0175064              -0.4764
        38                         -0.0048424              -0.1318
       ...                                ...                  ...
        53                          0.4708852              12.8134
      -------------------------------------------------------------
                  HL-Gap            0.1404103 Eh            3.8208 eV

     #   Z          covCN         q      C6AA      α(0)
     1   6 C        3.752    -0.117    22.805     6.810
     2   6 C        3.801    -0.066    21.770     6.643
     3   6 C        3.743    -0.030    21.175     6.565
     4   7 N        2.867     0.075    19.929     6.630
     5   6 C        3.067    -0.005    28.072     8.688
     6   6 C        3.070    -0.006    28.095     8.691
     7   7 N        2.866     0.080    19.859     6.619
     8   6 C        3.091     0.048    26.825     8.489
     9   6 C        2.830     0.006    27.875     8.652
    10   6 C        2.837    -0.078    29.934     8.966
    11   1 H        0.925     0.033     2.538     2.491
    12   1 H        0.925     0.070     2.086     2.259
    13   1 H        0.925     0.052     2.297     2.370
    14   1 H        0.924     0.059     2.209     2.324
    15   1 H        0.925     0.078     1.998     2.210
    16   1 H        0.924     0.091     1.869     2.138
    17   1 H        0.924     0.087     1.906     2.159
    18   1 H        0.926     0.110     1.697     2.037
    19   1 H        0.926     0.110     1.697     2.037
    20   1 H        0.926     0.115     1.650     2.009
    21   1 H        0.926     0.096     1.825     2.112
    22   1 H        0.926     0.108     1.717     2.049
    23   1 H        0.926     0.083     1.947     2.182

Wiberg/Mayer (AO) data.
largest (>0.10) Wiberg bond orders for each atom

     #   Z sym  total        # sym  WBO       # sym  WBO       # sym  WBO
 ---------------------------------------------------------------------------
     1   6 C    3.991 --     2 C    1.023    11 H    0.986    13 H    0.986
                            12 H    0.981
     2   6 C    3.982 --     1 C    1.023     3 C    0.980    14 H    0.975
                            15 H    0.967
     3   6 C    3.935 --     2 C    0.980     4 N    0.969    17 H    0.965
                            16 H    0.962
     4   7 N    3.725 --     8 C    1.372     5 C    1.222     3 C    0.969
     5   6 C    3.950 --     6 C    1.601     4 N    1.222    18 H    0.961
     6   6 C    3.948 --     5 C    1.601     7 N    1.205    19 H    0.960
     7   7 N    3.729 --     8 C    1.324     6 C    1.205     9 C    1.035
     8   6 C    3.946 --     4 N    1.372     7 N    1.324    20 H    0.952
     9   6 C    3.942 --    10 C    1.912     7 N    1.035    21 H    0.954
    10   6 C    3.973 --     9 C    1.912    23 H    0.968    22 H    0.965
    11   1 H    0.999 --     1 C    0.986
    12   1 H    0.995 --     1 C    0.981
    13   1 H    0.997 --     1 C    0.986
    14   1 H    0.996 --     2 C    0.975
    15   1 H    0.993 --     2 C    0.967
    16   1 H    0.991 --     3 C    0.962
    17   1 H    0.992 --     3 C    0.965
    18   1 H    0.987 --     5 C    0.961
    19   1 H    0.988 --     6 C    0.960
    20   1 H    0.987 --     8 C    0.952
    21   1 H    0.990 --     9 C    0.954
    22   1 H    0.988 --    10 C    0.965
    23   1 H    0.993 --    10 C    0.968
 ---------------------------------------------------------------------------

molecular dipole:
                 x           y           z       tot (Debye)
 q only:        0.629       5.639       3.230
   full:        0.618       5.668       3.295      16.738

           -------------------------------------------------
          | TOTAL ENERGY              -29.206535265662 Eh   |
          | GRADIENT NORM               0.000867558985 Eh/α |
          | HOMO-LUMO GAP               3.820758445614 eV   |
           -------------------------------------------------

 * finished run on 2024/12/20 at 06:50:58.074
