   * xtb version 6.7.1 (edcfbbe) compiled by 'conda@3ef47c1a292c' on 2024-11-25

   ID    Z sym.   atoms
    1    6 C      1-5, 7-12
    2    7 N      6
    3    1 H      13-38

          program call               : xtb C0621.xyz --opt --namespace C0621 --charge +1
          :  Hamiltonian                  GFN2-xTB          :
 * total energy  :   -39.3327049 Eh     change       -0.7648282E-10 Eh
 * total energy  :   -39.3396798 Eh     change       -0.6974887E-02 Eh
 * total energy  :   -39.3415304 Eh     change       -0.1850587E-02 Eh
 * total energy  :   -39.3417106 Eh     change       -0.1802270E-03 Eh
 * total energy  :   -39.3420238 Eh     change       -0.3131795E-03 Eh
 * total energy  :   -39.3423023 Eh     change       -0.2785338E-03 Eh
 * total energy  :   -39.3427193 Eh     change       -0.4169104E-03 Eh
 * total energy  :   -39.3434030 Eh     change       -0.6837772E-03 Eh
 * total energy  :   -39.3440424 Eh     change       -0.6393547E-03 Eh
 * total energy  :   -39.3443136 Eh     change       -0.2712152E-03 Eh
 * total energy  :   -39.3456301 Eh     change       -0.1934284E-04 Eh
 * total energy  :   -39.3456457 Eh     change       -0.1555339E-04 Eh
 * total energy  :   -39.3456654 Eh     change       -0.1974680E-04 Eh
 * total energy  :   -39.3456743 Eh     change       -0.8860161E-05 Eh
 * total energy  :   -39.3456957 Eh     change       -0.2147339E-04 Eh
 * total energy  :   -39.3456854 Eh     change        0.1034212E-04 Eh
 * total energy  :   -39.3456995 Eh     change       -0.1409019E-04 Eh
 * total energy  :   -39.3457071 Eh     change       -0.7653752E-05 Eh
 * total energy  :   -39.3457112 Eh     change       -0.4059305E-05 Eh
   *** GEOMETRY OPTIMIZATION CONVERGED AFTER 29 ITERATIONS ***

 final structure:
================
38
 xtb: 6.7.1 (edcfbbe)
C            1.37941264165856       -0.20615677851184       -0.88042023780235
C            0.89188540881957        0.49561310775438        0.38116570333901
C            1.16033878066251        2.00266719654386        0.38475813438012
C            0.48064576331889        2.78400677969298       -0.74745411165996
C           -1.05386162346912        2.73793365940402       -0.73807979081410
N           -1.76203676853677        3.93067430644072       -0.18548850880474
C           -1.38453664670571        5.18542730574122       -0.92252511701705
C           -1.35317259814437        5.08477999209773       -2.44000672995649
C           -3.25170046295445        3.76606990782202       -0.32990160044018
C           -3.82823005178010        2.35901037060100       -0.24260216533067
C           -1.39285726310398        4.16966387364939        1.24535292679752
C           -1.85702371152763        3.13239942719002        2.25467193256253
H            0.79700702155958        0.08295838387158       -1.75199541254662
H            1.28901586718180       -1.28231610020903       -0.76278735129388
H            2.42448025727509        0.02713570403554       -1.06657887071592
H           -0.17225021228776        0.28741996889453        0.51969153768666
H            1.41109165744371        0.06952614237707        1.24097398191866
H            0.87607030656264        2.40563189215840        1.35828623065611
H            2.23605421568854        2.15288494882290        0.27849135528589
H            0.84861583081463        3.80908440400958       -0.72929926460280
H            0.81813538626339        2.35350607878382       -1.69047608386324
H           -1.42279672424733        2.60607861963765       -1.75465803882030
H           -1.36798206634520        1.87418198808132       -0.15625319758558
H           -2.10100784038111        5.95381726263120       -0.62377116685023
H           -0.40055590693217        5.50284995515284       -0.57529028175548
H           -2.28340810507984        4.71350146439984       -2.86132370759110
H           -1.19764256109384        6.08639313313762       -2.83343712822425
H           -0.53396006676824        4.46535828110471       -2.79155876765298
H           -3.71300940240341        4.39512151295577        0.43329045811821
H           -3.53109267240919        4.16780876523528       -1.30428947417187
H           -3.57459427717653        1.84329545486816        0.67651164068173
H           -4.91116159758910        2.45548160866768       -0.27375904759781
H           -3.53662679114206        1.74250378047619       -1.08761194272179
H           -0.30588745638590        4.24475727242387        1.28659566261190
H           -1.80714388037998        5.14022658463718        1.52852883794349
H           -1.50364915498831        2.13310775983672        2.01905767849012
H           -1.43708091205123        3.40504511811234        3.22006053990000
H           -2.93669438336557        3.11974086746220        2.36582137743720

          :  Hamiltonian                  GFN2-xTB          :
         :: total energy             -39.345711192702 Eh    ::
         :: gradient norm              0.000430289829 Eh/a0 ::
         :: HOMO-LUMO gap              8.085174221592 eV    ::
         :: SCC energy               -39.916460694442 Eh    ::
         :: -> dispersion             -0.029609268677 Eh    ::
         :: repulsion energy           0.570749501740 Eh    ::

    * Orbital Energies and Occupations

         #    Occupation            Energy/Eh            Energy/eV
      -------------------------------------------------------------
         1        2.0000           -0.8506952             -23.1486
       ...           ...                  ...                  ...
        25        2.0000           -0.6135462             -16.6954
        26        2.0000           -0.6100316             -16.5998
        27        2.0000           -0.6073443             -16.5267
        28        2.0000           -0.6033391             -16.4177
        29        2.0000           -0.5992472             -16.3063
        30        2.0000           -0.5962104             -16.2237
        31        2.0000           -0.5895690             -16.0430
        32        2.0000           -0.5842873             -15.8993
        33        2.0000           -0.5796356             -15.7727
        34        2.0000           -0.5686800             -15.4746
        35        2.0000           -0.5451720             -14.8349
        36        2.0000           -0.5384496             -14.6520
        37        2.0000           -0.5336566             -14.5215 (HOMO)
        38                         -0.2365320              -6.4364 (LUMO)
        39                         -0.1729911              -4.7073
        40                         -0.1577305              -4.2921
        41                         -0.1538565              -4.1866
        42                         -0.0653903              -1.7794
        43                         -0.0627634              -1.7079
        44                         -0.0518386              -1.4106
        45                         -0.0435823              -1.1859
        46                         -0.0350351              -0.9534
        47                         -0.0336870              -0.9167
        48                         -0.0201307              -0.5478
       ...                                ...                  ...
        74                          0.2021842               5.5017
      -------------------------------------------------------------
                  HL-Gap            0.2971247 Eh            8.0852 eV

     #   Z          covCN         q      C6AA      α(0)
     1   6 C        3.751    -0.111    22.691     6.793
     2   6 C        3.799    -0.058    21.612     6.619
     3   6 C        3.800    -0.070    21.835     6.653
     4   6 C        3.799    -0.073    21.896     6.663
     5   6 C        3.748    -0.039    21.330     6.587
     6   7 N        3.616     0.100    19.516     6.561
     7   6 C        3.764    -0.030    21.149     6.555
     8   6 C        3.751    -0.127    23.008     6.841
     9   6 C        3.753    -0.031    21.190     6.564
    10   6 C        3.750    -0.129    23.043     6.846
    11   6 C        3.759    -0.028    21.128     6.553
    12   6 C        3.751    -0.125    22.961     6.834
    13   1 H        0.925     0.033     2.545     2.495
    14   1 H        0.925     0.050     2.323     2.383
    15   1 H        0.925     0.047     2.362     2.403
    16   1 H        0.924     0.023     2.694     2.567
    17   1 H        0.924     0.049     2.337     2.391
    18   1 H        0.924     0.035     2.515     2.480
    19   1 H        0.924     0.056     2.247     2.344
    20   1 H        0.925     0.048     2.340     2.392
    21   1 H        0.925     0.071     2.076     2.253
    22   1 H        0.925     0.081     1.968     2.194
    23   1 H        0.925     0.097     1.812     2.105
    24   1 H        0.924     0.078     2.004     2.214
    25   1 H        0.924     0.082     1.960     2.189
    26   1 H        0.925     0.063     2.170     2.303
    27   1 H        0.925     0.084     1.940     2.178
    28   1 H        0.925     0.072     2.069     2.249
    29   1 H        0.924     0.081     1.972     2.196
    30   1 H        0.924     0.085     1.930     2.172
    31   1 H        0.925     0.069     2.097     2.265
    32   1 H        0.925     0.081     1.964     2.192
    33   1 H        0.925     0.065     2.141     2.288
    34   1 H        0.924     0.086     1.918     2.166
    35   1 H        0.924     0.074     2.039     2.233
    36   1 H        0.925     0.067     2.121     2.278
    37   1 H        0.925     0.080     1.981     2.201
    38   1 H        0.925     0.067     2.120     2.277

Wiberg/Mayer (AO) data.
largest (>0.10) Wiberg bond orders for each atom

     #   Z sym  total        # sym  WBO       # sym  WBO       # sym  WBO
 ---------------------------------------------------------------------------
     1   6 C    3.994 --     2 C    1.021    15 H    0.986    13 H    0.986
                            14 H    0.985
     2   6 C    3.996 --     1 C    1.021     3 C    1.008    17 H    0.976
                            16 H    0.972
     3   6 C    3.993 --     2 C    1.008     4 C    1.005    19 H    0.973
                            18 H    0.973
     4   6 C    3.986 --     3 C    1.005     5 C    1.002    21 H    0.967
                            20 H    0.967
     5   6 C    3.928 --     4 C    1.002    22 H    0.967    23 H    0.953
                             6 N    0.930
     6   7 N    3.796 --    11 C    0.933     5 C    0.930     7 C    0.929
                             9 C    0.926
     7   6 C    3.939 --     8 C    1.023    24 H    0.969    25 H    0.964
                             6 N    0.929
     8   6 C    3.982 --     7 C    1.023    28 H    0.981    26 H    0.976
                            27 H    0.972
     9   6 C    3.936 --    10 C    1.022    29 H    0.968    30 H    0.963
                             6 N    0.926
    10   6 C    3.982 --     9 C    1.022    33 H    0.982    31 H    0.977
                            32 H    0.972
    11   6 C    3.938 --    12 C    1.022    35 H    0.969    34 H    0.962
                             6 N    0.933
    12   6 C    3.983 --    11 C    1.022    38 H    0.980    36 H    0.977
                            37 H    0.973
    13   1 H    0.999 --     1 C    0.986
    14   1 H    0.997 --     1 C    0.985
    15   1 H    0.998 --     1 C    0.986
    16   1 H    0.999 --     2 C    0.972
    17   1 H    0.998 --     2 C    0.976
    18   1 H    0.999 --     3 C    0.973
    19   1 H    0.997 --     3 C    0.973
    20   1 H    0.998 --     4 C    0.967
    21   1 H    0.995 --     4 C    0.967
    22   1 H    0.993 --     5 C    0.967
    23   1 H    0.991 --     5 C    0.953
    24   1 H    0.994 --     7 C    0.969
    25   1 H    0.993 --     7 C    0.964
    26   1 H    0.996 --     8 C    0.976
    27   1 H    0.993 --     8 C    0.972
    28   1 H    0.995 --     8 C    0.981
    29   1 H    0.993 --     9 C    0.968
    30   1 H    0.993 --     9 C    0.963
    31   1 H    0.995 --    10 C    0.977
    32   1 H    0.993 --    10 C    0.972
    33   1 H    0.996 --    10 C    0.982
    34   1 H    0.993 --    11 C    0.962
    35   1 H    0.994 --    11 C    0.969
    36   1 H    0.996 --    12 C    0.977
    37   1 H    0.993 --    12 C    0.973
    38   1 H    0.995 --    12 C    0.980
 ---------------------------------------------------------------------------

molecular dipole:
                 x           y           z       tot (Debye)
 q only:       -3.070       6.915      -0.388
   full:       -3.110       7.067      -0.375      19.648

           -------------------------------------------------
          | TOTAL ENERGY              -39.345711192702 Eh   |
          | GRADIENT NORM               0.000430289829 Eh/α |
          | HOMO-LUMO GAP               8.085174221592 eV   |
           -------------------------------------------------

 * finished run on 2024/12/20 at 06:50:49.172
