   * xtb version 6.7.1 (edcfbbe) compiled by 'conda@3ef47c1a292c' on 2024-11-25

   ID    Z sym.   atoms
    1    6 C      1-4, 6-16
    2    7 N      5
    3   16 S      17
    4    8 O      18-20
    5    1 H      21-54

          program call               : xtb C0625.xyz --opt --namespace C0625 --charge +1
          :  Hamiltonian                  GFN2-xTB          :
 * total energy  :   -67.3968289 Eh     change       -0.2420677E-09 Eh
 * total energy  :   -67.4087398 Eh     change       -0.1191096E-01 Eh
 * total energy  :   -67.4129643 Eh     change       -0.4224459E-02 Eh
 * total energy  :   -67.4138791 Eh     change       -0.9148112E-03 Eh
 * total energy  :   -67.4146482 Eh     change       -0.7691372E-03 Eh
 * total energy  :   -67.4151402 Eh     change       -0.4919723E-03 Eh
 * total energy  :   -67.4157197 Eh     change       -0.5794434E-03 Eh
 * total energy  :   -67.4161992 Eh     change       -0.4795057E-03 Eh
 * total energy  :   -67.4166216 Eh     change       -0.4223976E-03 Eh
 * total energy  :   -67.4169842 Eh     change       -0.3626673E-03 Eh
 * total energy  :   -67.4310256 Eh     change       -0.2470816E-04 Eh
 * total energy  :   -67.4310466 Eh     change       -0.2100681E-04 Eh
 * total energy  :   -67.4310663 Eh     change       -0.1964642E-04 Eh
 * total energy  :   -67.4310975 Eh     change       -0.3126908E-04 Eh
 * total energy  :   -67.4311069 Eh     change       -0.9322556E-05 Eh
 * total energy  :   -67.4311222 Eh     change       -0.1533319E-04 Eh
 * total energy  :   -67.4311279 Eh     change       -0.5659413E-05 Eh
 * total energy  :   -67.4311345 Eh     change       -0.6614888E-05 Eh
 * total energy  :   -67.4311378 Eh     change       -0.3322548E-05 Eh
   *** GEOMETRY OPTIMIZATION CONVERGED AFTER 61 ITERATIONS ***

 final structure:
================
54
 xtb: 6.7.1 (edcfbbe)
C            0.99763528632098       -2.94455930922990       -1.17768850038773
C           -0.08917640898728       -3.25373026159664       -0.15542535834874
C            0.39329249133586       -3.16932857383351        1.29765947685817
C            0.66941859387273       -1.80985876645447        1.95882158436635
N           -0.49033649124166       -0.87883997793541        2.24864146173617
C           -1.74065107401336       -1.66144163668000        2.55164291098787
C           -1.64099921976101       -2.74518823720794        3.64467764916072
C           -2.54681095165992       -2.51670759032275        4.86018430365440
C           -4.03020073879515       -2.55284694295875        4.51462146905062
C           -0.13078647261466       -0.09995621829067        3.49130502586972
C           -0.67335557816104        1.30995569188343        3.79377958558499
C           -2.15657453297019        1.65219864207348        3.58763081896511
C           -3.03602459735843        1.31458196570494        4.78600010109806
C           -0.76022889820372       -0.08235978040136        0.99219740737003
C           -0.22462718814965        1.34130471778788        0.79511287443833
C            1.26593232730273        1.57840337572296        0.93440830458830
S            2.13175434674015        0.87817666460831       -0.49599496129849
O            1.17567878019493        0.22194618145713       -1.32802978606131
O            3.04630106560689        1.80675648092686       -1.05735749206947
O            3.00081386676345       -0.26293887892167        0.26585207302883
H            1.28306007639854       -1.89832892562569       -1.16872674500813
H            0.63801131941686       -3.17796953996045       -2.17582518825782
H            1.87879658795698       -3.55191695353877       -0.98625764896886
H           -0.96145476746150       -2.62440262136225       -0.33790081624769
H           -0.41298645767473       -4.28579095281998       -0.30897592269610
H           -0.28132183948221       -3.75482067329601        1.91642075275954
H            1.35950607157631       -3.67983299861604        1.33512843642365
H            1.14708916577745       -2.04158277423098        2.91262517238143
H            1.38828279745467       -1.25989940696862        1.35162870306182
H           -2.49714407893000       -0.93699908124784        2.85105780570168
H           -2.06197130281325       -2.12374289545515        1.61911537660879
H           -1.93655514191312       -3.70244587079898        3.21306896042952
H           -0.61825292707388       -2.85800718433584        4.00156436971874
H           -2.33936667480297       -3.31366553362522        5.57615348074431
H           -2.29801536562663       -1.57606236435201        5.35459042975738
H           -4.28619135283549       -3.49894355724896        4.04489553880769
H           -4.62360012370029       -2.45323172609499        5.41902537844236
H           -4.31453535982934       -1.74912838252831        3.83921435577132
H           -0.40541813623549       -0.74956746413855        4.32197254176930
H            0.95579567358984        0.00207507992586        3.50914083879300
H           -0.45443409129989        1.45510457665500        4.85535045768103
H           -0.06333083643793        2.04340211827691        3.27109006376079
H           -2.21987922809256        2.73093025762679        3.43249144595485
H           -2.56057184737410        1.18403626734249        2.69004465662142
H           -2.68579244962958        1.83778778791032        5.67162744337994
H           -4.05862921822966        1.62785395850144        4.59469655460676
H           -3.04679507466696        0.25152085740170        4.99980404542811
H           -0.38046273169709       -0.67160936829434        0.15791020455147
H           -1.84281446791552       -0.00165307048477        0.87659346837553
H           -0.47360033119859        1.56488695761784       -0.24637217796087
H           -0.77700046657957        2.05387164475384        1.40309429943253
H            1.49369243935212        2.63925233539105        0.89862460693074
H            1.72682856296430        1.14081550602847        1.81099769717624
H            3.90567697089990       -0.26271354864973       -0.05345753455756

          :  Hamiltonian                  GFN2-xTB          :
         :: total energy             -67.431137797267 Eh    ::
         :: gradient norm              0.000750314280 Eh/a0 ::
         :: HOMO-LUMO gap              7.231557011567 eV    ::
         :: SCC energy               -68.247290884572 Eh    ::
         :: -> dispersion             -0.054191287721 Eh    ::
         :: repulsion energy           0.816153087305 Eh    ::

    * Orbital Energies and Occupations

         #    Occupation            Energy/Eh            Energy/eV
      -------------------------------------------------------------
         1        2.0000           -0.9086416             -24.7254
       ...           ...                  ...                  ...
        49        2.0000           -0.5753364             -15.6557
        50        2.0000           -0.5734678             -15.6049
        51        2.0000           -0.5655358             -15.3890
        52        2.0000           -0.5641773             -15.3520
        53        2.0000           -0.5618051             -15.2875
        54        2.0000           -0.5603382             -15.2476
        55        2.0000           -0.5556974             -15.1213
        56        2.0000           -0.5510284             -14.9942
        57        2.0000           -0.5502865             -14.9741
        58        2.0000           -0.5476979             -14.9036
        59        2.0000           -0.5441452             -14.8069
        60        2.0000           -0.5393742             -14.6771
        61        2.0000           -0.5280610             -14.3693 (HOMO)
        62                         -0.2623061              -7.1377 (LUMO)
        63                         -0.2478247              -6.7437
        64                         -0.2204285              -5.9982
        65                         -0.1934565              -5.2642
        66                         -0.1689088              -4.5962
        67                         -0.1640953              -4.4653
        68                         -0.1599044              -4.3512
        69                         -0.1524996              -4.1497
        70                         -0.0918142              -2.4984
        71                         -0.0791633              -2.1541
        72                         -0.0700805              -1.9070
       ...                                ...                  ...
       119                          1.1660602              31.7301
      -------------------------------------------------------------
                  HL-Gap            0.2657548 Eh            7.2316 eV

     #   Z          covCN         q      C6AA      α(0)
     1   6 C        3.752    -0.126    22.986     6.837
     2   6 C        3.798    -0.062    21.703     6.633
     3   6 C        3.799    -0.081    22.056     6.687
     4   6 C        3.750    -0.047    21.479     6.610
     5   7 N        3.610     0.100    19.512     6.561
     6   6 C        3.754    -0.040    21.347     6.588
     7   6 C        3.799    -0.073    21.894     6.662
     8   6 C        3.799    -0.062    21.684     6.630
     9   6 C        3.752    -0.115    22.764     6.804
    10   6 C        3.748    -0.039    21.345     6.590
    11   6 C        3.798    -0.078    21.989     6.677
    12   6 C        3.798    -0.061    21.669     6.628
    13   6 C        3.752    -0.117    22.805     6.810
    14   6 C        3.748    -0.051    21.550     6.621
    15   6 C        3.848    -0.085    22.093     6.686
    16   6 C        3.796    -0.182    24.067     6.985
    17  16 S        3.609     1.333    97.605    16.628
    18   8 O        0.860    -0.590    25.877     6.820
    19   8 O        0.860    -0.581    25.661     6.792
    20   8 O        1.663    -0.563    24.289     6.653
    21   1 H        0.925     0.055     2.253     2.347
    22   1 H        0.925     0.055     2.264     2.353
    23   1 H        0.925     0.042     2.420     2.433
    24   1 H        0.924     0.031     2.569     2.507
    25   1 H        0.924     0.054     2.274     2.358
    26   1 H        0.925     0.060     2.197     2.318
    27   1 H        0.924     0.074     2.038     2.232
    28   1 H        0.924     0.072     2.063     2.246
    29   1 H        0.925     0.096     1.821     2.110
    30   1 H        0.925     0.094     1.836     2.119
    31   1 H        0.925     0.083     1.952     2.185
    32   1 H        0.924     0.065     2.139     2.287
    33   1 H        0.925     0.052     2.296     2.370
    34   1 H        0.924     0.055     2.263     2.353
    35   1 H        0.924     0.036     2.498     2.471
    36   1 H        0.925     0.049     2.335     2.389
    37   1 H        0.925     0.056     2.248     2.345
    38   1 H        0.925     0.036     2.506     2.475
    39   1 H        0.925     0.092     1.858     2.131
    40   1 H        0.924     0.068     2.110     2.272
    41   1 H        0.924     0.075     2.030     2.228
    42   1 H        0.925     0.053     2.283     2.363
    43   1 H        0.924     0.051     2.312     2.378
    44   1 H        0.925     0.032     2.554     2.499
    45   1 H        0.925     0.049     2.333     2.389
    46   1 H        0.925     0.052     2.290     2.366
    47   1 H        0.925     0.044     2.402     2.424
    48   1 H        0.925     0.119     1.622     1.991
    49   1 H        0.924     0.087     1.912     2.162
    50   1 H        0.924     0.096     1.822     2.111
    51   1 H        0.925     0.092     1.857     2.131
    52   1 H        0.926     0.099     1.793     2.094
    53   1 H        0.926     0.084     1.935     2.175
    54   1 H        0.819     0.362     0.558     1.173

Wiberg/Mayer (AO) data.
largest (>0.10) Wiberg bond orders for each atom

     #   Z sym  total        # sym  WBO       # sym  WBO       # sym  WBO
 ---------------------------------------------------------------------------
     1   6 C    3.991 --     2 C    1.020    23 H    0.986    22 H    0.984
                            21 H    0.975
     2   6 C    3.994 --     1 C    1.020     3 C    1.005    25 H    0.974
                            24 H    0.970
     3   6 C    3.981 --     2 C    1.005     4 C    1.003    26 H    0.966
                            27 H    0.961
     4   6 C    3.927 --     3 C    1.003    28 H    0.967    29 H    0.958
                             5 N    0.922
     5   7 N    3.796 --    14 C    0.932     6 C    0.931    10 C    0.929
                             4 C    0.922
     6   6 C    3.929 --     7 C    0.999    31 H    0.968    30 H    0.957
                             5 N    0.931
     7   6 C    3.987 --     8 C    1.003     6 C    0.999    32 H    0.968
                            33 H    0.966
     8   6 C    3.993 --     9 C    1.021     7 C    1.003    34 H    0.974
                            35 H    0.965
     9   6 C    3.993 --     8 C    1.021    36 H    0.986    37 H    0.984
                            38 H    0.984
    10   6 C    3.934 --    11 C    1.001    40 H    0.966    39 H    0.961
                             5 N    0.929
    11   6 C    3.982 --    12 C    1.003    10 C    1.001    42 H    0.972
                            41 H    0.962
    12   6 C    3.994 --    13 C    1.020    11 C    1.003    43 H    0.975
                            44 H    0.969
    13   6 C    3.992 --    12 C    1.020    45 H    0.986    46 H    0.985
                            47 H    0.976
    14   6 C    3.933 --    15 C    1.009    49 H    0.964    48 H    0.951
                             5 N    0.932
    15   6 C    3.981 --    16 C    1.020    14 C    1.009    51 H    0.957
                            50 H    0.954
    16   6 C    3.979 --    15 C    1.020    52 H    0.968    53 H    0.965
                            17 S    0.733    18 O    0.108    19 O    0.102
    17  16 S    4.878 --    19 O    1.601    18 O    1.570    20 O    0.937
                            16 C    0.733
    18   8 O    1.904 --    17 S    1.570    19 O    0.118    16 C    0.108
    19   8 O    1.912 --    17 S    1.601    18 O    0.118    16 C    0.102
    20   8 O    2.008 --    17 S    0.937    54 H    0.846
    21   1 H    0.997 --     1 C    0.975
    22   1 H    0.997 --     1 C    0.984
    23   1 H    0.998 --     1 C    0.986
    24   1 H    0.999 --     2 C    0.970
    25   1 H    0.997 --     2 C    0.974
    26   1 H    0.996 --     3 C    0.966
    27   1 H    0.994 --     3 C    0.961
    28   1 H    0.995 --     4 C    0.967
    29   1 H    0.991 --     4 C    0.958
    30   1 H    0.991 --     6 C    0.957
    31   1 H    0.993 --     6 C    0.968
    32   1 H    0.995 --     7 C    0.968
    33   1 H    0.997 --     7 C    0.966
    34   1 H    0.997 --     8 C    0.974
    35   1 H    0.999 --     8 C    0.965
    36   1 H    0.998 --     9 C    0.986
    37   1 H    0.997 --     9 C    0.984
    38   1 H    0.999 --     9 C    0.984
    39   1 H    0.991 --    10 C    0.961
    40   1 H    0.995 --    10 C    0.966
    41   1 H    0.994 --    11 C    0.962
    42   1 H    0.997 --    11 C    0.972
    43   1 H    0.997 --    12 C    0.975
    44   1 H    0.999 --    12 C    0.969
    45   1 H    0.997 --    13 C    0.986
    46   1 H    0.997 --    13 C    0.985
    47   1 H    0.998 --    13 C    0.976
    48   1 H    0.986 --    14 C    0.951
    49   1 H    0.992 --    14 C    0.964
    50   1 H    0.990 --    15 C    0.954
    51   1 H    0.991 --    15 C    0.957
    52   1 H    0.990 --    16 C    0.968
    53   1 H    0.993 --    16 C    0.965
    54   1 H    0.868 --    20 O    0.846
 ---------------------------------------------------------------------------

molecular dipole:
                 x           y           z       tot (Debye)
 q only:       -1.177      -1.521       5.557
   full:       -0.777      -1.461       5.585      14.805

           -------------------------------------------------
          | TOTAL ENERGY              -67.431137797267 Eh   |
          | GRADIENT NORM               0.000750314280 Eh/α |
          | HOMO-LUMO GAP               7.231557011567 eV   |
           -------------------------------------------------

 * finished run on 2024/12/20 at 06:50:57.200
