   * xtb version 6.7.1 (edcfbbe) compiled by 'conda@3ef47c1a292c' on 2024-11-25

   ID    Z sym.   atoms
    1    6 C      1-3, 5, 6, 8, 9
    2    7 N      4, 7
    3    1 H      10-20

          program call               : xtb C0628.xyz --opt --namespace C0628 --charge +1
          :  Hamiltonian                  GFN2-xTB          :
 * total energy  :   -26.0274164 Eh     change       -0.1250417E-08 Eh
 * total energy  :   -26.0306163 Eh     change       -0.3199832E-02 Eh
 * total energy  :   -26.0312776 Eh     change       -0.6613060E-03 Eh
 * total energy  :   -26.0314217 Eh     change       -0.1441289E-03 Eh
 * total energy  :   -26.0314794 Eh     change       -0.5767735E-04 Eh
 * total energy  :   -26.0314873 Eh     change       -0.7872461E-05 Eh
 * total energy  :   -26.0314976 Eh     change       -0.1036828E-04 Eh
 * total energy  :   -26.0315067 Eh     change       -0.9094905E-05 Eh
 * total energy  :   -26.0315197 Eh     change       -0.1299409E-04 Eh
 * total energy  :   -26.0315369 Eh     change       -0.1718949E-04 Eh
 * total energy  :   -26.0336597 Eh     change       -0.4730798E-04 Eh
 * total energy  :   -26.0336843 Eh     change       -0.2456252E-04 Eh
 * total energy  :   -26.0337081 Eh     change       -0.2382118E-04 Eh
 * total energy  :   -26.0337340 Eh     change       -0.2589395E-04 Eh
 * total energy  :   -26.0337683 Eh     change       -0.3436842E-04 Eh
 * total energy  :   -26.0337802 Eh     change       -0.1186301E-04 Eh
 * total energy  :   -26.0337893 Eh     change       -0.9046470E-05 Eh
 * total energy  :   -26.0337973 Eh     change       -0.8014408E-05 Eh
 * total energy  :   -26.0338020 Eh     change       -0.4691259E-05 Eh
   *** GEOMETRY OPTIMIZATION CONVERGED AFTER 48 ITERATIONS ***

 final structure:
================
20
 xtb: 6.7.1 (edcfbbe)
C            1.11387346393677        0.03627227691494       -0.75841446298690
C            0.01055624984556        0.54555167245841       -1.27083609951023
C           -1.28623477539011        0.64997687847849       -0.51386699124814
N           -1.78394502656306        2.01141374238391       -0.53227176206747
C           -1.07275311933655        3.10610620852035       -0.14496556207792
C           -1.87405146837295        4.19255624460587       -0.32238219257684
N           -3.06161325036161        3.74406776485424       -0.81667208942901
C           -2.98219279362971        2.42162551244469       -0.93709173840308
C           -4.19267392784409        4.57022454469894       -1.14336085678478
H            1.15831119010287       -0.33676336743428        0.25152472704547
H            2.01647796978318       -0.04560711957070       -1.33728277367921
H           -0.02131681837702        0.90510958634075       -2.28984097095484
H           -2.04319109043686        0.00552002542296       -0.96861662892057
H           -1.13795362916776        0.33895137721967        0.52439117949771
H           -0.06737199119782        3.03543841976596        0.21695983055293
H           -1.68346545853533        5.22989638798406       -0.13598936995349
H           -3.76514685721169        1.78462590377156       -1.30215858509954
H           -5.01122471699993        3.95235899130572       -1.50605775968039
H           -4.52322321053052        5.11827733421162       -0.26016838381991
H           -3.92004073971287        5.29138761562283       -1.91511950990343

          :  Hamiltonian                  GFN2-xTB          :
         :: total energy             -26.033801960589 Eh    ::
         :: gradient norm              0.000537088697 Eh/a0 ::
         :: HOMO-LUMO gap              3.805604778805 eV    ::
         :: SCC energy               -26.461714864340 Eh    ::
         :: -> dispersion             -0.013269580570 Eh    ::
         :: repulsion energy           0.427912903751 Eh    ::

    * Orbital Energies and Occupations

         #    Occupation            Energy/Eh            Energy/eV
      -------------------------------------------------------------
         1        2.0000           -0.9011526             -24.5216
       ...           ...                  ...                  ...
        12        2.0000           -0.6973994             -18.9772
        13        2.0000           -0.6928279             -18.8528
        14        2.0000           -0.6791076             -18.4795
        15        2.0000           -0.6742922             -18.3484
        16        2.0000           -0.6646711             -18.0866
        17        2.0000           -0.6507942             -17.7090
        18        2.0000           -0.6427949             -17.4913
        19        2.0000           -0.6373149             -17.3422
        20        2.0000           -0.6073155             -16.5259
        21        2.0000           -0.6022115             -16.3870
        22        2.0000           -0.5925480             -16.1241
        23        2.0000           -0.5695622             -15.4986
        24        2.0000           -0.5506330             -14.9835 (HOMO)
        25                         -0.4107796             -11.1779 (LUMO)
        26                         -0.3749639             -10.2033
        27                         -0.3487654              -9.4904
        28                         -0.1853156              -5.0427
        29                         -0.1300327              -3.5384
        30                         -0.0637415              -1.7345
        31                         -0.0506034              -1.3770
        32                         -0.0268021              -0.7293
        33                         -0.0227819              -0.6199
        34                         -0.0110800              -0.3015
        35                         -0.0041481              -0.1129
       ...                                ...                  ...
        47                          0.4849204              13.1954
      -------------------------------------------------------------
                  HL-Gap            0.1398534 Eh            3.8056 eV

     #   Z          covCN         q      C6AA      α(0)
     1   6 C        2.837    -0.077    29.926     8.965
     2   6 C        2.887    -0.040    29.003     8.829
     3   6 C        3.746    -0.027    21.118     6.555
     4   7 N        2.871     0.069    20.033     6.648
     5   6 C        3.072    -0.004    28.041     8.682
     6   6 C        3.073    -0.008    28.149     8.699
     7   7 N        2.867     0.079    19.874     6.621
     8   6 C        3.097     0.045    26.886     8.498
     9   6 C        3.692    -0.087    22.354     6.765
    10   1 H        0.926     0.069     2.093     2.262
    11   1 H        0.926     0.082     1.962     2.190
    12   1 H        0.926     0.059     2.213     2.327
    13   1 H        0.924     0.090     1.883     2.146
    14   1 H        0.924     0.098     1.806     2.102
    15   1 H        0.926     0.112     1.682     2.028
    16   1 H        0.926     0.112     1.682     2.028
    17   1 H        0.926     0.113     1.670     2.021
    18   1 H        0.925     0.100     1.780     2.087
    19   1 H        0.924     0.109     1.708     2.044
    20   1 H        0.924     0.109     1.708     2.044

Wiberg/Mayer (AO) data.
largest (>0.10) Wiberg bond orders for each atom

     #   Z sym  total        # sym  WBO       # sym  WBO       # sym  WBO
 ---------------------------------------------------------------------------
     1   6 C    3.982 --     2 C    1.987    10 H    0.971    11 H    0.970
     2   6 C    3.980 --     1 C    1.987     3 C    0.999    12 H    0.963
     3   6 C    3.936 --     2 C    0.999     4 N    0.960    13 H    0.956
                            14 H    0.951
     4   7 N    3.719 --     8 C    1.364     5 C    1.230     3 C    0.960
     5   6 C    3.950 --     6 C    1.593     4 N    1.230    15 H    0.960
     6   6 C    3.948 --     5 C    1.593     7 N    1.227    16 H    0.961
     7   7 N    3.721 --     8 C    1.361     6 C    1.227     9 C    0.990
     8   6 C    3.946 --     4 N    1.364     7 N    1.361    17 H    0.953
     9   6 C    3.932 --     7 N    0.990    18 H    0.976    19 H    0.962
                            20 H    0.962
    10   1 H    0.995 --     1 C    0.971
    11   1 H    0.992 --     1 C    0.970
    12   1 H    0.997 --     2 C    0.963
    13   1 H    0.992 --     3 C    0.956
    14   1 H    0.990 --     3 C    0.951
    15   1 H    0.987 --     5 C    0.960
    16   1 H    0.987 --     6 C    0.961
    17   1 H    0.987 --     8 C    0.953
    18   1 H    0.990 --     9 C    0.976
    19   1 H    0.988 --     9 C    0.962
    20   1 H    0.988 --     9 C    0.962
 ---------------------------------------------------------------------------

molecular dipole:
                 x           y           z       tot (Debye)
 q only:       -4.267       5.230      -1.330
   full:       -4.400       5.198      -1.336      17.641

           -------------------------------------------------
          | TOTAL ENERGY              -26.033801960589 Eh   |
          | GRADIENT NORM               0.000537088697 Eh/α |
          | HOMO-LUMO GAP               3.805604778805 eV   |
           -------------------------------------------------

 * finished run on 2024/12/20 at 06:50:58.691
