   * xtb version 6.7.1 (edcfbbe) compiled by 'conda@3ef47c1a292c' on 2024-11-25

   ID    Z sym.   atoms
    1    6 C      1, 3, 4
    2    7 N      2
    3    1 H      5-14

          program call               : xtb C0624.xyz --opt --namespace C0624 --charge +1
          :  Hamiltonian                  GFN2-xTB          :
 * total energy  :   -14.0163529 Eh     change       -0.1703526E-11 Eh
 * total energy  :   -14.0185412 Eh     change       -0.2188308E-02 Eh
 * total energy  :   -14.0189192 Eh     change       -0.3779738E-03 Eh
 * total energy  :   -14.0189261 Eh     change       -0.6893238E-05 Eh
 * total energy  :   -14.0189265 Eh     change       -0.3560252E-06 Eh
   *** GEOMETRY OPTIMIZATION CONVERGED AFTER 5 ITERATIONS ***

 final structure:
================
14
 xtb: 6.7.1 (edcfbbe)
C            1.07567308392357        0.05339757466870        0.07067479511062
N            0.56445466142136        0.59210898267433       -1.20264301741308
C            1.07566596046291       -0.18128126789995       -2.34868973507737
C           -0.90900424824152        0.63447077422495       -1.20674766171084
H            0.72954888255683       -0.97095642194766        0.20087049781205
H            0.71978048398147        0.65190984576034        0.90728513882326
H            2.16413027163582        0.05824435465034        0.07623337400371
H            0.90677780557009        1.55581921438340       -1.29612415069720
H            0.72954129276518       -1.21156086355468       -2.27958363030717
H            0.71976829044093        0.24528367146397       -3.28473063369036
H            2.16412307936629       -0.17759415880968       -2.35508271154896
H           -1.27470103697710        1.23585354762645       -0.37644772534295
H           -1.27470621836953        1.06506561733353       -2.13714726299910
H           -1.30524230853630       -0.37521087057406       -1.10880727696260

          :  Hamiltonian                  GFN2-xTB          :
         :: total energy             -14.018926451880 Eh    ::
         :: gradient norm              0.000307503940 Eh/a0 ::
         :: HOMO-LUMO gap             11.392226633372 eV    ::
         :: SCC energy               -14.217414587975 Eh    ::
         :: -> dispersion             -0.005292186307 Eh    ::
         :: repulsion energy           0.198488136095 Eh    ::

    * Orbital Energies and Occupations

         #    Occupation            Energy/Eh            Energy/eV
      -------------------------------------------------------------
         1        2.0000           -0.8929177             -24.2975
         2        2.0000           -0.8455269             -23.0080
         3        2.0000           -0.8455269             -23.0080
         4        2.0000           -0.8125736             -22.1113
         5        2.0000           -0.7638804             -20.7862
         6        2.0000           -0.7410583             -20.1652
         7        2.0000           -0.7410583             -20.1652
         8        2.0000           -0.6807723             -18.5248
         9        2.0000           -0.6807723             -18.5248
        10        2.0000           -0.6662466             -18.1295
        11        2.0000           -0.6662466             -18.1295
        12        2.0000           -0.6613404             -17.9960
        13        2.0000           -0.6613233             -17.9955 (HOMO)
        14                         -0.2426667              -6.6033 (LUMO)
        15                         -0.1539467              -4.1891
        16                         -0.1539467              -4.1891
        17                         -0.1396071              -3.7989
        18                         -0.0579346              -1.5765
        19                         -0.0016880              -0.0459
        20                         -0.0016880              -0.0459
        21                          0.0206023               0.5606
        22                          0.0206024               0.5606
        23                          0.0392972               1.0693
        24                          0.0392973               1.0693
       ...                                ...                  ...
        26                          0.0502241               1.3667
      -------------------------------------------------------------
                  HL-Gap            0.4186566 Eh           11.3922 eV

     #   Z          covCN         q      C6AA      α(0)
     1   6 C        3.702    -0.103    22.633     6.803
     2   7 N        3.577     0.082    19.816     6.612
     3   6 C        3.702    -0.103    22.633     6.803
     4   6 C        3.702    -0.103    22.633     6.803
     5   1 H        0.925     0.113     1.667     2.019
     6   1 H        0.925     0.109     1.706     2.043
     7   1 H        0.925     0.109     1.706     2.043
     8   1 H        0.859     0.233     0.951     1.527
     9   1 H        0.925     0.113     1.667     2.019
    10   1 H        0.925     0.109     1.706     2.043
    11   1 H        0.925     0.109     1.706     2.043
    12   1 H        0.925     0.109     1.706     2.043
    13   1 H        0.925     0.109     1.706     2.043
    14   1 H        0.925     0.113     1.667     2.019

Wiberg/Mayer (AO) data.
largest (>0.10) Wiberg bond orders for each atom

     #   Z sym  total        # sym  WBO       # sym  WBO       # sym  WBO
 ---------------------------------------------------------------------------
     1   6 C    3.912 --     7 H    0.974     6 H    0.974     5 H    0.974
                             2 N    0.958
     2   7 N    3.789 --     4 C    0.958     1 C    0.958     3 C    0.958
                             8 H    0.914
     3   6 C    3.912 --    10 H    0.974    11 H    0.974     9 H    0.974
                             2 N    0.958
     4   6 C    3.912 --    13 H    0.974    12 H    0.974    14 H    0.974
                             2 N    0.958
     5   1 H    0.987 --     1 C    0.974
     6   1 H    0.988 --     1 C    0.974
     7   1 H    0.988 --     1 C    0.974
     8   1 H    0.946 --     2 N    0.914
     9   1 H    0.987 --     3 C    0.974
    10   1 H    0.988 --     3 C    0.974
    11   1 H    0.988 --     3 C    0.974
    12   1 H    0.988 --     4 C    0.974
    13   1 H    0.988 --     4 C    0.974
    14   1 H    0.987 --     4 C    0.974
 ---------------------------------------------------------------------------

molecular dipole:
                 x           y           z       tot (Debye)
 q only:        0.941       0.764      -2.238
   full:        1.003       0.940      -2.255       6.714

           -------------------------------------------------
          | TOTAL ENERGY              -14.018926451880 Eh   |
          | GRADIENT NORM               0.000307503940 Eh/α |
          | HOMO-LUMO GAP              11.392226633372 eV   |
           -------------------------------------------------

 * finished run on 2024/12/20 at 06:50:54.146
