   * xtb version 6.7.1 (edcfbbe) compiled by 'conda@3ef47c1a292c' on 2024-11-25

   ID    Z sym.   atoms
    1    6 C      1, 2, 4-9
    2    7 N      3
    3    1 H      10-21

          program call               : xtb C0626.xyz --opt --namespace C0626 --charge +1
          :  Hamiltonian                  GFN2-xTB          :
 * total energy  :   -25.7694249 Eh     change       -0.3094875E-09 Eh
 * total energy  :   -25.7720827 Eh     change       -0.2657814E-02 Eh
 * total energy  :   -25.7724520 Eh     change       -0.3693176E-03 Eh
 * total energy  :   -25.7725271 Eh     change       -0.7509158E-04 Eh
 * total energy  :   -25.7726505 Eh     change       -0.1234136E-03 Eh
 * total energy  :   -25.7727370 Eh     change       -0.8651318E-04 Eh
 * total energy  :   -25.7728705 Eh     change       -0.1334800E-03 Eh
 * total energy  :   -25.7730291 Eh     change       -0.1586188E-03 Eh
 * total energy  :   -25.7730849 Eh     change       -0.5573275E-04 Eh
 * total energy  :   -25.7730870 Eh     change       -0.2138638E-05 Eh
 * total energy  :   -25.7731178 Eh     change       -0.3082307E-04 Eh
 * total energy  :   -25.7731231 Eh     change       -0.5281534E-05 Eh
 * total energy  :   -25.7731275 Eh     change       -0.4377543E-05 Eh
   *** GEOMETRY OPTIMIZATION CONVERGED AFTER 13 ITERATIONS ***

 final structure:
================
21
 xtb: 6.7.1 (edcfbbe)
C            1.62836132282178        0.60923829558018       -0.16432328034730
C            0.41651631202688        0.63585262021256       -1.09289722213687
N            0.75778904612626        0.06549791603509       -2.39126276613701
C            1.32739207028583        0.88383951065651       -3.29122607022022
C            1.73974202873412        0.43885427064610       -4.52334219059665
C            1.55753434792314       -0.90389808730878       -4.84031096013626
C            0.97082533171068       -1.73211152981967       -3.90263214782281
C            0.57029934500752       -1.24108373607984       -2.66228287620188
C           -0.06566617310484       -2.13903927225661       -1.66429968326624
H            1.98024282462773       -0.40507554249981        0.00458892702591
H            1.35423613144640        1.03939455596617        0.79425389089543
H            2.44685520805680        1.19223022224552       -0.57910466102028
H           -0.41201551175514        0.08334870617054       -0.65316818059980
H            0.09452299348489        1.66776759043877       -1.24524805229750
H            1.44546297023534        1.91700440337812       -2.99969095538674
H            2.19142403024527        1.12499386160305       -5.22054544294761
H            1.86724933030727       -1.29150920063704       -5.79792402916947
H            0.81672967697406       -2.77692098928553       -4.12108198953921
H           -0.06756526568348       -3.16161408039218       -2.03008715386193
H            0.45750219786343       -2.11986820974698       -0.71000333843921
H           -1.10168821733390       -1.84878130490602       -1.48546181779432

          :  Hamiltonian                  GFN2-xTB          :
         :: total energy             -25.773127494891 Eh    ::
         :: gradient norm              0.000609081738 Eh/a0 ::
         :: HOMO-LUMO gap              3.881560188652 eV    ::
         :: SCC energy               -26.214034606905 Eh    ::
         :: -> dispersion             -0.014990623627 Eh    ::
         :: repulsion energy           0.440907112014 Eh    ::

    * Orbital Energies and Occupations

         #    Occupation            Energy/Eh            Energy/eV
      -------------------------------------------------------------
         1        2.0000           -0.8752101             -23.8157
       ...           ...                  ...                  ...
        12        2.0000           -0.6918597             -18.8265
        13        2.0000           -0.6786254             -18.4663
        14        2.0000           -0.6665502             -18.1378
        15        2.0000           -0.6626650             -18.0320
        16        2.0000           -0.6568052             -17.8726
        17        2.0000           -0.6451720             -17.5560
        18        2.0000           -0.6349600             -17.2781
        19        2.0000           -0.6210368             -16.8993
        20        2.0000           -0.6202062             -16.8767
        21        2.0000           -0.6133460             -16.6900
        22        2.0000           -0.6065307             -16.5045
        23        2.0000           -0.6006952             -16.3457
        24        2.0000           -0.5957474             -16.2111 (HOMO)
        25                         -0.4531026             -12.3296 (LUMO)
        26                         -0.4213020             -11.4642
        27                         -0.3032541              -8.2520
        28                         -0.1770928              -4.8189
        29                         -0.0896372              -2.4392
        30                         -0.0480534              -1.3076
        31                         -0.0468222              -1.2741
        32                         -0.0421317              -1.1465
        33                         -0.0321635              -0.8752
        34                         -0.0101734              -0.2768
        35                          0.0108816               0.2961
       ...                                ...                  ...
        48                          0.4494969              12.2314
      -------------------------------------------------------------
                  HL-Gap            0.1426447 Eh            3.8816 eV

     #   Z          covCN         q      C6AA      α(0)
     1   6 C        3.752    -0.122    22.908     6.825
     2   6 C        3.757    -0.031    21.184     6.562
     3   7 N        2.752     0.087    19.736     6.598
     4   6 C        2.891     0.031    27.314     8.569
     5   6 C        2.915    -0.016    28.419     8.742
     6   6 C        2.922     0.011    27.779     8.643
     7   6 C        2.922    -0.025    28.634     8.775
     8   6 C        2.924     0.093    25.929     8.350
     9   6 C        3.758    -0.139    23.237     6.873
    10   1 H        0.925     0.063     2.161     2.299
    11   1 H        0.925     0.087     1.907     2.160
    12   1 H        0.925     0.066     2.129     2.282
    13   1 H        0.925     0.095     1.831     2.116
    14   1 H        0.924     0.090     1.880     2.144
    15   1 H        0.926     0.105     1.736     2.060
    16   1 H        0.926     0.105     1.741     2.063
    17   1 H        0.926     0.104     1.750     2.069
    18   1 H        0.926     0.102     1.770     2.081
    19   1 H        0.925     0.096     1.822     2.111
    20   1 H        0.925     0.100     1.786     2.090
    21   1 H        0.924     0.100     1.784     2.089

Wiberg/Mayer (AO) data.
largest (>0.10) Wiberg bond orders for each atom

     #   Z sym  total        # sym  WBO       # sym  WBO       # sym  WBO
 ---------------------------------------------------------------------------
     1   6 C    3.981 --     2 C    0.997    12 H    0.983    10 H    0.983
                            11 H    0.975
     2   6 C    3.937 --     1 C    0.997    14 H    0.963    13 H    0.960
                             3 N    0.960
     3   7 N    3.747 --     4 C    1.308     8 C    1.299     2 C    0.960
     4   6 C    3.960 --     5 C    1.489     3 N    1.308    15 H    0.954
                             7 C    0.102
     5   6 C    3.983 --     4 C    1.489     6 C    1.391    16 H    0.960
     6   6 C    3.972 --     7 C    1.460     5 C    1.391    17 H    0.961
     7   6 C    3.984 --     6 C    1.460     8 C    1.394    18 H    0.959
                             4 C    0.102
     8   6 C    3.958 --     7 C    1.394     3 N    1.299     9 C    1.051
     9   6 C    3.979 --     8 C    1.051    19 H    0.974    20 H    0.950
                            21 H    0.941
    10   1 H    0.996 --     1 C    0.983
    11   1 H    0.991 --     1 C    0.975
    12   1 H    0.996 --     1 C    0.983
    13   1 H    0.991 --     2 C    0.960
    14   1 H    0.992 --     2 C    0.963
    15   1 H    0.988 --     4 C    0.954
    16   1 H    0.988 --     5 C    0.960
    17   1 H    0.989 --     6 C    0.961
    18   1 H    0.989 --     7 C    0.959
    19   1 H    0.990 --     9 C    0.974
    20   1 H    0.990 --     9 C    0.950
    21   1 H    0.990 --     9 C    0.941
 ---------------------------------------------------------------------------

molecular dipole:
                 x           y           z       tot (Debye)
 q only:        1.668      -0.656      -4.898
   full:        1.650      -0.603      -4.964      13.383

           -------------------------------------------------
          | TOTAL ENERGY              -25.773127494891 Eh   |
          | GRADIENT NORM               0.000609081738 Eh/α |
          | HOMO-LUMO GAP               3.881560188652 eV   |
           -------------------------------------------------

 * finished run on 2024/12/20 at 06:50:57.624
