   * xtb version 6.7.1 (edcfbbe) compiled by 'conda@3ef47c1a292c' on 2024-11-25

   ID    Z sym.   atoms
    1    6 C      1-18, 20-24
    2    7 N      19
    3    1 H      25-66

          program call               : xtb C0620.xyz --opt --namespace C0620 --charge +1
          :  Hamiltonian                  GFN2-xTB          :
 * total energy  :   -73.2165379 Eh     change       -0.8157031E-11 Eh
 * total energy  :   -73.2197284 Eh     change       -0.3190482E-02 Eh
 * total energy  :   -73.2201895 Eh     change       -0.4610825E-03 Eh
 * total energy  :   -73.2202636 Eh     change       -0.7417853E-04 Eh
 * total energy  :   -73.2203542 Eh     change       -0.9053226E-04 Eh
 * total energy  :   -73.2204277 Eh     change       -0.7355034E-04 Eh
 * total energy  :   -73.2205418 Eh     change       -0.1140881E-03 Eh
 * total energy  :   -73.2206653 Eh     change       -0.1235124E-03 Eh
 * total energy  :   -73.2207422 Eh     change       -0.7685539E-04 Eh
 * total energy  :   -73.2207777 Eh     change       -0.3552471E-04 Eh
 * total energy  :   -73.2208753 Eh     change       -0.1284359E-04 Eh
 * total energy  :   -73.2208972 Eh     change       -0.2180700E-04 Eh
 * total energy  :   -73.2209081 Eh     change       -0.1090329E-04 Eh
 * total energy  :   -73.2209210 Eh     change       -0.1296351E-04 Eh
 * total energy  :   -73.2209367 Eh     change       -0.1565104E-04 Eh
 * total energy  :   -73.2209466 Eh     change       -0.9978964E-05 Eh
 * total energy  :   -73.2209528 Eh     change       -0.6124961E-05 Eh
 * total energy  :   -73.2209586 Eh     change       -0.5820498E-05 Eh
 * total energy  :   -73.2209613 Eh     change       -0.2745926E-05 Eh
   *** GEOMETRY OPTIMIZATION CONVERGED AFTER 22 ITERATIONS ***

 final structure:
================
66
 xtb: 6.7.1 (edcfbbe)
C            1.16066763965929        0.69714078247711        0.03793861041782
C            1.11463269033371        0.05386512091996       -1.34245544674943
C            1.40312246656514       -1.44733186533427       -1.31874708457457
C            0.39090409894443       -2.28958840271388       -0.53913236568148
C           -1.04675364125031       -2.21384968811760       -1.05440074254644
C           -1.24118304674636       -2.65746045422523       -2.50566623943572
C           -0.82633998379778       -4.09953560530462       -2.80187727753531
C           -1.55829817362129       -5.16566759576308       -1.98403040188067
C           -3.07984083805457       -5.17163993613237       -2.14248288983541
C           -3.58139022344204       -5.40295654548988       -3.56934159923836
C           -3.13520588521772       -6.72056665311783       -4.20651308831183
C           -3.55252619234309       -7.98064494803496       -3.44537134432938
C           -5.06146591882864       -8.15354760414552       -3.25949557495088
C           -5.86802972878093       -8.22538830822251       -4.55772204969043
C           -5.46428160294242       -9.35480240468375       -5.50933599785858
C           -5.54440213050690      -10.76179651852141       -4.91064058624584
C           -6.93689894113201      -11.18228120625241       -4.44221873710015
C           -7.95607444621413      -11.35005168759360       -5.57999242033253
N           -7.60720624209159      -12.48374006301772       -6.41379412392104
C           -6.83723248003404      -12.31195823711395       -7.49757622933967
C           -6.41997644715681      -13.38572210011073       -8.25505448775965
C           -6.80438715323581      -14.66987689935953       -7.88846634232994
C           -7.60619298650270      -14.82755820519272       -6.76269644978529
C           -7.98715943378421      -13.71628242079036       -6.04452405825786
H            0.35938953553161        0.32413628238910        0.67105638933160
H            1.05127604451325        1.77599282023302       -0.04515280367928
H            2.11040184256694        0.48671660250227        0.52525793290581
H            0.14015569608589        0.23713839984785       -1.79899811031304
H            1.86360999620182        0.53338329737488       -1.97802311462746
H            1.45386264057619       -1.80983444022915       -2.34779759952821
H            2.38764493530519       -1.60343492638078       -0.87010190976823
H            0.72494218349459       -3.32938580967647       -0.55589264134351
H            0.39666244639314       -1.97151298779421        0.50546348485281
H           -1.67371295390140       -2.82923051666884       -0.40501938121814
H           -1.40517648684304       -1.18653985486613       -0.96302840742197
H           -2.29356342246988       -2.52456793580871       -2.76641717180486
H           -0.66719254262481       -1.99692756694207       -3.15897979135643
H           -0.98739942972700       -4.28876273159433       -3.86576348411611
H            0.24449299765173       -4.20816349669101       -2.61847999416166
H           -1.16165191963034       -6.14399934119296       -2.26492677306027
H           -1.32838038677137       -5.02321472222050       -0.92624767751141
H           -3.48879914621111       -5.94313717195416       -1.48595521584841
H           -3.47884371245559       -4.21695068388750       -1.79486662217715
H           -4.67288447999968       -5.35587628682653       -3.56001726352101
H           -3.23529811178791       -4.58648197655694       -4.20579478364466
H           -3.53263793158308       -6.76071776769663       -5.22362120142516
H           -2.04720630007345       -6.72414652184244       -4.29241424565391
H           -3.14658310812214       -8.84927990048713       -3.96986851470289
H           -3.09209406991339       -7.96652970145081       -2.45635095523141
H           -5.23521415187409       -9.05630476931180       -2.66867561926497
H           -5.44482453747065       -7.31645002262862       -2.67463657123812
H           -6.92678295988606       -8.31840718503972       -4.30270388143680
H           -5.75718778385242       -7.28292286640119       -5.09538682737342
H           -6.09149506923384       -9.28468457574809       -6.40281417232293
H           -4.43644120014437       -9.19057856328829       -5.83420676062246
H           -5.16487844651968      -11.48373828428307       -5.64113374324867
H           -4.87747587377115      -10.80973799084456       -4.05008626656750
H           -6.86290875857302      -12.12381223688821       -3.89331226512049
H           -7.32950113814427      -10.43198492144756       -3.75746155526633
H           -8.94911940372609      -11.51610543458257       -5.15841733001092
H           -7.98211256454337      -10.44791166625528       -6.19165735831438
H           -6.56801042017729      -11.29936955420611       -7.75743853741938
H           -5.80206953581050      -13.21697324529308       -9.12214961968661
H           -6.49118184040912      -15.52494817886271       -8.46547974722830
H           -7.93275495643047      -15.80479992533422       -6.44583565618828
H           -8.60683707546196      -13.79612219532606       -5.16373730639509

          :  Hamiltonian                  GFN2-xTB          :
         :: total energy             -73.220961339523 Eh    ::
         :: gradient norm              0.000243002065 Eh/a0 ::
         :: HOMO-LUMO gap              0.182813792366 eV    ::
         :: SCC energy               -74.358190595160 Eh    ::
         :: -> dispersion             -0.056784662031 Eh    ::
         :: repulsion energy           1.137229255637 Eh    ::

    * Orbital Energies and Occupations

         #    Occupation            Energy/Eh            Energy/eV
      -------------------------------------------------------------
         1        2.0000           -0.8674629             -23.6049
       ...           ...                  ...                  ...
        57        2.0000           -0.5050667             -13.7436
        58        2.0000           -0.5011343             -13.6366
        59        2.0000           -0.4976170             -13.5408
        60        2.0000           -0.4916662             -13.3789
        61        2.0000           -0.4866802             -13.2432
        62        2.0000           -0.4842901             -13.1782
        63        2.0000           -0.4801514             -13.0656
        64        2.0000           -0.4719955             -12.8437
        65        2.0000           -0.4707441             -12.8096
        66        2.0000           -0.4685283             -12.7493
        67        2.0000           -0.4627213             -12.5913
        68        1.9881           -0.4557095             -12.4005
        69        1.9490           -0.4543052             -12.3623 (HOMO)
        70        0.0629           -0.4475869             -12.1795 (LUMO)
        71                         -0.4165976             -11.3362
        72                         -0.2966976              -8.0736
        73                         -0.1586831              -4.3180
        74                         -0.0734819              -1.9995
        75                         -0.0578777              -1.5749
        76                         -0.0394670              -1.0740
        77                         -0.0318616              -0.8670
        78                         -0.0189170              -0.5148
        79                         -0.0099004              -0.2694
        80                         -0.0023519              -0.0640
       ...                                ...                  ...
       138                          0.4584186              12.4742
      -------------------------------------------------------------
                  HL-Gap            0.0067183 Eh            0.1828 eV

     #   Z          covCN         q      C6AA      α(0)
     1   6 C        3.751    -0.103    22.521     6.768
     2   6 C        3.799    -0.052    21.512     6.604
     3   6 C        3.801    -0.057    21.601     6.617
     4   6 C        3.800    -0.057    21.595     6.616
     5   6 C        3.800    -0.056    21.590     6.616
     6   6 C        3.800    -0.057    21.591     6.616
     7   6 C        3.800    -0.057    21.594     6.616
     8   6 C        3.800    -0.057    21.596     6.617
     9   6 C        3.800    -0.057    21.606     6.618
    10   6 C        3.800    -0.057    21.608     6.618
    11   6 C        3.800    -0.058    21.610     6.619
    12   6 C        3.800    -0.059    21.628     6.621
    13   6 C        3.800    -0.060    21.662     6.627
    14   6 C        3.800    -0.061    21.680     6.629
    15   6 C        3.800    -0.061    21.676     6.629
    16   6 C        3.800    -0.066    21.759     6.642
    17   6 C        3.801    -0.069    21.813     6.650
    18   6 C        3.758    -0.035    21.247     6.572
    19   7 N        2.749     0.106    19.423     6.546
    20   6 C        2.889     0.031    27.297     8.566
    21   6 C        2.915    -0.013    28.335     8.729
    22   6 C        2.924     0.008    27.841     8.653
    23   6 C        2.915    -0.012    28.314     8.726
    24   6 C        2.891     0.030    27.336     8.572
    25   1 H        0.925     0.037     2.495     2.470
    26   1 H        0.925     0.034     2.524     2.484
    27   1 H        0.925     0.036     2.496     2.471
    28   1 H        0.924     0.034     2.528     2.486
    29   1 H        0.924     0.032     2.564     2.504
    30   1 H        0.924     0.032     2.555     2.500
    31   1 H        0.924     0.033     2.549     2.497
    32   1 H        0.924     0.032     2.562     2.503
    33   1 H        0.924     0.037     2.492     2.469
    34   1 H        0.924     0.032     2.563     2.504
    35   1 H        0.924     0.035     2.520     2.482
    36   1 H        0.924     0.030     2.588     2.516
    37   1 H        0.924     0.035     2.519     2.482
    38   1 H        0.924     0.029     2.603     2.523
    39   1 H        0.924     0.033     2.542     2.493
    40   1 H        0.924     0.027     2.622     2.532
    41   1 H        0.924     0.034     2.533     2.489
    42   1 H        0.924     0.027     2.628     2.535
    43   1 H        0.924     0.034     2.527     2.486
    44   1 H        0.924     0.026     2.642     2.542
    45   1 H        0.924     0.035     2.519     2.482
    46   1 H        0.924     0.024     2.670     2.555
    47   1 H        0.924     0.036     2.506     2.475
    48   1 H        0.924     0.023     2.685     2.562
    49   1 H        0.924     0.039     2.463     2.454
    50   1 H        0.924     0.025     2.666     2.553
    51   1 H        0.924     0.043     2.412     2.429
    52   1 H        0.924     0.025     2.664     2.552
    53   1 H        0.924     0.046     2.367     2.406
    54   1 H        0.924     0.017     2.777     2.606
    55   1 H        0.924     0.050     2.318     2.381
    56   1 H        0.924     0.023     2.693     2.566
    57   1 H        0.925     0.065     2.136     2.286
    58   1 H        0.924     0.049     2.328     2.386
    59   1 H        0.925     0.083     1.953     2.185
    60   1 H        0.924     0.086     1.923     2.169
    61   1 H        0.924     0.094     1.844     2.123
    62   1 H        0.926     0.107     1.723     2.053
    63   1 H        0.926     0.102     1.763     2.076
    64   1 H        0.926     0.101     1.773     2.082
    65   1 H        0.926     0.103     1.759     2.074
    66   1 H        0.926     0.103     1.754     2.071

Wiberg/Mayer (AO) data.
largest (>0.10) Wiberg bond orders for each atom

     #   Z sym  total        # sym  WBO       # sym  WBO       # sym  WBO
 ---------------------------------------------------------------------------
     1   6 C    3.992 --     2 C    1.020    26 H    0.987    27 H    0.986
                            25 H    0.983
     2   6 C    3.988 --     1 C    1.020     3 C    1.007    29 H    0.974
                            28 H    0.972
     3   6 C    3.986 --     2 C    1.007     4 C    1.003    31 H    0.975
                            30 H    0.972
     4   6 C    3.984 --     5 C    1.007     3 C    1.003    32 H    0.972
                            33 H    0.970
     5   6 C    3.986 --     4 C    1.007     6 C    1.005    35 H    0.972
                            34 H    0.971
     6   6 C    3.988 --     7 C    1.007     5 C    1.005    36 H    0.974
                            37 H    0.971
     7   6 C    3.992 --     6 C    1.007     8 C    1.006    39 H    0.974
                            38 H    0.973
     8   6 C    3.993 --     9 C    1.008     7 C    1.006    40 H    0.975
                            41 H    0.973
     9   6 C    3.996 --     8 C    1.008    10 C    1.007    42 H    0.974
                            43 H    0.974
    10   6 C    3.996 --    11 C    1.008     9 C    1.007    44 H    0.975
                            45 H    0.974
    11   6 C    3.997 --    10 C    1.008    12 C    1.008    46 H    0.975
                            47 H    0.974
    12   6 C    3.997 --    13 C    1.008    11 C    1.008    48 H    0.975
                            49 H    0.974
    13   6 C    3.996 --    14 C    1.008    12 C    1.008    50 H    0.975
                            51 H    0.973
    14   6 C    3.995 --    13 C    1.008    15 C    1.007    52 H    0.975
                            53 H    0.973
    15   6 C    3.995 --    16 C    1.007    14 C    1.007    54 H    0.973
                            55 H    0.973
    16   6 C    3.993 --    17 C    1.010    15 C    1.007    56 H    0.972
                            57 H    0.966
    17   6 C    3.979 --    16 C    1.010    58 H    0.974    18 C    0.972
                            59 H    0.960
    18   6 C    3.935 --    17 C    0.972    19 N    0.967    60 H    0.963
                            61 H    0.960
    19   7 N    3.731 --    20 C    1.312    24 C    1.308    18 C    0.967
    20   6 C    3.938 --    21 C    1.465    19 N    1.312    62 H    0.953
    21   6 C    3.979 --    20 C    1.465    22 C    1.417    63 H    0.960
    22   6 C    3.935 --    21 C    1.417    23 C    1.408    64 H    0.963
    23   6 C    3.979 --    24 C    1.476    22 C    1.408    65 H    0.960
    24   6 C    3.939 --    23 C    1.476    19 N    1.308    66 H    0.956
    25   1 H    0.996 --     1 C    0.983
    26   1 H    0.998 --     1 C    0.987
    27   1 H    0.997 --     1 C    0.986
    28   1 H    0.995 --     2 C    0.972
    29   1 H    0.994 --     2 C    0.974
    30   1 H    0.995 --     3 C    0.972
    31   1 H    0.996 --     3 C    0.975
    32   1 H    0.996 --     4 C    0.972
    33   1 H    0.993 --     4 C    0.970
    34   1 H    0.994 --     5 C    0.971
    35   1 H    0.996 --     5 C    0.972
    36   1 H    0.997 --     6 C    0.974
    37   1 H    0.995 --     6 C    0.971
    38   1 H    0.997 --     7 C    0.973
    39   1 H    0.998 --     7 C    0.974
    40   1 H    0.999 --     8 C    0.975
    41   1 H    0.997 --     8 C    0.973
    42   1 H    0.998 --     9 C    0.974
    43   1 H    0.999 --     9 C    0.974
    44   1 H    0.999 --    10 C    0.975
    45   1 H    0.998 --    10 C    0.974
    46   1 H    0.999 --    11 C    0.975
    47   1 H    0.999 --    11 C    0.974
    48   1 H    0.999 --    12 C    0.975
    49   1 H    0.998 --    12 C    0.974
    50   1 H    0.999 --    13 C    0.975
    51   1 H    0.998 --    13 C    0.973
    52   1 H    0.999 --    14 C    0.975
    53   1 H    0.998 --    14 C    0.973
    54   1 H    1.000 --    15 C    0.973
    55   1 H    0.997 --    15 C    0.973
    56   1 H    0.999 --    16 C    0.972
    57   1 H    0.995 --    16 C    0.966
    58   1 H    0.998 --    17 C    0.974
    59   1 H    0.991 --    17 C    0.960
    60   1 H    0.992 --    18 C    0.963
    61   1 H    0.991 --    18 C    0.960
    62   1 H    0.989 --    20 C    0.953
    63   1 H    0.989 --    21 C    0.960
    64   1 H    0.990 --    22 C    0.963
    65   1 H    0.989 --    23 C    0.960
    66   1 H    0.989 --    24 C    0.956
 ---------------------------------------------------------------------------

molecular dipole:
                 x           y           z       tot (Debye)
 q only:      -12.633     -22.487     -11.536
   full:      -12.720     -22.564     -11.588      72.126

           -------------------------------------------------
          | TOTAL ENERGY              -73.220961339523 Eh   |
          | GRADIENT NORM               0.000243002065 Eh/α |
          | HOMO-LUMO GAP               0.182813792366 eV   |
           -------------------------------------------------

 * finished run on 2024/12/20 at 06:50:47.988
