   * xtb version 6.7.1 (edcfbbe) compiled by 'conda@3ef47c1a292c' on 2024-11-25

   ID    Z sym.   atoms
    1    6 C      1-3, 5-7, 9, 11
    2    7 N      4
    3    8 O      8, 10
    4    1 H      12-29

          program call               : xtb C0629.xyz --opt --namespace C0629 --charge +1
          :  Hamiltonian                  GFN2-xTB          :
 * total energy  :   -36.9605757 Eh     change       -0.5403322E-09 Eh
 * total energy  :   -36.9682714 Eh     change       -0.7695707E-02 Eh
 * total energy  :   -36.9702843 Eh     change       -0.2012937E-02 Eh
 * total energy  :   -36.9706722 Eh     change       -0.3878611E-03 Eh
 * total energy  :   -36.9710728 Eh     change       -0.4005947E-03 Eh
 * total energy  :   -36.9713716 Eh     change       -0.2988777E-03 Eh
 * total energy  :   -36.9718227 Eh     change       -0.4510470E-03 Eh
 * total energy  :   -36.9720093 Eh     change       -0.1865813E-03 Eh
 * total energy  :   -36.9722250 Eh     change       -0.2157204E-03 Eh
 * total energy  :   -36.9723386 Eh     change       -0.1136409E-03 Eh
 * total energy  :   -36.9725973 Eh     change       -0.7114958E-04 Eh
 * total energy  :   -36.9726530 Eh     change       -0.5572569E-04 Eh
 * total energy  :   -36.9726861 Eh     change       -0.3307856E-04 Eh
 * total energy  :   -36.9727125 Eh     change       -0.2636611E-04 Eh
 * total energy  :   -36.9727257 Eh     change       -0.1317299E-04 Eh
 * total energy  :   -36.9727372 Eh     change       -0.1152588E-04 Eh
 * total energy  :   -36.9727434 Eh     change       -0.6169089E-05 Eh
 * total energy  :   -36.9727488 Eh     change       -0.5420651E-05 Eh
 * total energy  :   -36.9727530 Eh     change       -0.4210518E-05 Eh
   *** GEOMETRY OPTIMIZATION CONVERGED AFTER 21 ITERATIONS ***

 final structure:
================
29
 xtb: 6.7.1 (edcfbbe)
C            0.87419342232436       -0.20807945761645       -0.08635079998607
C            0.23950296952000       -0.73436542638825        1.19939950381758
C            0.83356143955812       -0.20782989565019        2.53230931484377
N            0.69010637414862        1.20244111426600        3.01545665352303
C           -0.67005214617868        1.46347755890618        3.52377603601307
C            1.63755718332263        1.36266758810968        4.13936647959172
C            1.01843012657268        2.20010188416182        1.98053702851098
O           -1.18983455766211       -0.77793277681895        1.15913145309836
C           -1.93635594610961        0.22823699079029        0.66941765292438
O           -1.50520604800568        1.33925153453904        0.48248393921349
C           -3.34354676680627       -0.21018644926596        0.44041444626041
H            0.57532931262898        0.80275069808814       -0.33778463166871
H            0.56855985934838       -0.85265780054767       -0.90779820131323
H            1.95625361853343       -0.25913227191202       -0.00796058915192
H            0.48707209672710       -1.80554023929377        1.25500741885690
H            0.42717155296959       -0.84295232299311        3.32373490148353
H            1.90453642706698       -0.40870891374584        2.45375400500102
H           -0.70859909643994        2.45264916507506        3.97725108386608
H           -1.39022223261350        1.44157539205187        2.71171483314345
H           -0.94667132814237        0.72282526904989        4.27187551968033
H            2.66340850487858        1.25884259335233        3.79067071513649
H            1.52369838901746        2.35085727168254        4.58156839296029
H            1.45040821978911        0.61654886994958        4.90952943445850
H            1.97849493784468        1.96876450727996        1.52483355508209
H            0.23811821183054        2.21380737755562        1.22026407784413
H            1.07259883474043        3.18943794040330        2.43105345795471
H           -3.39800475535900       -0.68620880480588       -0.53824794522199
H           -3.64399904889217       -0.94102663257910        1.18533980271105
H           -4.00766955461080        0.64943523635850        0.44159246136450

          :  Hamiltonian                  GFN2-xTB          :
         :: total energy             -36.972752988190 Eh    ::
         :: gradient norm              0.000686220211 Eh/a0 ::
         :: HOMO-LUMO gap              4.959589511432 eV    ::
         :: SCC energy               -37.414175494096 Eh    ::
         :: -> dispersion             -0.021596079113 Eh    ::
         :: repulsion energy           0.441422505906 Eh    ::

    * Orbital Energies and Occupations

         #    Occupation            Energy/Eh            Energy/eV
      -------------------------------------------------------------
         1        2.0000           -0.8788577             -23.9149
       ...           ...                  ...                  ...
        21        2.0000           -0.6532771             -17.7766
        22        2.0000           -0.6468857             -17.6027
        23        2.0000           -0.6399801             -17.4147
        24        2.0000           -0.6362756             -17.3139
        25        2.0000           -0.6347575             -17.2726
        26        2.0000           -0.6321416             -17.2014
        27        2.0000           -0.6075326             -16.5318
        28        2.0000           -0.6063245             -16.4989
        29        2.0000           -0.5954030             -16.2017
        30        2.0000           -0.5921932             -16.1144
        31        2.0000           -0.5891253             -16.0309
        32        2.0000           -0.5814836             -15.8230
        33        2.0000           -0.5457520             -14.8507 (HOMO)
        34                         -0.3634904              -9.8911 (LUMO)
        35                         -0.2383944              -6.4870
        36                         -0.1682688              -4.5788
        37                         -0.1631547              -4.4397
        38                         -0.1524109              -4.1473
        39                         -0.1387961              -3.7768
        40                         -0.0915866              -2.4922
        41                         -0.0550316              -1.4975
        42                         -0.0256962              -0.6992
        43                         -0.0183078              -0.4982
        44                          0.0123390               0.3358
       ...                                ...                  ...
        62                          0.5195250              14.1370
      -------------------------------------------------------------
                  HL-Gap            0.1822616 Eh            4.9596 eV

     #   Z          covCN         q      C6AA      α(0)
     1   6 C        3.750    -0.137    23.198     6.869
     2   6 C        3.728     0.110    18.871     6.202
     3   6 C        3.758    -0.053    21.570     6.621
     4   7 N        3.621     0.152    18.677     6.419
     5   6 C        3.723    -0.095    22.438     6.765
     6   6 C        3.736    -0.101    22.512     6.771
     7   6 C        3.719    -0.110    22.724     6.809
     8   8 O        1.704    -0.273    18.533     5.812
     9   6 C        2.697     0.367    20.772     7.459
    10   8 O        0.856    -0.423    22.144     6.309
    11   6 C        3.754    -0.157    23.594     6.926
    12   1 H        0.925     0.084     1.943     2.180
    13   1 H        0.925     0.077     2.015     2.220
    14   1 H        0.925     0.060     2.194     2.317
    15   1 H        0.923     0.090     1.879     2.144
    16   1 H        0.924     0.093     1.852     2.128
    17   1 H        0.924     0.093     1.850     2.127
    18   1 H        0.925     0.098     1.803     2.100
    19   1 H        0.925     0.111     1.685     2.030
    20   1 H        0.925     0.091     1.865     2.136
    21   1 H        0.925     0.099     1.796     2.096
    22   1 H        0.925     0.104     1.752     2.070
    23   1 H        0.925     0.098     1.804     2.101
    24   1 H        0.925     0.095     1.828     2.114
    25   1 H        0.925     0.137     1.484     1.905
    26   1 H        0.925     0.096     1.819     2.109
    27   1 H        0.925     0.107     1.722     2.052
    28   1 H        0.925     0.091     1.866     2.136
    29   1 H        0.925     0.095     1.830     2.116

Wiberg/Mayer (AO) data.
largest (>0.10) Wiberg bond orders for each atom

     #   Z sym  total        # sym  WBO       # sym  WBO       # sym  WBO
 ---------------------------------------------------------------------------
     1   6 C    3.981 --     2 C    1.004    14 H    0.980    13 H    0.979
                            12 H    0.974
     2   6 C    3.931 --     1 C    1.004     3 C    0.979    15 H    0.947
                             8 O    0.940
     3   6 C    3.938 --     2 C    0.979    16 H    0.966    17 H    0.965
                             4 N    0.933
     4   7 N    3.819 --     5 C    0.957     6 C    0.956     7 C    0.951
                             3 C    0.933
     5   6 C    3.923 --    20 H    0.976    18 H    0.975    19 H    0.965
                             4 N    0.957
     6   6 C    3.928 --    23 H    0.976    21 H    0.975    22 H    0.973
                             4 N    0.956
     7   6 C    3.910 --    24 H    0.976    26 H    0.975     4 N    0.951
                            25 H    0.950
     8   8 O    2.294 --     9 C    1.108     2 C    0.940    10 O    0.160
     9   6 C    3.907 --    10 O    1.724     8 O    1.108    11 C    1.011
    10   8 O    2.033 --     9 C    1.724     8 O    0.160
    11   6 C    3.984 --     9 C    1.011    29 H    0.973    28 H    0.967
                            27 H    0.937
    12   1 H    0.993 --     1 C    0.974
    13   1 H    0.994 --     1 C    0.979
    14   1 H    0.996 --     1 C    0.980
    15   1 H    0.992 --     2 C    0.947
    16   1 H    0.991 --     3 C    0.966
    17   1 H    0.991 --     3 C    0.965
    18   1 H    0.990 --     5 C    0.975
    19   1 H    0.988 --     5 C    0.965
    20   1 H    0.992 --     5 C    0.976
    21   1 H    0.990 --     6 C    0.975
    22   1 H    0.989 --     6 C    0.973
    23   1 H    0.990 --     6 C    0.976
    24   1 H    0.991 --     7 C    0.976
    25   1 H    0.981 --     7 C    0.950
    26   1 H    0.991 --     7 C    0.975
    27   1 H    0.988 --    11 C    0.937
    28   1 H    0.991 --    11 C    0.967
    29   1 H    0.991 --    11 C    0.973
 ---------------------------------------------------------------------------

molecular dipole:
                 x           y           z       tot (Debye)
 q only:        0.942       1.301       5.209
   full:        0.962       1.152       5.278      13.948

           -------------------------------------------------
          | TOTAL ENERGY              -36.972752988190 Eh   |
          | GRADIENT NORM               0.000686220211 Eh/α |
          | HOMO-LUMO GAP               4.959589511432 eV   |
           -------------------------------------------------

 * finished run on 2024/12/20 at 06:50:59.419
