   * xtb version 6.7.1 (edcfbbe) compiled by 'conda@3ef47c1a292c' on 2024-11-25

   ID    Z sym.   atoms
    1    6 C      1-4, 7-11, 13, 15-17, 19-30
    2    8 O      5, 6, 18
    3    7 N      12, 14
    4    1 H      31-57

          program call               : xtb C0637.xyz --opt --namespace C0637 --charge +1
          :  Hamiltonian                  GFN2-xTB          :
 * total energy  :   -84.9694974 Eh     change       -0.2198234E-08 Eh
 * total energy  :   -84.9798724 Eh     change       -0.1037502E-01 Eh
 * total energy  :   -84.9823059 Eh     change       -0.2433488E-02 Eh
 * total energy  :   -84.9830146 Eh     change       -0.7086316E-03 Eh
 * total energy  :   -84.9836575 Eh     change       -0.6429249E-03 Eh
 * total energy  :   -84.9840947 Eh     change       -0.4371960E-03 Eh
 * total energy  :   -84.9845782 Eh     change       -0.4834978E-03 Eh
 * total energy  :   -84.9850908 Eh     change       -0.5126250E-03 Eh
 * total energy  :   -84.9855200 Eh     change       -0.4292263E-03 Eh
 * total energy  :   -84.9858197 Eh     change       -0.2997068E-03 Eh
 * total energy  :   -85.0010350 Eh     change       -0.2424072E-04 Eh
 * total energy  :   -85.0010523 Eh     change       -0.1722593E-04 Eh
 * total energy  :   -85.0010677 Eh     change       -0.1543755E-04 Eh
 * total energy  :   -85.0010850 Eh     change       -0.1726314E-04 Eh
 * total energy  :   -85.0010995 Eh     change       -0.1458723E-04 Eh
 * total energy  :   -85.0011078 Eh     change       -0.8269585E-05 Eh
 * total energy  :   -85.0011143 Eh     change       -0.6497526E-05 Eh
 * total energy  :   -85.0011203 Eh     change       -0.5946915E-05 Eh
 * total energy  :   -85.0011249 Eh     change       -0.4681566E-05 Eh
   *** GEOMETRY OPTIMIZATION CONVERGED AFTER 121 ITERATIONS ***

 final structure:
================
57
 xtb: 6.7.1 (edcfbbe)
C            1.43364731828701       -1.23320604431283       -2.62806161186962
C            1.40820560197234       -2.75376001133204       -2.53322273724770
C            1.89636280579417       -3.25457266159394       -1.17724410404139
C            2.01856476036659       -4.77662009790544       -1.11195518130856
O            2.20871754191746       -5.53833827391299       -2.00572780833436
O            1.82821190864077       -5.17767829383963        0.17069475968177
C            1.62900459205553       -4.04508505111657        1.00283525085091
C            1.04511745083381       -2.97669014306038        0.07174251518508
C           -0.44801333335662       -3.23514308893937       -0.22116709504930
C           -1.26817655765980       -3.41570169371462        1.00400785023264
C           -1.75043181788713       -2.48582802021134        1.87959787012322
N           -2.45471237382759       -3.14360247127819        2.84645097008256
C           -2.43184655914146       -4.44277296145424        2.55376702420298
N           -1.70213041805795       -4.63843957671306        1.45735597557227
C           -1.45929354122608       -5.91501805827697        0.83564427655681
C           -3.37539482108064       -2.55333649471943        3.76841796481827
C           -4.80878980541331       -2.85821021429900        3.22105745371265
O           -4.92004210836367       -3.77231330202778        2.43258543336148
C           -5.88967375119344       -2.00483786748877        3.67091333702133
C           -7.11346058963314       -2.09917941652768        2.98958820622490
C           -8.16793513581136       -1.28308660668027        3.32107455704223
C           -8.04997452917613       -0.34754049838601        4.35425455574798
C           -6.84109290134703       -0.28282011033799        5.05800328167931
C           -5.77714621363167       -1.08881465098434        4.72566507299976
C           -9.15818830976137        0.54905654150526        4.68318945739954
C          -10.47890076781263        0.10123215640847        4.62998907657882
C          -11.52135987470702        0.95629325437181        4.93193603785090
C          -11.26536984338286        2.27330873822712        5.27746815477866
C           -9.95820171885294        2.73055890702760        5.32793289648040
C           -8.91173066567797        1.87585683851322        5.04040191677979
H            0.77159160811913       -0.77834417023698       -1.89390536004406
H            1.11215859021282       -0.91752565164507       -3.61630958699507
H            2.43938438353198       -0.85531817481403       -2.46259689039330
H            0.40417153064785       -3.12422699861141       -2.74214527671452
H            2.06804810535613       -3.17868230279774       -3.29119725528086
H            2.90417013204867       -2.85486184236911       -1.00766891840709
H            2.59369258641399       -3.72065759997647        1.40993363153531
H            0.98464415441987       -4.33782980815559        1.83246956217600
H            1.18474680016715       -1.97546063668245        0.47741287850612
H           -0.84112275640150       -2.38789753979308       -0.78429091763292
H           -0.53557985558492       -4.12702042446255       -0.84249341596931
H           -1.64182271425534       -1.42089791370261        1.87385522502253
H           -2.90463269641388       -5.21496500751511        3.12729015773651
H           -1.82593529876594       -6.70604168032846        1.48549593520012
H           -1.98775262654278       -5.97616337645509       -0.11717285399442
H           -0.39340666700920       -6.06539820620229        0.65755016636990
H           -3.28359294378027       -3.00980001423302        4.75753997373166
H           -3.19195632182194       -1.48228043464543        3.83413899612192
H           -7.19758485527218       -2.81288575581423        2.18402814084402
H           -9.08847920161357       -1.34610900688535        2.76187650515862
H           -6.74991362625929        0.40175956807027        5.88696551030189
H           -4.86879515027160       -1.02182893589529        5.30468757194427
H          -10.68586724532847       -0.92945367075891        4.38265859150290
H          -12.53774902257186        0.59507605506176        4.89661144271197
H          -12.08134354848615        2.94118384784577        5.50638033479230
H           -9.75460166184923        3.75725360127157        5.59090676548816
H           -7.89712804191606        2.24612525261451        5.05795372926777

          :  Hamiltonian                  GFN2-xTB          :
         :: total energy             -85.001124934467 Eh    ::
         :: gradient norm              0.000808574621 Eh/a0 ::
         :: HOMO-LUMO gap              2.072403992559 eV    ::
         :: SCC energy               -86.285100822145 Eh    ::
         :: -> dispersion             -0.059847936517 Eh    ::
         :: repulsion energy           1.283975887677 Eh    ::

    * Orbital Energies and Occupations

         #    Occupation            Energy/Eh            Energy/eV
      -------------------------------------------------------------
         1        2.0000           -0.8750050             -23.8101
       ...           ...                  ...                  ...
        65        2.0000           -0.5472729             -14.8921
        66        2.0000           -0.5451215             -14.8335
        67        2.0000           -0.5326660             -14.4946
        68        2.0000           -0.5307187             -14.4416
        69        2.0000           -0.5244182             -14.2701
        70        2.0000           -0.5237625             -14.2523
        71        2.0000           -0.5223131             -14.2129
        72        2.0000           -0.5172225             -14.0743
        73        2.0000           -0.5056126             -13.7584
        74        2.0000           -0.5035329             -13.7018
        75        2.0000           -0.4983264             -13.5602
        76        2.0000           -0.4845009             -13.1839
        77        2.0000           -0.4781672             -13.0116 (HOMO)
        78                         -0.4020077             -10.9392 (LUMO)
        79                         -0.3852236             -10.4825
        80                         -0.3530945              -9.6082
        81                         -0.3319799              -9.0336
        82                         -0.3254623              -8.8563
        83                         -0.3250343              -8.8446
        84                         -0.3018359              -8.2134
        85                         -0.2805480              -7.6341
        86                         -0.1991330              -5.4187
        87                         -0.1630415              -4.4366
        88                         -0.1612208              -4.3870
       ...                                ...                  ...
       147                          0.6031241              16.4118
      -------------------------------------------------------------
                  HL-Gap            0.0761594 Eh            2.0724 eV

     #   Z          covCN         q      C6AA      α(0)
     1   6 C        3.752    -0.111    22.682     6.792
     2   6 C        3.801    -0.061    21.674     6.628
     3   6 C        3.891    -0.056    21.533     6.597
     4   6 C        2.785     0.351    21.038     7.513
     5   8 O        0.856    -0.346    20.629     6.089
     6   8 O        1.706    -0.269    18.464     5.802
     7   6 C        3.785     0.065    19.512     6.292
     8   6 C        3.877    -0.029    21.044     6.522
     9   6 C        3.806    -0.076    21.955     6.670
    10   6 C        3.093     0.043    26.931     8.506
    11   6 C        3.071    -0.027    28.610     8.770
    12   7 N        2.861     0.060    20.187     6.673
    13   6 C        3.081     0.059    26.587     8.453
    14   7 N        2.865     0.054    20.305     6.692
    15   6 C        3.692    -0.082    22.260     6.751
    16   6 C        3.744    -0.047    21.494     6.614
    17   6 C        2.824     0.223    23.302     7.910
    18   8 O        0.857    -0.367    21.039     6.150
    19   6 C        2.970    -0.023    28.569     8.767
    20   6 C        2.925    -0.012    28.307     8.725
    21   6 C        2.920    -0.027    28.685     8.783
    22   6 C        2.977     0.036    27.185     8.553
    23   6 C        2.922    -0.028    28.702     8.786
    24   6 C        2.916    -0.029    28.718     8.788
    25   6 C        2.977     0.008    27.834     8.654
    26   6 C        2.924    -0.028    28.702     8.786
    27   6 C        2.918    -0.023    28.588     8.768
    28   6 C        2.920    -0.020    28.499     8.754
    29   6 C        2.918    -0.024    28.603     8.770
    30   6 C        2.924    -0.029    28.721     8.789
    31   1 H        0.925     0.033     2.551     2.498
    32   1 H        0.925     0.055     2.263     2.353
    33   1 H        0.925     0.048     2.348     2.396
    34   1 H        0.924     0.043     2.407     2.426
    35   1 H        0.924     0.070     2.082     2.257
    36   1 H        0.924     0.076     2.021     2.223
    37   1 H        0.924     0.061     2.190     2.314
    38   1 H        0.924     0.050     2.325     2.384
    39   1 H        0.925     0.057     2.238     2.340
    40   1 H        0.924     0.087     1.911     2.162
    41   1 H        0.924     0.079     1.991     2.206
    42   1 H        0.926     0.091     1.865     2.135
    43   1 H        0.926     0.116     1.644     2.005
    44   1 H        0.925     0.095     1.835     2.118
    45   1 H        0.924     0.100     1.780     2.087
    46   1 H        0.924     0.113     1.669     2.020
    47   1 H        0.924     0.097     1.817     2.108
    48   1 H        0.925     0.095     1.836     2.119
    49   1 H        0.926     0.069     2.094     2.263
    50   1 H        0.926     0.062     2.178     2.308
    51   1 H        0.926     0.058     2.223     2.332
    52   1 H        0.926     0.039     2.460     2.453
    53   1 H        0.926     0.041     2.432     2.439
    54   1 H        0.926     0.048     2.340     2.392
    55   1 H        0.926     0.050     2.318     2.381
    56   1 H        0.926     0.047     2.359     2.402
    57   1 H        0.926     0.037     2.486     2.466

Wiberg/Mayer (AO) data.
largest (>0.10) Wiberg bond orders for each atom

     #   Z sym  total        # sym  WBO       # sym  WBO       # sym  WBO
 ---------------------------------------------------------------------------
     1   6 C    3.994 --     2 C    1.019    31 H    0.987    33 H    0.986
                            32 H    0.985
     2   6 C    3.989 --     1 C    1.019     3 C    0.993    34 H    0.974
                            35 H    0.970
     3   6 C    3.988 --     2 C    0.993     8 C    0.979     4 C    0.946
                            36 H    0.936
     4   6 C    3.914 --     5 O    1.822     6 O    1.082     3 C    0.946
     5   8 O    2.108 --     4 C    1.822     6 O    0.160
     6   8 O    2.282 --     4 C    1.082     7 C    0.962     5 O    0.160
     7   6 C    3.938 --     8 C    0.988    38 H    0.969    37 H    0.966
                             6 O    0.962
     8   6 C    3.991 --     7 C    0.988     3 C    0.979     9 C    0.971
                            39 H    0.969
     9   6 C    3.986 --    10 C    1.026     8 C    0.971    41 H    0.962
                            40 H    0.955
    10   6 C    3.952 --    11 C    1.561    14 N    1.185     9 C    1.026
    11   6 C    3.940 --    10 C    1.561    12 N    1.199    42 H    0.964
    12   7 N    3.697 --    13 C    1.342    11 C    1.199    16 C    0.997
    13   6 C    3.945 --    14 N    1.352    12 N    1.342    43 H    0.953
    14   7 N    3.698 --    13 C    1.352    10 C    1.185    15 C    0.989
    15   6 C    3.933 --    14 N    0.989    44 H    0.975    45 H    0.960
                            46 H    0.959
    16   6 C    3.945 --    12 N    0.997    48 H    0.961    47 H    0.946
                            17 C    0.908
    17   6 C    3.919 --    18 O    1.782    19 C    1.104    16 C    0.908
    18   8 O    2.090 --    17 C    1.782
    19   6 C    3.975 --    24 C    1.332    20 C    1.326    17 C    1.104
    20   6 C    3.982 --    21 C    1.495    19 C    1.326    49 H    0.964
    21   6 C    3.988 --    20 C    1.495    22 C    1.357    50 H    0.964
    22   6 C    3.982 --    21 C    1.357    23 C    1.348    25 C    1.073
    23   6 C    3.990 --    24 C    1.502    22 C    1.348    51 H    0.965
    24   6 C    3.989 --    23 C    1.502    19 C    1.332    52 H    0.966
    25   6 C    3.983 --    26 C    1.373    30 C    1.372    22 C    1.073
                            28 C    0.100
    26   6 C    3.984 --    27 C    1.457    25 C    1.373    53 H    0.967
                            29 C    0.106
    27   6 C    3.990 --    26 C    1.457    28 C    1.430    54 H    0.969
                            30 C    0.106
    28   6 C    3.975 --    27 C    1.430    29 C    1.429    55 H    0.970
                            25 C    0.100
    29   6 C    3.990 --    30 C    1.458    28 C    1.429    56 H    0.969
                            26 C    0.106
    30   6 C    3.984 --    29 C    1.458    25 C    1.372    57 H    0.968
                            27 C    0.106
    31   1 H    0.999 --     1 C    0.987
    32   1 H    0.997 --     1 C    0.985
    33   1 H    0.998 --     1 C    0.986
    34   1 H    0.998 --     2 C    0.974
    35   1 H    0.995 --     2 C    0.970
    36   1 H    0.993 --     3 C    0.936
    37   1 H    0.996 --     7 C    0.966
    38   1 H    0.997 --     7 C    0.969
    39   1 H    0.997 --     8 C    0.969
    40   1 H    0.992 --     9 C    0.955
    41   1 H    0.993 --     9 C    0.962
    42   1 H    0.991 --    11 C    0.964
    43   1 H    0.986 --    13 C    0.953
    44   1 H    0.991 --    15 C    0.975
    45   1 H    0.989 --    15 C    0.960
    46   1 H    0.986 --    15 C    0.959
    47   1 H    0.989 --    16 C    0.946
    48   1 H    0.990 --    16 C    0.961
    49   1 H    0.995 --    20 C    0.964
    50   1 H    0.995 --    21 C    0.964
    51   1 H    0.996 --    23 C    0.965
    52   1 H    0.998 --    24 C    0.966
    53   1 H    0.998 --    26 C    0.967
    54   1 H    0.997 --    27 C    0.969
    55   1 H    0.997 --    28 C    0.970
    56   1 H    0.997 --    29 C    0.969
    57   1 H    0.999 --    30 C    0.968
 ---------------------------------------------------------------------------

molecular dipole:
                 x           y           z       tot (Debye)
 q only:       -6.194      -3.873       5.193
   full:       -6.112      -3.695       5.649      23.146

           -------------------------------------------------
          | TOTAL ENERGY              -85.001124934467 Eh   |
          | GRADIENT NORM               0.000808574621 Eh/α |
          | HOMO-LUMO GAP               2.072403992559 eV   |
           -------------------------------------------------

 * finished run on 2024/12/20 at 06:51:27.073
