   * xtb version 6.7.1 (edcfbbe) compiled by 'conda@3ef47c1a292c' on 2024-11-25

   ID    Z sym.   atoms
    1    6 C      1-18, 20-28
    2    7 N      19
    3    1 H      29-72

          program call               : xtb C0632.xyz --opt --namespace C0632 --charge +1
          :  Hamiltonian                  GFN2-xTB          :
 * total energy  :   -82.8171330 Eh     change       -0.2534236E-07 Eh
 * total energy  :   -82.8224788 Eh     change       -0.5345781E-02 Eh
 * total energy  :   -82.8233863 Eh     change       -0.9074478E-03 Eh
 * total energy  :   -82.8234823 Eh     change       -0.9603149E-04 Eh
 * total energy  :   -82.8235742 Eh     change       -0.9195786E-04 Eh
 * total energy  :   -82.8236282 Eh     change       -0.5399648E-04 Eh
 * total energy  :   -82.8237142 Eh     change       -0.8594732E-04 Eh
 * total energy  :   -82.8238444 Eh     change       -0.1301917E-03 Eh
 * total energy  :   -82.8239606 Eh     change       -0.1162012E-03 Eh
 * total energy  :   -82.8240386 Eh     change       -0.7804411E-04 Eh
 * total energy  :   -82.8245601 Eh     change       -0.2423663E-04 Eh
 * total energy  :   -82.8245808 Eh     change       -0.2066589E-04 Eh
 * total energy  :   -82.8245916 Eh     change       -0.1081285E-04 Eh
 * total energy  :   -82.8246093 Eh     change       -0.1763934E-04 Eh
 * total energy  :   -82.8246185 Eh     change       -0.9256080E-05 Eh
 * total energy  :   -82.8246269 Eh     change       -0.8379644E-05 Eh
 * total energy  :   -82.8246340 Eh     change       -0.7070260E-05 Eh
 * total energy  :   -82.8246396 Eh     change       -0.5598132E-05 Eh
 * total energy  :   -82.8246445 Eh     change       -0.4956485E-05 Eh
   *** GEOMETRY OPTIMIZATION CONVERGED AFTER 28 ITERATIONS ***

 final structure:
================
72
 xtb: 6.7.1 (edcfbbe)
C            1.26928027335745       -0.47868468623864       -0.63223673554007
C            1.25066932148396       -1.34778669916430        0.61919194268619
C            1.41993110631803       -0.54856741158794        1.91171587585203
C            0.31335130877660        0.47062285817615        2.19085516941877
C           -1.09317199842544       -0.11851676532639        2.30701597040204
C           -1.26650870294800       -1.16938396449344        3.40532977063468
C           -0.92300617979079       -0.68977210859201        4.81653496897256
C           -1.72151000807160        0.52305885107339        5.29749822947080
C           -3.23757504566520        0.32305077313706        5.33669126674814
C           -3.71580691090873       -0.81060051161846        6.24614781214387
C           -3.28046427475565       -0.69071295976387        7.70795017265775
C           -3.70379133848522        0.60564668535354        8.40088875383718
C           -5.21462893134698        0.83637346942712        8.46748940176508
C           -5.99740598181368       -0.23472917718808        9.23002732454264
C           -5.53410949097551       -0.47049751898729       10.66995590630842
C           -5.52311749972871        0.77925679370950       11.55382655082216
C           -6.89041581687138        1.43036917853351       11.76169577308623
C           -7.85584168744859        0.59087138480077       12.60998870382948
N           -7.35536603962346        0.44991707662653       13.96537134618651
C           -6.65075321390206       -0.65613862819276       14.30993221693904
C           -6.09244972122956       -0.78539968086954       15.54639435138790
C           -6.23207562486553        0.24285728168711       16.50424944140332
C           -6.97993190359966        1.39883398345030       16.12024887435839
C           -7.51664605779187        1.44101461145257       14.83084375642576
C           -7.14750653484304        2.45483810673356       17.04484486720213
C           -6.59452802426863        2.36089649048363       18.29230982406719
C           -5.86051685158141        1.22183849617700       18.66887170151682
C           -5.68014332212859        0.18063781812663       17.79494059573193
H            0.40905298732031        0.18529313774521       -0.66115606117729
H            1.24529257298915       -1.10111645172550       -1.52377529218811
H            2.17274238673589        0.12669366996733       -0.66212535454207
H            0.31993743772569       -1.91686174378251        0.65426493445823
H            2.06878527564663       -2.06997165721782        0.55770994688506
H            1.48460375841678       -1.24740158148933        2.74852862320765
H            2.37014291890455       -0.01012334329337        1.86454076888935
H            0.56017685600199        0.99882863631940        3.11451504736590
H            0.30669140959861        1.21509174237984        1.39219465372268
H           -1.79291221802403        0.70205240458062        2.48151806751906
H           -1.37001668767758       -0.57452224615314        1.35445401683711
H           -2.30159366440476       -1.51791892115746        3.38487765051001
H           -0.63699563710780       -2.03181486700691        3.17670446087882
H           -1.07867115697195       -1.52165778868204        5.50733991342925
H            0.13803616699110       -0.43578439591098        4.85947432621715
H           -1.36603121751551        0.79323596388194        6.29451957805009
H           -1.50828584270728        1.37203184972710        4.64516651163948
H           -3.69830964423224        1.26101868299667        5.65540074456863
H           -3.59832741015148        0.12152912064049        4.32649312832041
H           -4.80624525054876       -0.85433080699729        6.19416677582165
H           -3.34250094370608       -1.76079619667851        5.85979342469205
H           -3.68140181775428       -1.54621713317899        8.25678481679030
H           -2.19266074370839       -0.76185503474684        7.76204469393504
H           -3.28781535728752        0.60710907012805        9.41138951287213
H           -3.25726217274302        1.45106450495525        7.87546274018842
H           -5.39515289677037        1.81405344496418        8.92112480387572
H           -5.61225595588941        0.88254650785711        7.45293280183728
H           -7.05526531395406        0.04002022942379        9.22259277427899
H           -5.91581017469833       -1.18214442835253        8.69564563026537
H           -6.17166689279040       -1.24228261652377       11.10998859999011
H           -4.52069987038102       -0.87290383407464       10.65206321908351
H           -5.08310240185999        0.52639858902779       12.52354845586316
H           -4.86834715131707        1.52027834730328       11.09644589748029
H           -6.75412718267386        2.40198093636259       12.24224042872761
H           -7.36183556716021        1.60346053192245       10.79531783158164
H           -8.83201817888842        1.07890617181155       12.64311516397132
H           -7.97630530821803       -0.39918917702280       12.17017091124756
H           -6.55985614127872       -1.42723339479315       13.56168131027020
H           -5.53879908738851       -1.67656801336062       15.79558902270580
H           -8.08758634209194        2.29919179054779       14.50519876944235
H           -7.71128142040465        3.32663838473466       16.75104780573789
H           -6.71893113259706        3.16498889657672       19.00077421622328
H           -5.43697528633280        1.17347187350423       19.66004433627847
H           -5.11730654995829       -0.69364460216504       18.08290655940267

          :  Hamiltonian                  GFN2-xTB          :
         :: total energy             -82.824644522452 Eh    ::
         :: gradient norm              0.000490682335 Eh/a0 ::
         :: HOMO-LUMO gap              0.210721634978 eV    ::
         :: SCC energy               -84.152627995260 Eh    ::
         :: -> dispersion             -0.065894356314 Eh    ::
         :: repulsion energy           1.327983472808 Eh    ::

    * Orbital Energies and Occupations

         #    Occupation            Energy/Eh            Energy/eV
      -------------------------------------------------------------
         1        2.0000           -0.8535117             -23.2252
       ...           ...                  ...                  ...
        66        2.0000           -0.5005089             -13.6195
        67        2.0000           -0.4970364             -13.5250
        68        2.0000           -0.4939973             -13.4424
        69        2.0000           -0.4873704             -13.2620
        70        2.0000           -0.4827825             -13.1372
        71        2.0000           -0.4803706             -13.0716
        72        2.0000           -0.4760385             -12.9537
        73        2.0000           -0.4681345             -12.7386
        74        2.0000           -0.4669293             -12.7058
        75        2.0000           -0.4646350             -12.6434
        76        2.0000           -0.4579942             -12.4627
        77        1.9916           -0.4515991             -12.2886
        78        1.9705           -0.4503963             -12.2559 (HOMO)
        79        0.0379           -0.4426524             -12.0452 (LUMO)
        80                         -0.4074361             -11.0869
        81                         -0.3521424              -9.5823
        82                         -0.3189957              -8.6803
        83                         -0.2221633              -6.0454
        84                         -0.1500202              -4.0823
        85                         -0.0670941              -1.8257
        86                         -0.0485559              -1.3213
        87                         -0.0420153              -1.1433
        88                         -0.0238457              -0.6489
        89                         -0.0149782              -0.4076
       ...                                ...                  ...
       156                          0.5368734              14.6091
      -------------------------------------------------------------
                  HL-Gap            0.0077439 Eh            0.2107 eV

     #   Z          covCN         q      C6AA      α(0)
     1   6 C        3.751    -0.102    22.511     6.766
     2   6 C        3.799    -0.052    21.509     6.603
     3   6 C        3.801    -0.057    21.597     6.617
     4   6 C        3.800    -0.057    21.592     6.616
     5   6 C        3.800    -0.056    21.587     6.615
     6   6 C        3.800    -0.056    21.587     6.615
     7   6 C        3.800    -0.056    21.586     6.615
     8   6 C        3.800    -0.057    21.592     6.616
     9   6 C        3.800    -0.057    21.601     6.617
    10   6 C        3.800    -0.057    21.601     6.617
    11   6 C        3.800    -0.057    21.603     6.618
    12   6 C        3.800    -0.058    21.624     6.621
    13   6 C        3.800    -0.060    21.655     6.626
    14   6 C        3.800    -0.061    21.667     6.627
    15   6 C        3.800    -0.060    21.660     6.626
    16   6 C        3.800    -0.064    21.735     6.638
    17   6 C        3.801    -0.068    21.795     6.647
    18   6 C        3.759    -0.031    21.169     6.559
    19   7 N        2.747     0.093    19.632     6.581
    20   6 C        2.883     0.017    27.632     8.618
    21   6 C        2.913    -0.024    28.614     8.772
    22   6 C        2.990     0.039    27.119     8.542
    23   6 C        2.983     0.023    27.476     8.598
    24   6 C        2.891     0.027    27.404     8.583
    25   6 C        2.915    -0.022    28.556     8.763
    26   6 C        2.915    -0.007    28.191     8.707
    27   6 C        2.916    -0.002    28.080     8.690
    28   6 C        2.914    -0.023    28.568     8.765
    29   1 H        0.925     0.036     2.507     2.476
    30   1 H        0.925     0.033     2.541     2.493
    31   1 H        0.925     0.035     2.515     2.480
    32   1 H        0.924     0.033     2.548     2.496
    33   1 H        0.924     0.029     2.594     2.519
    34   1 H        0.924     0.030     2.580     2.512
    35   1 H        0.924     0.031     2.579     2.511
    36   1 H        0.924     0.030     2.588     2.516
    37   1 H        0.924     0.034     2.525     2.485
    38   1 H        0.924     0.030     2.593     2.518
    39   1 H        0.924     0.034     2.535     2.490
    40   1 H        0.924     0.029     2.606     2.525
    41   1 H        0.924     0.033     2.542     2.493
    42   1 H        0.924     0.028     2.622     2.532
    43   1 H        0.924     0.032     2.558     2.501
    44   1 H        0.924     0.026     2.640     2.541
    45   1 H        0.924     0.033     2.541     2.493
    46   1 H        0.924     0.026     2.642     2.542
    47   1 H        0.924     0.034     2.528     2.486
    48   1 H        0.924     0.026     2.645     2.543
    49   1 H        0.924     0.034     2.526     2.485
    50   1 H        0.924     0.024     2.668     2.554
    51   1 H        0.924     0.035     2.519     2.482
    52   1 H        0.924     0.023     2.693     2.567
    53   1 H        0.924     0.038     2.470     2.458
    54   1 H        0.924     0.024     2.675     2.558
    55   1 H        0.924     0.042     2.416     2.431
    56   1 H        0.924     0.025     2.663     2.552
    57   1 H        0.924     0.045     2.387     2.416
    58   1 H        0.924     0.018     2.763     2.600
    59   1 H        0.924     0.048     2.344     2.394
    60   1 H        0.924     0.021     2.713     2.576
    61   1 H        0.925     0.062     2.173     2.305
    62   1 H        0.924     0.047     2.363     2.404
    63   1 H        0.925     0.079     1.993     2.208
    64   1 H        0.924     0.080     1.974     2.197
    65   1 H        0.925     0.090     1.883     2.146
    66   1 H        0.926     0.096     1.826     2.113
    67   1 H        0.926     0.092     1.861     2.134
    68   1 H        0.926     0.095     1.832     2.117
    69   1 H        0.926     0.070     2.084     2.257
    70   1 H        0.926     0.080     1.980     2.201
    71   1 H        0.926     0.081     1.971     2.195
    72   1 H        0.926     0.075     2.036     2.231

Wiberg/Mayer (AO) data.
largest (>0.10) Wiberg bond orders for each atom

     #   Z sym  total        # sym  WBO       # sym  WBO       # sym  WBO
 ---------------------------------------------------------------------------
     1   6 C    3.994 --     2 C    1.020    30 H    0.987    31 H    0.987
                            29 H    0.985
     2   6 C    3.992 --     1 C    1.020     3 C    1.007    33 H    0.976
                            32 H    0.974
     3   6 C    3.990 --     2 C    1.007     4 C    1.005    35 H    0.976
                            34 H    0.973
     4   6 C    3.989 --     5 C    1.007     3 C    1.005    36 H    0.973
                            37 H    0.972
     5   6 C    3.991 --     4 C    1.007     6 C    1.006    39 H    0.973
                            38 H    0.973
     6   6 C    3.992 --     7 C    1.007     5 C    1.006    40 H    0.974
                            41 H    0.973
     7   6 C    3.994 --     6 C    1.007     8 C    1.007    43 H    0.974
                            42 H    0.974
     8   6 C    3.995 --     9 C    1.008     7 C    1.007    44 H    0.975
                            45 H    0.974
     9   6 C    3.996 --     8 C    1.008    10 C    1.007    46 H    0.975
                            47 H    0.974
    10   6 C    3.997 --    11 C    1.008     9 C    1.007    48 H    0.975
                            49 H    0.975
    11   6 C    3.997 --    12 C    1.008    10 C    1.008    50 H    0.975
                            51 H    0.975
    12   6 C    3.997 --    13 C    1.008    11 C    1.008    52 H    0.975
                            53 H    0.973
    13   6 C    3.996 --    12 C    1.008    14 C    1.007    54 H    0.975
                            55 H    0.973
    14   6 C    3.996 --    13 C    1.007    15 C    1.007    56 H    0.975
                            57 H    0.974
    15   6 C    3.995 --    14 C    1.007    16 C    1.007    58 H    0.973
                            59 H    0.973
    16   6 C    3.992 --    17 C    1.009    15 C    1.007    60 H    0.974
                            61 H    0.967
    17   6 C    3.978 --    16 C    1.009    18 C    0.977    62 H    0.974
                            63 H    0.963
    18   6 C    3.937 --    17 C    0.977    19 N    0.966    64 H    0.964
                            65 H    0.962
    19   7 N    3.739 --    24 C    1.381    20 C    1.229    18 C    0.966
    20   6 C    3.959 --    21 C    1.562    19 N    1.229    66 H    0.955
    21   6 C    3.975 --    20 C    1.562    22 C    1.274    67 H    0.960
    22   6 C    3.982 --    28 C    1.302    21 C    1.274    23 C    1.207
    23   6 C    3.989 --    24 C    1.340    25 C    1.261    22 C    1.207
    24   6 C    3.937 --    19 N    1.381    23 C    1.340    68 H    0.954
    25   6 C    3.977 --    26 C    1.559    23 C    1.261    69 H    0.965
                            28 C    0.108
    26   6 C    3.983 --    25 C    1.559    27 C    1.315    70 H    0.965
    27   6 C    3.969 --    28 C    1.534    26 C    1.315    71 H    0.966
    28   6 C    3.984 --    27 C    1.534    22 C    1.302    72 H    0.964
                            25 C    0.108
    29   1 H    0.997 --     1 C    0.985
    30   1 H    0.999 --     1 C    0.987
    31   1 H    0.998 --     1 C    0.987
    32   1 H    0.996 --     2 C    0.974
    33   1 H    0.996 --     2 C    0.976
    34   1 H    0.997 --     3 C    0.973
    35   1 H    0.997 --     3 C    0.976
    36   1 H    0.997 --     4 C    0.973
    37   1 H    0.996 --     4 C    0.972
    38   1 H    0.996 --     5 C    0.973
    39   1 H    0.997 --     5 C    0.973
    40   1 H    0.998 --     6 C    0.974
    41   1 H    0.997 --     6 C    0.973
    42   1 H    0.998 --     7 C    0.974
    43   1 H    0.998 --     7 C    0.974
    44   1 H    0.999 --     8 C    0.975
    45   1 H    0.998 --     8 C    0.974
    46   1 H    0.999 --     9 C    0.975
    47   1 H    0.999 --     9 C    0.974
    48   1 H    0.999 --    10 C    0.975
    49   1 H    0.999 --    10 C    0.975
    50   1 H    0.999 --    11 C    0.975
    51   1 H    0.999 --    11 C    0.975
    52   1 H    0.999 --    12 C    0.975
    53   1 H    0.998 --    12 C    0.973
    54   1 H    0.999 --    13 C    0.975
    55   1 H    0.998 --    13 C    0.973
    56   1 H    0.999 --    14 C    0.975
    57   1 H    0.998 --    14 C    0.974
    58   1 H    1.000 --    15 C    0.973
    59   1 H    0.998 --    15 C    0.973
    60   1 H    0.999 --    16 C    0.974
    61   1 H    0.995 --    16 C    0.967
    62   1 H    0.998 --    17 C    0.974
    63   1 H    0.992 --    17 C    0.963
    64   1 H    0.992 --    18 C    0.964
    65   1 H    0.991 --    18 C    0.962
    66   1 H    0.990 --    20 C    0.955
    67   1 H    0.991 --    21 C    0.960
    68   1 H    0.990 --    24 C    0.954
    69   1 H    0.995 --    25 C    0.965
    70   1 H    0.993 --    26 C    0.965
    71   1 H    0.993 --    27 C    0.966
    72   1 H    0.994 --    28 C    0.964
 ---------------------------------------------------------------------------

molecular dipole:
                 x           y           z       tot (Debye)
 q only:      -12.268       1.286      26.889
   full:      -12.370       1.281      26.925      75.385

           -------------------------------------------------
          | TOTAL ENERGY              -82.824644522452 Eh   |
          | GRADIENT NORM               0.000490682335 Eh/α |
          | HOMO-LUMO GAP               0.210721634978 eV   |
           -------------------------------------------------

 * finished run on 2024/12/20 at 06:51:07.067
