   * xtb version 6.7.1 (edcfbbe) compiled by 'conda@3ef47c1a292c' on 2024-11-25

   ID    Z sym.   atoms
    1   35 Br     1
    2    6 C      2-9, 11, 14-26
    3    7 N      10, 12, 13
    4    1 H      27-55

          program call               : xtb C0631.xyz --opt --namespace C0631 --charge +1
          :  Hamiltonian                  GFN2-xTB          :
 * total energy  :   -74.4173736 Eh     change       -0.2049546E-08 Eh
 * total energy  :   -74.4221914 Eh     change       -0.4817803E-02 Eh
 * total energy  :   -74.4229791 Eh     change       -0.7877191E-03 Eh
 * total energy  :   -74.4232690 Eh     change       -0.2899694E-03 Eh
 * total energy  :   -74.4235471 Eh     change       -0.2781027E-03 Eh
 * total energy  :   -74.4237314 Eh     change       -0.1842433E-03 Eh
 * total energy  :   -74.4239476 Eh     change       -0.2161806E-03 Eh
 * total energy  :   -74.4241570 Eh     change       -0.2094498E-03 Eh
 * total energy  :   -74.4243679 Eh     change       -0.2108731E-03 Eh
 * total energy  :   -74.4245909 Eh     change       -0.2230266E-03 Eh
 * total energy  :   -74.4282512 Eh     change       -0.1131695E-04 Eh
 * total energy  :   -74.4282602 Eh     change       -0.9031189E-05 Eh
 * total energy  :   -74.4282795 Eh     change       -0.1926084E-04 Eh
 * total energy  :   -74.4282929 Eh     change       -0.1346235E-04 Eh
 * total energy  :   -74.4283090 Eh     change       -0.1605529E-04 Eh
 * total energy  :   -74.4283273 Eh     change       -0.1833730E-04 Eh
 * total energy  :   -74.4283380 Eh     change       -0.1069902E-04 Eh
 * total energy  :   -74.4283442 Eh     change       -0.6174019E-05 Eh
 * total energy  :   -74.4283486 Eh     change       -0.4423410E-05 Eh
   *** GEOMETRY OPTIMIZATION CONVERGED AFTER 56 ITERATIONS ***

 final structure:
================
55
 xtb: 6.7.1 (edcfbbe)
Br           0.51227093209032       -0.53613522152018       -0.55121126021406
C            2.38656300782337       -0.90682963750538       -0.99483466015378
C            2.76108414468277       -0.38201702512835       -2.37046912562568
C            2.52158201131552        1.11679010144772       -2.56090790205969
C            3.28123164072826        2.02504366967213       -1.59300259955875
C            4.80745745520630        1.94323700551232       -1.67819302341721
C            5.40178323131869        2.30560987772668       -3.04211886969321
C            5.13044956341531        3.74308729533684       -3.49293536759195
C            5.91366922356332        4.79252531892859       -2.69626309345933
N            7.31993004771937        4.80704773439611       -3.04394094001986
C            7.85314067804439        5.41591217798655       -4.11690884755245
N            7.17494430700263        6.14699158295887       -5.00805594393171
N            9.18475472917695        5.23828639283421       -4.14733730689425
C            9.53904086991352        4.46576329369400       -3.04846202072244
C            8.35427174523202        4.19171242780334       -2.34707722126794
C            8.36859466932126        3.44043621160034       -1.18388550985153
C            9.59449089555600        2.96853276339844       -0.75109707752161
C           10.76813283424038        3.23585826067993       -1.45080172758932
C           10.76322070804111        3.98981943281923       -2.61030559975683
C           10.07878542154142        5.80101984911371       -5.14250408287116
C            9.64908659000287        5.43526874581620       -6.54315390133166
C            9.39678603758043        6.42243676732877       -7.48941501841250
C            9.00915438366604        6.07404284825794       -8.77327649513760
C            8.85928490450843        4.74071420045793       -9.11446563537445
C            9.10330429260920        3.75343677470748       -8.17281894198342
C            9.49795679895197        4.09775029671657       -6.89256898448104
H            2.97802498995284       -0.45064210572496       -0.20299691125800
H            2.49599350764866       -1.98938217154971       -0.94814427527338
H            3.81398721601188       -0.62422473484067       -2.53854497247751
H            2.17691947360792       -0.91659340530381       -3.12305724683053
H            2.77407779936232        1.37689334349278       -3.59066468862052
H            1.45520319761299        1.31346249672531       -2.43365922119646
H            2.95893989194587        3.05326194103425       -1.76965134676267
H            2.98653530487803        1.78464908985771       -0.57051864561717
H            5.21850181766929        2.59841969515129       -0.90641342549783
H            5.12900003626675        0.92940066191844       -1.43397254516672
H            6.48103000946240        2.13383346020469       -3.01334681708287
H            4.99076785879681        1.63099775735193       -3.79337007923018
H            5.38474280352836        3.83382779737316       -4.55221548653459
H            4.06785773426020        3.96015469085352       -3.39098455462156
H            5.50441908154286        5.79149782491560       -2.87203672327770
H            5.84014054290240        4.58769752152264       -1.62854722148805
H            6.16987500609094        6.15716555897969       -4.98948489471370
H            7.63790089109898        6.42513843256551       -5.86193178239223
H            7.46863580948906        3.22371007406526       -0.63362456797364
H            9.64212321117649        2.37961763847795        0.15059037198187
H           11.70288090275302        2.84830860486490       -1.07918744716411
H           11.67873653833682        4.19350624661171       -3.14101327006333
H           10.11406830832735        6.88929651975267       -5.02312879553212
H           11.07555761414511        5.40378854012521       -4.94183778364504
H            9.52876776945009        7.46409175399185       -7.23118581669529
H            8.82853420237873        6.84544306897916       -9.50531353014930
H            8.56103013808256        4.47012544643942      -10.11491937792858
H            8.99614632846906        2.71343860063556       -8.43906088329702
H            9.70066089139531        3.32720450643702       -6.16219690507615

          :  Hamiltonian                  GFN2-xTB          :
         :: total energy             -74.428348610614 Eh    ::
         :: gradient norm              0.000384248975 Eh/a0 ::
         :: HOMO-LUMO gap              2.129166789821 eV    ::
         :: SCC energy               -75.588251154082 Eh    ::
         :: -> dispersion             -0.058525217443 Eh    ::
         :: repulsion energy           1.159902543468 Eh    ::

    * Orbital Energies and Occupations

         #    Occupation            Energy/Eh            Energy/eV
      -------------------------------------------------------------
         1        2.0000           -0.8871196             -24.1398
       ...           ...                  ...                  ...
        57        2.0000           -0.5426435             -14.7661
        58        2.0000           -0.5418517             -14.7445
        59        2.0000           -0.5378367             -14.6353
        60        2.0000           -0.5350221             -14.5587
        61        2.0000           -0.5274504             -14.3527
        62        2.0000           -0.5237597             -14.2522
        63        2.0000           -0.5223152             -14.2129
        64        2.0000           -0.5201218             -14.1532
        65        2.0000           -0.5164915             -14.0544
        66        2.0000           -0.5127872             -13.9537
        67        2.0000           -0.5097202             -13.8702
        68        2.0000           -0.4594509             -12.5023
        69        2.0000           -0.4576020             -12.4520 (HOMO)
        70                         -0.3793565             -10.3228 (LUMO)
        71                         -0.3482533              -9.4765
        72                         -0.3461575              -9.4194
        73                         -0.3420177              -9.3068
        74                         -0.3343899              -9.0992
        75                         -0.2701045              -7.3499
        76                         -0.2219296              -6.0390
        77                         -0.2176677              -5.9230
        78                         -0.1783607              -4.8534
        79                         -0.1316741              -3.5830
        80                         -0.1241863              -3.3793
       ...                                ...                  ...
       138                          0.5599586              15.2372
      -------------------------------------------------------------
                  HL-Gap            0.0782454 Eh            2.1292 eV

     #   Z          covCN         q      C6AA      α(0)
     1  35 Br       0.968    -0.195   190.420    22.249
     2   6 C        3.739     0.022    20.276     6.425
     3   6 C        3.852    -0.055    21.533     6.600
     4   6 C        3.801    -0.062    21.700     6.632
     5   6 C        3.800    -0.062    21.694     6.632
     6   6 C        3.800    -0.060    21.656     6.626
     7   6 C        3.800    -0.063    21.712     6.634
     8   6 C        3.801    -0.069    21.819     6.651
     9   6 C        3.739    -0.015    20.925     6.527
    10   7 N        2.817    -0.028    21.792     6.933
    11   6 C        3.001     0.196    23.825     8.007
    12   7 N        2.638    -0.249    26.475     7.642
    13   7 N        2.821    -0.029    21.795     6.934
    14   6 C        3.087     0.037    27.068     8.528
    15   6 C        3.089     0.039    27.029     8.522
    16   6 C        2.911    -0.037    28.918     8.818
    17   6 C        2.926    -0.024    28.609     8.772
    18   6 C        2.926    -0.023    28.588     8.768
    19   6 C        2.910    -0.037    28.915     8.817
    20   6 C        3.745    -0.018    20.973     6.533
    21   6 C        2.971    -0.008    28.212     8.712
    22   6 C        2.922    -0.045    29.123     8.850
    23   6 C        2.919    -0.024    28.614     8.772
    24   6 C        2.920    -0.022    28.563     8.764
    25   6 C        2.919    -0.023    28.588     8.768
    26   6 C        2.922    -0.038    28.938     8.822
    27   1 H        0.926     0.057     2.238     2.339
    28   1 H        0.926     0.058     2.222     2.331
    29   1 H        0.924     0.039     2.466     2.456
    30   1 H        0.924     0.051     2.306     2.375
    31   1 H        0.924     0.033     2.545     2.495
    32   1 H        0.924     0.060     2.199     2.319
    33   1 H        0.924     0.033     2.549     2.497
    34   1 H        0.924     0.047     2.359     2.402
    35   1 H        0.924     0.024     2.668     2.554
    36   1 H        0.924     0.041     2.438     2.442
    37   1 H        0.924     0.030     2.592     2.518
    38   1 H        0.925     0.052     2.294     2.368
    39   1 H        0.924     0.035     2.521     2.483
    40   1 H        0.925     0.068     2.105     2.269
    41   1 H        0.924     0.061     2.189     2.313
    42   1 H        0.925     0.088     1.894     2.152
    43   1 H        0.860     0.217     1.023     1.585
    44   1 H        0.860     0.224     0.991     1.560
    45   1 H        0.926     0.065     2.145     2.290
    46   1 H        0.926     0.072     2.064     2.246
    47   1 H        0.926     0.073     2.056     2.243
    48   1 H        0.926     0.062     2.172     2.304
    49   1 H        0.924     0.071     2.078     2.254
    50   1 H        0.924     0.089     1.886     2.147
    51   1 H        0.925     0.040     2.442     2.444
    52   1 H        0.926     0.056     2.245     2.343
    53   1 H        0.926     0.058     2.221     2.330
    54   1 H        0.926     0.054     2.271     2.357
    55   1 H        0.926     0.036     2.497     2.471

Wiberg/Mayer (AO) data.
largest (>0.10) Wiberg bond orders for each atom

     #   Z sym  total        # sym  WBO       # sym  WBO       # sym  WBO
 ---------------------------------------------------------------------------
     1  35 Br   1.020 --     2 C    0.963
     2   6 C    3.956 --     3 C    1.018    28 H    0.978    27 H    0.976
                             1 Br   0.963
     3   6 C    3.995 --     2 C    1.018     4 C    1.008    30 H    0.975
                            29 H    0.964
     4   6 C    3.995 --     5 C    1.009     3 C    1.008    31 H    0.974
                            32 H    0.970
     5   6 C    3.996 --     4 C    1.009     6 C    1.007    33 H    0.973
                            34 H    0.973
     6   6 C    3.996 --     7 C    1.007     5 C    1.007    36 H    0.974
                            35 H    0.971
     7   6 C    3.994 --     6 C    1.007     8 C    1.007    37 H    0.976
                            38 H    0.972
     8   6 C    3.988 --     7 C    1.007     9 C    0.992    39 H    0.975
                            40 H    0.966
     9   6 C    3.946 --     8 C    0.992    10 N    0.969    41 H    0.965
                            42 H    0.960
    10   7 N    3.599 --    11 C    1.267    15 C    1.089     9 C    0.969
    11   6 C    3.972 --    12 N    1.271    10 N    1.267    13 N    1.266
    12   7 N    3.355 --    11 C    1.271    43 H    0.929    44 H    0.909
    13   7 N    3.598 --    11 C    1.266    14 C    1.089    20 C    0.963
    14   6 C    3.949 --    19 C    1.367    15 C    1.284    13 N    1.089
    15   6 C    3.950 --    16 C    1.366    14 C    1.284    10 N    1.089
    16   6 C    3.986 --    17 C    1.465    15 C    1.366    45 H    0.960
                            19 C    0.114
    17   6 C    3.981 --    16 C    1.465    18 C    1.407    46 H    0.967
    18   6 C    3.981 --    19 C    1.465    17 C    1.407    47 H    0.967
    19   6 C    3.986 --    18 C    1.465    14 C    1.367    48 H    0.962
                            16 C    0.114
    20   6 C    3.946 --    21 C    0.992    13 N    0.963    49 H    0.960
                            50 H    0.955
    21   6 C    3.983 --    22 C    1.408    26 C    1.408    20 C    0.992
                            24 C    0.109
    22   6 C    3.990 --    23 C    1.436    21 C    1.408    51 H    0.967
                            25 C    0.109
    23   6 C    3.990 --    24 C    1.444    22 C    1.436    52 H    0.969
                            26 C    0.112
    24   6 C    3.989 --    23 C    1.444    25 C    1.434    53 H    0.969
                            21 C    0.109
    25   6 C    3.991 --    26 C    1.449    24 C    1.434    54 H    0.969
                            22 C    0.109
    26   6 C    3.992 --    25 C    1.449    21 C    1.408    55 H    0.969
                            23 C    0.112
    27   1 H    0.997 --     2 C    0.976
    28   1 H    0.997 --     2 C    0.978
    29   1 H    0.998 --     3 C    0.964
    30   1 H    0.997 --     3 C    0.975
    31   1 H    0.999 --     4 C    0.974
    32   1 H    0.996 --     4 C    0.970
    33   1 H    0.999 --     5 C    0.973
    34   1 H    0.998 --     5 C    0.973
    35   1 H    0.999 --     6 C    0.971
    36   1 H    0.998 --     6 C    0.974
    37   1 H    0.999 --     7 C    0.976
    38   1 H    0.997 --     7 C    0.972
    39   1 H    0.999 --     8 C    0.975
    40   1 H    0.994 --     8 C    0.966
    41   1 H    0.996 --     9 C    0.965
    42   1 H    0.992 --     9 C    0.960
    43   1 H    0.952 --    12 N    0.929
    44   1 H    0.949 --    12 N    0.909
    45   1 H    0.995 --    16 C    0.960
    46   1 H    0.994 --    17 C    0.967
    47   1 H    0.994 --    18 C    0.967
    48   1 H    0.995 --    19 C    0.962
    49   1 H    0.994 --    20 C    0.960
    50   1 H    0.992 --    20 C    0.955
    51   1 H    0.998 --    22 C    0.967
    52   1 H    0.997 --    23 C    0.969
    53   1 H    0.996 --    24 C    0.969
    54   1 H    0.997 --    25 C    0.969
    55   1 H    0.999 --    26 C    0.969
 ---------------------------------------------------------------------------

molecular dipole:
                 x           y           z       tot (Debye)
 q only:       15.658       9.163      -8.137
   full:       16.163       9.059      -8.382      51.690

           -------------------------------------------------
          | TOTAL ENERGY              -74.428348610614 Eh   |
          | GRADIENT NORM               0.000384248975 Eh/α |
          | HOMO-LUMO GAP               2.129166789821 eV   |
           -------------------------------------------------

 * finished run on 2024/12/20 at 06:51:03.688
