   * xtb version 6.7.1 (edcfbbe) compiled by 'conda@3ef47c1a292c' on 2024-11-25

   ID    Z sym.   atoms
    1   17 Cl     1
    2    6 C      2-8, 10, 12, 13, 15-23
    3    8 O      9
    4    7 N      11, 14
    5    1 H      24-41

          program call               : xtb C0638.xyz --opt --namespace C0638 --charge +1
          :  Hamiltonian                  GFN2-xTB          :
 * total energy  :   -63.9321167 Eh     change       -0.1737121E-08 Eh
 * total energy  :   -63.9401640 Eh     change       -0.8047319E-02 Eh
 * total energy  :   -63.9419415 Eh     change       -0.1777446E-02 Eh
 * total energy  :   -63.9422977 Eh     change       -0.3562769E-03 Eh
 * total energy  :   -63.9424943 Eh     change       -0.1965994E-03 Eh
 * total energy  :   -63.9425976 Eh     change       -0.1033129E-03 Eh
 * total energy  :   -63.9426714 Eh     change       -0.7379892E-04 Eh
 * total energy  :   -63.9427215 Eh     change       -0.5006163E-04 Eh
 * total energy  :   -63.9427659 Eh     change       -0.4438812E-04 Eh
 * total energy  :   -63.9427910 Eh     change       -0.2508093E-04 Eh
 * total energy  :   -63.9473252 Eh     change       -0.1488058E-04 Eh
 * total energy  :   -63.9473362 Eh     change       -0.1100621E-04 Eh
 * total energy  :   -63.9473539 Eh     change       -0.1773024E-04 Eh
 * total energy  :   -63.9473554 Eh     change       -0.1435798E-05 Eh
 * total energy  :   -63.9473654 Eh     change       -0.1003476E-04 Eh
 * total energy  :   -63.9473730 Eh     change       -0.7622187E-05 Eh
 * total energy  :   -63.9473791 Eh     change       -0.6119453E-05 Eh
 * total energy  :   -63.9473850 Eh     change       -0.5869384E-05 Eh
 * total energy  :   -63.9473891 Eh     change       -0.4119244E-05 Eh
   *** GEOMETRY OPTIMIZATION CONVERGED AFTER 90 ITERATIONS ***

 final structure:
================
41
 xtb: 6.7.1 (edcfbbe)
Cl          -1.59976098727136        2.53179384626899       -0.74629714220767
C           -0.06787479652967        1.78190980940235       -0.54855075803898
C            0.13462232642000        0.48412017065267       -1.00602488054048
C            1.37217568880671       -0.10399352850039       -0.85323725446021
C            2.42943291927922        0.59668242185903       -0.26455223572157
C            2.20080221025674        1.88798427771936        0.21713601304329
C            0.96055771923577        2.47502581266233        0.08265060659933
C            3.73713013502012       -0.07510613887964       -0.18593029796544
O            3.88792739293762       -1.26655378839687       -0.17949076224399
C            4.97741273649009        0.86010787954451       -0.18901028627904
N            4.85447775253965        1.83834171587722       -1.23849841574510
C            4.55863438504172        1.48728912649319       -2.52799289125872
C            4.41371196278281        2.63460216257272       -3.23658161518639
N            4.62724161522948        3.67075680501485       -2.37614029718983
C            4.89585828226966        3.17459998443845       -1.16155230116314
C            5.21546531816663        4.00947971271865        0.01312188819023
C            4.46115238613680        5.07462747023245       -2.68572761840572
C            3.21906787760986        5.62449164854802       -2.01701497481099
C            1.99834879569176        4.98290527875479       -2.19007964671274
C            0.85678255308750        5.48686569924494       -1.59236524422748
C            0.92689450101096        6.63224658242166       -0.81678791614053
C            2.14143597985996        7.27315778154677       -0.63944097976161
C            3.28596127453744        6.76872574208436       -1.23392906562946
H           -0.67406235266009       -0.05655392964049       -1.47096761932169
H            1.54655710368122       -1.11266802665809       -1.19573332498303
H            2.97119542532987        2.42460220695041        0.74780578483008
H            0.78123761782272        3.46575644155159        0.46833077425800
H            5.07238185633375        1.34019144395781        0.78523207520654
H            5.85910725265945        0.23439895393097       -0.35822353553140
H            4.47850582142873        0.46461031899055       -2.83414575828906
H            4.18592346452605        2.78352413356005       -4.27197321829132
H            4.36906912559253        4.64977180501943        0.26625845215222
H            5.48020988652995        3.40822135512722        0.87718989635870
H            6.05958981396599        4.66142898187049       -0.21441668844294
H            5.34430435600003        5.62852370076127       -2.35729975083359
H            4.37835388790653        5.16823988628398       -3.77119029312534
H            1.93389561328060        4.09275867800112       -2.80069792377644
H           -0.08819729375882        4.98796836068156       -1.74106737487222
H            0.03560633898432        7.02813111693587       -0.35610322769835
H            2.20059842548168        8.16828524567437       -0.04052976343801
H            4.22939562827106        7.27757885476085       -1.10132242836085

          :  Hamiltonian                  GFN2-xTB          :
         :: total energy             -63.947389138678 Eh    ::
         :: gradient norm              0.000934451577 Eh/a0 ::
         :: HOMO-LUMO gap              2.773986486955 eV    ::
         :: SCC energy               -64.947100268109 Eh    ::
         :: -> dispersion             -0.049959265106 Eh    ::
         :: repulsion energy           0.999711129430 Eh    ::

    * Orbital Energies and Occupations

         #    Occupation            Energy/Eh            Energy/eV
      -------------------------------------------------------------
         1        2.0000           -1.1578393             -31.5064
       ...           ...                  ...                  ...
        46        2.0000           -0.5919503             -16.1078
        47        2.0000           -0.5762898             -15.6816
        48        2.0000           -0.5713799             -15.5480
        49        2.0000           -0.5673636             -15.4387
        50        2.0000           -0.5587150             -15.2034
        51        2.0000           -0.5444150             -14.8143
        52        2.0000           -0.5417616             -14.7421
        53        2.0000           -0.5403932             -14.7048
        54        2.0000           -0.5295019             -14.4085
        55        2.0000           -0.5250991             -14.2887
        56        2.0000           -0.5241417             -14.2626
        57        2.0000           -0.5227130             -14.2237
        58        2.0000           -0.5126234             -13.9492 (HOMO)
        59                         -0.4106813             -11.1752 (LUMO)
        60                         -0.3954636             -10.7611
        61                         -0.3631933              -9.8830
        62                         -0.3583448              -9.7511
        63                         -0.3478426              -9.4653
        64                         -0.3434050              -9.3445
        65                         -0.3321738              -9.0389
        66                         -0.2369613              -6.4480
        67                         -0.2268845              -6.1738
        68                         -0.2191138              -5.9624
        69                         -0.1731075              -4.7105
       ...                                ...                  ...
       115                          0.5498451              14.9620
      -------------------------------------------------------------
                  HL-Gap            0.1019421 Eh            2.7740 eV

     #   Z          covCN         q      C6AA      α(0)
     1  17 Cl       0.969    -0.117   102.797    15.511
     2   6 C        2.887     0.112    25.531     8.284
     3   6 C        2.952    -0.032    28.786     8.800
     4   6 C        2.927    -0.013    28.338     8.730
     5   6 C        2.969    -0.023    28.579     8.769
     6   6 C        2.921    -0.033    28.832     8.805
     7   6 C        2.955    -0.038    28.945     8.824
     8   6 C        2.819     0.228    23.213     7.894
     9   8 O        0.857    -0.307    19.913     5.983
    10   6 C        3.741    -0.050    21.549     6.623
    11   7 N        2.871     0.041    20.516     6.727
    12   6 C        3.054    -0.012    28.254     8.717
    13   6 C        3.045    -0.007    28.163     8.704
    14   7 N        2.877     0.041    20.522     6.728
    15   6 C        3.097     0.107    25.535     8.282
    16   6 C        3.754    -0.133    23.118     6.856
    17   6 C        3.747    -0.027    21.118     6.555
    18   6 C        2.972    -0.003    28.095     8.694
    19   6 C        2.923    -0.039    28.970     8.827
    20   6 C        2.919    -0.025    28.618     8.772
    21   6 C        2.920    -0.022    28.551     8.762
    22   6 C        2.919    -0.023    28.578     8.766
    23   6 C        2.922    -0.038    28.952     8.824
    24   1 H        0.926     0.085     1.929     2.172
    25   1 H        0.926     0.085     1.924     2.169
    26   1 H        0.926     0.046     2.374     2.410
    27   1 H        0.926     0.071     2.074     2.252
    28   1 H        0.924     0.095     1.831     2.116
    29   1 H        0.924     0.111     1.691     2.034
    30   1 H        0.926     0.103     1.757     2.073
    31   1 H        0.926     0.103     1.759     2.074
    32   1 H        0.924     0.102     1.764     2.077
    33   1 H        0.925     0.089     1.892     2.151
    34   1 H        0.924     0.102     1.770     2.080
    35   1 H        0.924     0.084     1.938     2.177
    36   1 H        0.924     0.091     1.866     2.136
    37   1 H        0.925     0.028     2.615     2.529
    38   1 H        0.926     0.056     2.243     2.342
    39   1 H        0.926     0.059     2.210     2.325
    40   1 H        0.926     0.059     2.215     2.328
    41   1 H        0.926     0.044     2.395     2.420

Wiberg/Mayer (AO) data.
largest (>0.10) Wiberg bond orders for each atom

     #   Z sym  total        # sym  WBO       # sym  WBO       # sym  WBO
 ---------------------------------------------------------------------------
     1  17 Cl   1.178 --     2 C    1.022
     2   6 C    3.927 --     3 C    1.383     7 C    1.375     1 Cl   1.022
     3   6 C    3.986 --     4 C    1.468     2 C    1.383    24 H    0.962
     4   6 C    3.984 --     3 C    1.468     5 C    1.359    25 H    0.962
     5   6 C    3.987 --     6 C    1.363     4 C    1.359     8 C    1.048
     6   6 C    3.991 --     7 C    1.474     5 C    1.363    26 H    0.965
     7   6 C    3.988 --     6 C    1.474     2 C    1.375    27 H    0.964
     8   6 C    3.929 --     9 O    1.864     5 C    1.048    10 C    0.923
     9   8 O    2.114 --     8 C    1.864
    10   6 C    3.940 --    11 N    0.983    29 H    0.952    28 H    0.947
                             8 C    0.923
    11   7 N    3.690 --    15 C    1.320    12 C    1.200    10 C    0.983
    12   6 C    3.947 --    13 C    1.611    11 N    1.200    30 H    0.962
    13   6 C    3.950 --    12 C    1.611    14 N    1.211    31 H    0.961
    14   7 N    3.691 --    15 C    1.323    13 C    1.211    17 C    0.965
    15   6 C    3.951 --    14 N    1.323    11 N    1.320    16 C    1.047
    16   6 C    3.978 --    15 C    1.047    33 H    0.970    34 H    0.949
                            32 H    0.947
    17   6 C    3.937 --    18 C    0.980    14 N    0.965    36 H    0.958
                            35 H    0.957
    18   6 C    3.979 --    23 C    1.415    19 C    1.412    17 C    0.980
                            21 C    0.109
    19   6 C    3.992 --    20 C    1.445    18 C    1.412    37 H    0.969
                            22 C    0.112
    20   6 C    3.990 --    19 C    1.445    21 C    1.437    38 H    0.968
                            23 C    0.110
    21   6 C    3.989 --    22 C    1.441    20 C    1.437    39 H    0.969
                            18 C    0.109
    22   6 C    3.989 --    21 C    1.441    23 C    1.439    40 H    0.968
                            19 C    0.112
    23   6 C    3.990 --    22 C    1.439    18 C    1.415    41 H    0.968
                            20 C    0.110
    24   1 H    0.992 --     3 C    0.962
    25   1 H    0.993 --     4 C    0.962
    26   1 H    0.998 --     6 C    0.965
    27   1 H    0.994 --     7 C    0.964
    28   1 H    0.990 --    10 C    0.947
    29   1 H    0.987 --    10 C    0.952
    30   1 H    0.989 --    12 C    0.962
    31   1 H    0.989 --    13 C    0.961
    32   1 H    0.989 --    16 C    0.947
    33   1 H    0.992 --    16 C    0.970
    34   1 H    0.989 --    16 C    0.949
    35   1 H    0.992 --    17 C    0.957
    36   1 H    0.991 --    17 C    0.958
    37   1 H    0.999 --    19 C    0.969
    38   1 H    0.996 --    20 C    0.968
    39   1 H    0.996 --    21 C    0.969
    40   1 H    0.996 --    22 C    0.968
    41   1 H    0.998 --    23 C    0.968
 ---------------------------------------------------------------------------

molecular dipole:
                 x           y           z       tot (Debye)
 q only:        7.866       6.692      -2.676
   full:        7.589       6.893      -2.703      26.949

           -------------------------------------------------
          | TOTAL ENERGY              -63.947389138678 Eh   |
          | GRADIENT NORM               0.000934451577 Eh/α |
          | HOMO-LUMO GAP               2.773986486955 eV   |
           -------------------------------------------------

 * finished run on 2024/12/20 at 06:51:30.050
