   * xtb version 6.7.1 (edcfbbe) compiled by 'conda@3ef47c1a292c' on 2024-11-25

   ID    Z sym.   atoms
    1    6 C      1-12, 14, 16-27
    2    7 N      13
    3    8 O      15
    4    1 H      28-79

          program call               : xtb C0634.xyz --opt --namespace C0634 --charge +1
          :  Hamiltonian                  GFN2-xTB          :
 * total energy  :   -86.6785649 Eh     change       -0.3507807E-09 Eh
 * total energy  :   -86.6864940 Eh     change       -0.7929108E-02 Eh
 * total energy  :   -86.6886988 Eh     change       -0.2204775E-02 Eh
 * total energy  :   -86.6893104 Eh     change       -0.6115946E-03 Eh
 * total energy  :   -86.6900355 Eh     change       -0.7251425E-03 Eh
 * total energy  :   -86.6905633 Eh     change       -0.5277438E-03 Eh
 * total energy  :   -86.6911016 Eh     change       -0.5383134E-03 Eh
 * total energy  :   -86.6914496 Eh     change       -0.3480711E-03 Eh
 * total energy  :   -86.6916627 Eh     change       -0.2130435E-03 Eh
 * total energy  :   -86.6918213 Eh     change       -0.1585691E-03 Eh
 * total energy  :   -86.6977559 Eh     change       -0.1037155E-04 Eh
 * total energy  :   -86.6977685 Eh     change       -0.1253039E-04 Eh
 * total energy  :   -86.6977855 Eh     change       -0.1702520E-04 Eh
 * total energy  :   -86.6978078 Eh     change       -0.2229416E-04 Eh
 * total energy  :   -86.6978334 Eh     change       -0.2562937E-04 Eh
 * total energy  :   -86.6978573 Eh     change       -0.2392892E-04 Eh
 * total energy  :   -86.6978634 Eh     change       -0.6036417E-05 Eh
 * total energy  :   -86.6978685 Eh     change       -0.5114490E-05 Eh
 * total energy  :   -86.6978725 Eh     change       -0.3983676E-05 Eh
   *** GEOMETRY OPTIMIZATION CONVERGED AFTER 96 ITERATIONS ***

 final structure:
================
79
 xtb: 6.7.1 (edcfbbe)
C            8.71793792350767        8.98657863786435       13.25259625181409
C            7.68612056936674        8.55239798740553       14.28668851330859
C            6.26382072228274        8.99976840129627       13.94536391542831
C            5.70573811722475        8.43564222073573       12.63701534415333
C            5.65292016126560        6.90856424610685       12.56187424722040
C            4.81334982687549        6.23788531357749       13.65074987133201
C            3.33936625999150        6.64822859059350       13.67430055661617
C            2.57453414746404        6.38557278651668       12.37488782181678
C            2.60077359835679        4.93297310646527       11.89271497861496
C            2.03842733862722        3.91843087913660       12.89113232537939
C            0.57495212278010        4.13906131534733       13.28556420140216
C           -0.47009702692339        4.23645697687229       12.17398585686384
N           -0.82073728488356        2.99105285758630       11.41098350870635
C           -2.11445457466424        3.24909982031604       10.70405879384188
O           -1.95198999188257        4.37620751862702        9.92544461183225
C           -3.01204366389806        4.61493244756656        8.97068017030040
C           -3.00086140922966        6.10750431178511        8.65038212037712
C           -1.74534245366194        6.57736826050581        7.89649269953198
C           -0.67636851982157        7.10501347495685        8.84913309791624
C           -1.18658273173940        5.44796115053303        7.02340024373741
C           -2.30490164539956        4.53208495977165        6.54015653320992
C           -2.85055734726799        3.72142818829252        7.72048333208373
C           -4.13988415868244        2.93381303965758        7.40274050973680
C           -5.31672446348938        3.82023681125096        7.00303150224832
C           -3.88830130531023        1.89014336109624        6.31520875632579
C            0.19055557940177        2.68463722607551       10.38175518186648
C           -0.98921032274607        1.83771637944977       12.30852456438687
H            8.55421776073885        8.48994100253219       12.29951408362910
H            9.71991055645282        8.73761047899596       13.59405556996486
H            8.66840389715986       10.06159767605840       13.09442122149427
H            7.71907831189083        7.46733543739808       14.40089011815659
H            7.95282406510029        8.98698851016699       15.25298196402748
H            5.60315052443808        8.72543498323331       14.77071971760307
H            6.25182921274293       10.09004919382564       13.87248966764803
H            4.70223952723373        8.84178320813166       12.48991392467657
H            6.31694127070513        8.79376055828776       11.80682094779604
H            5.26811369603197        6.62718866043755       11.57859808489733
H            6.66800532366715        6.51369532103141       12.62829669739531
H            4.88991695184912        5.15489794389476       13.52580530594715
H            5.24277108883265        6.47320974314310       14.62562249224908
H            2.85048067100001        6.12692161184016       14.50121899999487
H            3.27128335728356        7.71496896410861       13.89153471739305
H            1.54038167304101        6.71285673647257       12.51008266065253
H            2.99933776778863        7.00504228747591       11.58411923693152
H            2.05990701632617        4.87763048838982       10.94464578198017
H            3.63319433142399        4.65297174377672       11.68149313273347
H            2.19258242851681        2.90673410610033       12.50657071400048
H            2.62384415042126        3.98003346026487       13.80904434113306
H            0.28600464640630        3.38437640811122       14.01809107594754
H            0.51853085120095        5.10068489520128       13.79944857365073
H           -1.39886180766330        4.58380591276556       12.63158062405449
H           -0.16843901923558        4.98211102710275       11.43892462348129
H           -2.35960655928029        2.36092121857638       10.10011440215535
H           -2.90615234598516        3.38623189330464       11.46072810951633
H           -3.95766486571546        4.37751819693485        9.47862018781483
H           -3.09819585857445        6.66561854299364        9.58231813259592
H           -3.88715158160656        6.30860953470047        8.05019848924312
H           -2.04717596176250        7.40229920006934        7.24450320186114
H            0.20632574858388        7.40939753832595        8.29207389046388
H           -1.04432639684606        7.96605974168191        9.40141839057571
H           -0.39053669790332        6.33420267145904        9.56075743622852
H           -0.65363739824030        5.87183056208038        6.17231984124788
H           -0.46831038311981        4.85849991806358        7.59923307120191
H           -1.92280491817485        3.84856643309081        5.78238655771666
H           -3.08933465960995        5.13425338958997        6.08585819138720
H           -2.08080684134748        2.97579401285129        7.96283672729879
H           -4.42251090059478        2.39917656517088        8.32116357082202
H           -5.12660415924995        4.31848816583367        6.05715246809228
H           -6.20661694242447        3.20792402269042        6.88198837532787
H           -5.52659287550711        4.57241151889619        7.75904912786803
H           -3.03389844543487        1.26255780831858        6.56070208055192
H           -4.75973267639524        1.25012418019784        6.20667172741267
H           -3.70217576828954        2.36823561993336        5.35804463267258
H            1.17340289067925        2.59068984028329       10.83077126689904
H           -0.06364853154325        1.75124953302182        9.88150208524417
H            0.20058155372005        3.48844437417266        9.64727640930634
H           -0.02795512706345        1.54884280148359       12.72689734935151
H           -1.67284251185425        2.08737050082083       13.11823473019589
H           -1.39520550814181        0.99142158794891       11.75617575915956

          :  Hamiltonian                  GFN2-xTB          :
         :: total energy             -86.697872472167 Eh    ::
         :: gradient norm              0.000356273441 Eh/a0 ::
         :: HOMO-LUMO gap              6.557546462337 eV    ::
         :: SCC energy               -87.898661021627 Eh    ::
         :: -> dispersion             -0.072023842851 Eh    ::
         :: repulsion energy           1.200788549460 Eh    ::

    * Orbital Energies and Occupations

         #    Occupation            Energy/Eh            Energy/eV
      -------------------------------------------------------------
         1        2.0000           -0.8651909             -23.5430
       ...           ...                  ...                  ...
        69        2.0000           -0.5188060             -14.1174
        70        2.0000           -0.5180449             -14.0967
        71        2.0000           -0.5148640             -14.0102
        72        2.0000           -0.5126452             -13.9498
        73        2.0000           -0.5076263             -13.8132
        74        2.0000           -0.5046001             -13.7309
        75        2.0000           -0.5025001             -13.6737
        76        2.0000           -0.4976225             -13.5410
        77        2.0000           -0.4936911             -13.4340
        78        2.0000           -0.4898647             -13.3299
        79        2.0000           -0.4750537             -12.9269
        80        2.0000           -0.4711608             -12.8209
        81        2.0000           -0.4688261             -12.7574 (HOMO)
        82                         -0.2278407              -6.1999 (LUMO)
        83                         -0.1724896              -4.6937
        84                         -0.1509253              -4.1069
        85                         -0.1378384              -3.7508
        86                         -0.1063352              -2.8935
        87                         -0.0731912              -1.9916
        88                         -0.0563802              -1.5342
        89                         -0.0528919              -1.4393
        90                         -0.0436111              -1.1867
        91                         -0.0319917              -0.8705
        92                         -0.0291750              -0.7939
       ...                                ...                  ...
       160                          0.2536127               6.9012
      -------------------------------------------------------------
                  HL-Gap            0.2409854 Eh            6.5575 eV

     #   Z          covCN         q      C6AA      α(0)
     1   6 C        3.751    -0.103    22.522     6.768
     2   6 C        3.799    -0.053    21.521     6.605
     3   6 C        3.800    -0.058    21.618     6.620
     4   6 C        3.800    -0.058    21.617     6.620
     5   6 C        3.800    -0.058    21.613     6.619
     6   6 C        3.800    -0.059    21.633     6.622
     7   6 C        3.800    -0.060    21.653     6.625
     8   6 C        3.800    -0.061    21.681     6.630
     9   6 C        3.800    -0.065    21.740     6.639
    10   6 C        3.799    -0.066    21.758     6.641
    11   6 C        3.799    -0.076    21.945     6.670
    12   6 C        3.755    -0.036    21.278     6.577
    13   7 N        3.620     0.121    19.175     6.504
    14   6 C        3.667     0.125    18.779     6.214
    15   8 O        1.699    -0.311    19.183     5.913
    16   6 C        3.743     0.109    18.862     6.196
    17   6 C        3.805    -0.070    21.834     6.652
    18   6 C        3.851    -0.015    20.806     6.488
    19   6 C        3.755    -0.108    22.629     6.783
    20   6 C        3.808    -0.062    21.689     6.629
    21   6 C        3.805    -0.065    21.751     6.639
    22   6 C        3.853    -0.034    21.135     6.539
    23   6 C        3.849    -0.014    20.791     6.486
    24   6 C        3.755    -0.113    22.713     6.795
    25   6 C        3.756    -0.112    22.692     6.792
    26   6 C        3.719    -0.090    22.338     6.751
    27   6 C        3.715    -0.093    22.409     6.763
    28   1 H        0.925     0.033     2.540     2.492
    29   1 H        0.925     0.034     2.528     2.486
    30   1 H        0.925     0.036     2.508     2.476
    31   1 H        0.924     0.029     2.597     2.520
    32   1 H        0.924     0.030     2.590     2.517
    33   1 H        0.924     0.027     2.630     2.536
    34   1 H        0.924     0.032     2.561     2.502
    35   1 H        0.924     0.026     2.648     2.545
    36   1 H        0.924     0.035     2.512     2.478
    37   1 H        0.924     0.024     2.676     2.558
    38   1 H        0.924     0.037     2.491     2.468
    39   1 H        0.924     0.024     2.679     2.560
    40   1 H        0.924     0.040     2.455     2.450
    41   1 H        0.924     0.023     2.682     2.561
    42   1 H        0.924     0.042     2.423     2.434
    43   1 H        0.924     0.022     2.696     2.568
    44   1 H        0.924     0.045     2.379     2.412
    45   1 H        0.924     0.021     2.721     2.580
    46   1 H        0.924     0.051     2.306     2.375
    47   1 H        0.924     0.022     2.696     2.568
    48   1 H        0.924     0.063     2.162     2.299
    49   1 H        0.924     0.051     2.302     2.373
    50   1 H        0.924     0.080     1.978     2.199
    51   1 H        0.924     0.079     1.992     2.207
    52   1 H        0.925     0.107     1.727     2.055
    53   1 H        0.923     0.060     2.201     2.320
    54   1 H        0.923     0.056     2.248     2.345
    55   1 H        0.923     0.022     2.706     2.573
    56   1 H        0.924     0.052     2.290     2.367
    57   1 H        0.925     0.058     2.228     2.334
    58   1 H        0.924     0.043     2.408     2.427
    59   1 H        0.925     0.044     2.392     2.419
    60   1 H        0.925     0.041     2.429     2.437
    61   1 H        0.925     0.029     2.606     2.525
    62   1 H        0.925     0.043     2.409     2.427
    63   1 H        0.924     0.028     2.611     2.527
    64   1 H        0.925     0.046     2.373     2.409
    65   1 H        0.925     0.050     2.316     2.380
    66   1 H        0.923     0.026     2.651     2.546
    67   1 H        0.923     0.015     2.818     2.625
    68   1 H        0.925     0.048     2.347     2.395
    69   1 H        0.925     0.050     2.325     2.384
    70   1 H        0.925     0.032     2.559     2.501
    71   1 H        0.925     0.030     2.579     2.512
    72   1 H        0.925     0.048     2.340     2.392
    73   1 H        0.925     0.049     2.330     2.387
    74   1 H        0.925     0.107     1.725     2.054
    75   1 H        0.925     0.087     1.913     2.163
    76   1 H        0.925     0.111     1.692     2.034
    77   1 H        0.925     0.109     1.707     2.043
    78   1 H        0.925     0.096     1.824     2.112
    79   1 H        0.925     0.091     1.868     2.137

Wiberg/Mayer (AO) data.
largest (>0.10) Wiberg bond orders for each atom

     #   Z sym  total        # sym  WBO       # sym  WBO       # sym  WBO
 ---------------------------------------------------------------------------
     1   6 C    3.997 --     2 C    1.020    30 H    0.987    29 H    0.987
                            28 H    0.986
     2   6 C    3.998 --     1 C    1.020     3 C    1.008    32 H    0.978
                            31 H    0.976
     3   6 C    3.997 --     2 C    1.008     4 C    1.008    34 H    0.977
                            33 H    0.976
     4   6 C    3.997 --     5 C    1.008     3 C    1.008    35 H    0.975
                            36 H    0.975
     5   6 C    3.997 --     4 C    1.008     6 C    1.008    37 H    0.975
                            38 H    0.974
     6   6 C    3.997 --     5 C    1.008     7 C    1.008    39 H    0.975
                            40 H    0.974
     7   6 C    3.996 --     6 C    1.008     8 C    1.007    41 H    0.975
                            42 H    0.974
     8   6 C    3.996 --     7 C    1.007     9 C    1.007    43 H    0.976
                            44 H    0.973
     9   6 C    3.995 --    10 C    1.007     8 C    1.007    45 H    0.974
                            46 H    0.972
    10   6 C    3.992 --     9 C    1.007    11 C    1.005    48 H    0.968
                            47 H    0.968
    11   6 C    3.983 --    12 C    1.007    10 C    1.005    49 H    0.971
                            50 H    0.960
    12   6 C    3.916 --    11 C    1.007    51 H    0.968    52 H    0.957
                            13 N    0.911
    13   7 N    3.804 --    27 C    0.962    26 C    0.954    14 C    0.924
                            12 C    0.911
    14   6 C    3.937 --    15 O    1.036    54 H    0.954    53 H    0.953
                            13 N    0.924
    15   8 O    2.076 --    14 C    1.036    16 C    0.906
    16   6 C    3.913 --    17 C    0.995    22 C    0.975    55 H    0.962
                            15 O    0.906
    17   6 C    3.990 --    16 C    0.995    18 C    0.992    56 H    0.973
                            57 H    0.969
    18   6 C    3.994 --    19 C    1.011    20 C    0.995    17 C    0.992
                            58 H    0.970
    19   6 C    3.996 --    18 C    1.011    60 H    0.986    59 H    0.986
                            61 H    0.982
    20   6 C    3.997 --    21 C    1.008    18 C    0.995    62 H    0.978
                            63 H    0.974
    21   6 C    3.995 --    20 C    1.008    22 C    0.997    64 H    0.975
                            65 H    0.971
    22   6 C    3.992 --    21 C    0.997    23 C    0.981    16 C    0.975
                            66 H    0.961
    23   6 C    3.995 --    24 C    1.011    25 C    1.008    22 C    0.981
                            67 H    0.967
    24   6 C    3.995 --    23 C    1.011    69 H    0.984    70 H    0.983
                            68 H    0.982
    25   6 C    3.994 --    23 C    1.008    71 H    0.986    72 H    0.985
                            73 H    0.984
    26   6 C    3.920 --    75 H    0.977    76 H    0.968    74 H    0.963
                            13 N    0.954
    27   6 C    3.930 --    78 H    0.975    79 H    0.975    77 H    0.971
                            13 N    0.962
    28   1 H    0.999 --     1 C    0.986
    29   1 H    0.999 --     1 C    0.987
    30   1 H    0.999 --     1 C    0.987
    31   1 H    0.999 --     2 C    0.976
    32   1 H    0.999 --     2 C    0.978
    33   1 H    0.999 --     3 C    0.976
    34   1 H    0.999 --     3 C    0.977
    35   1 H    0.999 --     4 C    0.975
    36   1 H    0.999 --     4 C    0.975
    37   1 H    0.999 --     5 C    0.975
    38   1 H    0.999 --     5 C    0.974
    39   1 H    0.999 --     6 C    0.975
    40   1 H    0.998 --     6 C    0.974
    41   1 H    0.999 --     7 C    0.975
    42   1 H    0.998 --     7 C    0.974
    43   1 H    0.999 --     8 C    0.976
    44   1 H    0.998 --     8 C    0.973
    45   1 H    1.000 --     9 C    0.974
    46   1 H    0.997 --     9 C    0.972
    47   1 H    0.999 --    10 C    0.968
    48   1 H    0.996 --    10 C    0.968
    49   1 H    0.997 --    11 C    0.971
    50   1 H    0.993 --    11 C    0.960
    51   1 H    0.994 --    12 C    0.968
    52   1 H    0.989 --    12 C    0.957
    53   1 H    0.996 --    14 C    0.953
    54   1 H    0.997 --    14 C    0.954
    55   1 H    1.000 --    16 C    0.962
    56   1 H    0.997 --    17 C    0.973
    57   1 H    0.996 --    17 C    0.969
    58   1 H    0.998 --    18 C    0.970
    59   1 H    0.998 --    19 C    0.986
    60   1 H    0.998 --    19 C    0.986
    61   1 H    0.999 --    19 C    0.982
    62   1 H    0.998 --    20 C    0.978
    63   1 H    0.999 --    20 C    0.974
    64   1 H    0.998 --    21 C    0.975
    65   1 H    0.997 --    21 C    0.971
    66   1 H    0.999 --    22 C    0.961
    67   1 H    1.000 --    23 C    0.967
    68   1 H    0.998 --    24 C    0.982
    69   1 H    0.997 --    24 C    0.984
    70   1 H    0.999 --    24 C    0.983
    71   1 H    0.999 --    25 C    0.986
    72   1 H    0.997 --    25 C    0.985
    73   1 H    0.998 --    25 C    0.984
    74   1 H    0.989 --    26 C    0.963
    75   1 H    0.992 --    26 C    0.977
    76   1 H    0.988 --    26 C    0.968
    77   1 H    0.987 --    27 C    0.971
    78   1 H    0.991 --    27 C    0.975
    79   1 H    0.992 --    27 C    0.975
 ---------------------------------------------------------------------------

molecular dipole:
                 x           y           z       tot (Debye)
 q only:       -1.414       6.376      20.895
   full:       -1.717       6.102      21.019      55.800

           -------------------------------------------------
          | TOTAL ENERGY              -86.697872472167 Eh   |
          | GRADIENT NORM               0.000356273441 Eh/α |
          | HOMO-LUMO GAP               6.557546462337 eV   |
           -------------------------------------------------

 * finished run on 2024/12/20 at 06:51:15.407
