   * xtb version 6.7.1 (edcfbbe) compiled by 'conda@3ef47c1a292c' on 2024-11-25

   ID    Z sym.   atoms
    1    6 C      1, 3-5, 10, 11
    2    7 N      2
    3   16 S      6
    4    8 O      7-9
    5    1 H      12-27

          program call               : xtb C0630.xyz --opt --namespace C0630 --charge +1
          :  Hamiltonian                  GFN2-xTB          :
 * total energy  :   -38.9618017 Eh     change       -0.2627587E-10 Eh
 * total energy  :   -38.9699285 Eh     change       -0.8126766E-02 Eh
 * total energy  :   -38.9729399 Eh     change       -0.3011437E-02 Eh
 * total energy  :   -38.9736183 Eh     change       -0.6784002E-03 Eh
 * total energy  :   -38.9742648 Eh     change       -0.6464476E-03 Eh
 * total energy  :   -38.9744801 Eh     change       -0.2153858E-03 Eh
 * total energy  :   -38.9747491 Eh     change       -0.2689800E-03 Eh
 * total energy  :   -38.9750240 Eh     change       -0.2749213E-03 Eh
 * total energy  :   -38.9752313 Eh     change       -0.2072819E-03 Eh
 * total energy  :   -38.9754127 Eh     change       -0.1813854E-03 Eh
 * total energy  :   -38.9756846 Eh     change       -0.3159624E-04 Eh
 * total energy  :   -38.9757076 Eh     change       -0.2294495E-04 Eh
 * total energy  :   -38.9757259 Eh     change       -0.1830702E-04 Eh
 * total energy  :   -38.9757436 Eh     change       -0.1774653E-04 Eh
 * total energy  :   -38.9757553 Eh     change       -0.1160226E-04 Eh
 * total energy  :   -38.9757672 Eh     change       -0.1192443E-04 Eh
 * total energy  :   -38.9757767 Eh     change       -0.9559224E-05 Eh
 * total energy  :   -38.9757823 Eh     change       -0.5535617E-05 Eh
 * total energy  :   -38.9757865 Eh     change       -0.4272917E-05 Eh
   *** GEOMETRY OPTIMIZATION CONVERGED AFTER 21 ITERATIONS ***

 final structure:
================
27
 xtb: 6.7.1 (edcfbbe)
C            1.26637676132530        0.22702987600506       -0.05219921603420
N            0.57228077693972        0.24102144831326       -1.35199612431829
C            0.80278053265524       -1.03902021785959       -2.08846737928423
C            0.13723883449539       -2.30898864777459       -1.54849961016976
C           -1.26864399252166       -2.58296506441698       -2.05848547788597
S           -1.33226975323506       -2.42209115798775       -3.86474730588937
O           -0.02234070048781       -2.58139214209187       -4.40039791804139
O           -2.43471208841415       -3.13193340465167       -4.40322615965335
O           -1.70308204010349       -0.82562823686606       -3.94900946009992
C           -0.86218476264255        0.49861399221952       -1.14220278933334
C            1.12869881870696        1.33081005493102       -2.17788108174755
H            0.90549146664579       -0.58855514872529        0.56975158762786
H            1.09149049817624        1.16331424411347        0.47493460939311
H            2.33797900811260        0.10566457986624       -0.19730914368172
H            0.48020979114955       -0.90798391955850       -3.12119577617816
H            1.88218527462943       -1.20107781271529       -2.09961776440546
H            0.76108706966362       -3.13343513059529       -1.89814377943477
H            0.14718360967824       -2.34276416282305       -0.45732472608459
H           -1.55669224326420       -3.61038282777505       -1.85652232122988
H           -2.03947508176958       -1.92400183413241       -1.67754586030770
H           -2.41537292021690       -0.70153175254549       -4.58106573076577
H           -1.00564031339740        1.51019387621295       -0.76514955798706
H           -1.39310418236985        0.39419737247362       -2.08723813060397
H           -1.26965992767655       -0.19738162237365       -0.41322543771438
H            1.04435543062205        2.28101093819138       -1.65294630398818
H            2.17892371948566        1.14551698044764       -2.39487330928269
H            0.58596641381168        1.39959972011759       -3.11871583290241

          :  Hamiltonian                  GFN2-xTB          :
         :: total energy             -38.975786542724 Eh    ::
         :: gradient norm              0.000624588312 Eh/a0 ::
         :: HOMO-LUMO gap              7.756700372222 eV    ::
         :: SCC energy               -39.375660220405 Eh    ::
         :: -> dispersion             -0.022630965068 Eh    ::
         :: repulsion energy           0.399873677681 Eh    ::

    * Orbital Energies and Occupations

         #    Occupation            Energy/Eh            Energy/eV
      -------------------------------------------------------------
         1        2.0000           -0.9170271             -24.9536
       ...           ...                  ...                  ...
        22        2.0000           -0.6558351             -17.8462
        23        2.0000           -0.6504300             -17.6991
        24        2.0000           -0.6485931             -17.6491
        25        2.0000           -0.6465891             -17.5946
        26        2.0000           -0.6393642             -17.3980
        27        2.0000           -0.6324611             -17.2101
        28        2.0000           -0.6260754             -17.0364
        29        2.0000           -0.6145473             -16.7227
        30        2.0000           -0.6077666             -16.5382
        31        2.0000           -0.5866199             -15.9627
        32        2.0000           -0.5835867             -15.8802
        33        2.0000           -0.5695182             -15.4974
        34        2.0000           -0.5596969             -15.2301 (HOMO)
        35                         -0.2746434              -7.4734 (LUMO)
        36                         -0.2332058              -6.3459
        37                         -0.2285489              -6.2191
        38                         -0.1778130              -4.8385
        39                         -0.1664558              -4.5295
        40                         -0.1628948              -4.4326
        41                         -0.1538129              -4.1855
        42                         -0.1450861              -3.9480
        43                         -0.0951000              -2.5878
        44                         -0.0681483              -1.8544
        45                         -0.0362862              -0.9874
       ...                                ...                  ...
        65                          1.1646265              31.6911
      -------------------------------------------------------------
                  HL-Gap            0.2850535 Eh            7.7567 eV

     #   Z          covCN         q      C6AA      α(0)
     1   6 C        3.722    -0.103    22.580     6.786
     2   7 N        3.622     0.151    18.689     6.421
     3   6 C        3.764    -0.066    21.816     6.658
     4   6 C        3.839    -0.082    22.027     6.677
     5   6 C        3.796    -0.186    24.151     6.998
     6  16 S        3.600     1.326    97.789    16.644
     7   8 O        0.860    -0.580    25.638     6.789
     8   8 O        0.860    -0.568    25.342     6.749
     9   8 O        1.662    -0.577    24.623     6.699
    10   6 C        3.721    -0.111    22.742     6.811
    11   6 C        3.733    -0.106    22.627     6.789
    12   1 H        0.925     0.100     1.785     2.089
    13   1 H        0.925     0.104     1.750     2.069
    14   1 H        0.925     0.103     1.761     2.075
    15   1 H        0.925     0.120     1.613     1.986
    16   1 H        0.924     0.103     1.760     2.074
    17   1 H        0.924     0.103     1.759     2.074
    18   1 H        0.924     0.082     1.957     2.188
    19   1 H        0.925     0.106     1.731     2.057
    20   1 H        0.926     0.090     1.878     2.143
    21   1 H        0.819     0.359     0.565     1.179
    22   1 H        0.925     0.103     1.761     2.075
    23   1 H        0.925     0.115     1.653     2.010
    24   1 H        0.925     0.099     1.795     2.095
    25   1 H        0.925     0.105     1.742     2.064
    26   1 H        0.925     0.104     1.751     2.069
    27   1 H        0.925     0.108     1.717     2.049

Wiberg/Mayer (AO) data.
largest (>0.10) Wiberg bond orders for each atom

     #   Z sym  total        # sym  WBO       # sym  WBO       # sym  WBO
 ---------------------------------------------------------------------------
     1   6 C    3.926 --    14 H    0.974    13 H    0.974    12 H    0.971
                             2 N    0.959
     2   7 N    3.819 --     1 C    0.959    10 C    0.957    11 C    0.955
                             3 C    0.928
     3   6 C    3.925 --     4 C    1.009    16 H    0.964    15 H    0.952
                             2 N    0.928
     4   6 C    3.984 --     5 C    1.020     3 C    1.009    17 H    0.962
                            18 H    0.960
     5   6 C    3.977 --     4 C    1.020    20 H    0.967    19 H    0.965
                             6 S    0.735     7 O    0.110     8 O    0.102
     6  16 S    4.881 --     8 O    1.614     7 O    1.588     9 O    0.912
                             5 C    0.735
     7   8 O    1.914 --     6 S    1.588     8 O    0.120     5 C    0.110
     8   8 O    1.927 --     6 S    1.614     7 O    0.120     5 C    0.102
     9   8 O    1.990 --     6 S    0.912    21 H    0.850
    10   6 C    3.922 --    22 H    0.974    24 H    0.973    23 H    0.965
                             2 N    0.957
    11   6 C    3.922 --    26 H    0.974    27 H    0.973    25 H    0.973
                             2 N    0.955
    12   1 H    0.990 --     1 C    0.971
    13   1 H    0.989 --     1 C    0.974
    14   1 H    0.989 --     1 C    0.974
    15   1 H    0.986 --     3 C    0.952
    16   1 H    0.989 --     3 C    0.964
    17   1 H    0.989 --     4 C    0.962
    18   1 H    0.993 --     4 C    0.960
    19   1 H    0.989 --     5 C    0.965
    20   1 H    0.992 --     5 C    0.967
    21   1 H    0.871 --     9 O    0.850
    22   1 H    0.989 --    10 C    0.974
    23   1 H    0.987 --    10 C    0.965
    24   1 H    0.990 --    10 C    0.973
    25   1 H    0.989 --    11 C    0.973
    26   1 H    0.989 --    11 C    0.974
    27   1 H    0.988 --    11 C    0.973
 ---------------------------------------------------------------------------

molecular dipole:
                 x           y           z       tot (Debye)
 q only:        0.555       0.571      -1.572
   full:        0.343       0.622      -1.635       4.530

           -------------------------------------------------
          | TOTAL ENERGY              -38.975786542724 Eh   |
          | GRADIENT NORM               0.000624588312 Eh/α |
          | HOMO-LUMO GAP               7.756700372222 eV   |
           -------------------------------------------------

 * finished run on 2024/12/20 at 06:51:00.107
