   * xtb version 6.7.1 (edcfbbe) compiled by 'conda@3ef47c1a292c' on 2024-11-25

   ID    Z sym.   atoms
    1    6 C      1-16, 18-25
    2    7 N      17
    3    1 H      26-75

          program call               : xtb C0636.xyz --opt --namespace C0636 --charge +1
          :  Hamiltonian                  GFN2-xTB          :
 * total energy  :   -79.4548446 Eh     change       -0.3375078E-10 Eh
 * total energy  :   -79.4628895 Eh     change       -0.8044939E-02 Eh
 * total energy  :   -79.4651218 Eh     change       -0.2232263E-02 Eh
 * total energy  :   -79.4654172 Eh     change       -0.2954010E-03 Eh
 * total energy  :   -79.4657739 Eh     change       -0.3567268E-03 Eh
 * total energy  :   -79.4659072 Eh     change       -0.1333199E-03 Eh
 * total energy  :   -79.4660587 Eh     change       -0.1515052E-03 Eh
 * total energy  :   -79.4661642 Eh     change       -0.1054915E-03 Eh
 * total energy  :   -79.4662381 Eh     change       -0.7386505E-04 Eh
 * total energy  :   -79.4663007 Eh     change       -0.6260724E-04 Eh
 * total energy  :   -79.4676981 Eh     change       -0.2364377E-04 Eh
 * total energy  :   -79.4677160 Eh     change       -0.1791809E-04 Eh
 * total energy  :   -79.4677283 Eh     change       -0.1233974E-04 Eh
 * total energy  :   -79.4677404 Eh     change       -0.1209155E-04 Eh
 * total energy  :   -79.4677571 Eh     change       -0.1671655E-04 Eh
 * total energy  :   -79.4677752 Eh     change       -0.1808272E-04 Eh
 * total energy  :   -79.4677880 Eh     change       -0.1275236E-04 Eh
 * total energy  :   -79.4677961 Eh     change       -0.8158789E-05 Eh
 * total energy  :   -79.4678005 Eh     change       -0.4366008E-05 Eh
   *** GEOMETRY OPTIMIZATION CONVERGED AFTER 44 ITERATIONS ***

 final structure:
================
75
 xtb: 6.7.1 (edcfbbe)
C            0.95027293980228        1.04323580752314        0.51127103883264
C            1.31801302805596        1.34818439853208       -0.93601842371224
C            1.56476129878394        0.09260858312471       -1.77402981216682
C            0.35712659943557       -0.83624583409268       -1.91630980882483
C           -0.87880894396921       -0.19665568174171       -2.55115122817853
C           -0.67383610342624        0.33130107455271       -3.97221561261883
C           -0.27977380541881       -0.72723512630190       -5.00485170679756
C           -1.25875148508809       -1.89607632480680       -5.13970318524410
C           -2.70418214914023       -1.49452882037476       -5.43830244352394
C           -2.90158718371124       -0.73337600784636       -6.75011981735088
C           -2.60143877824368       -1.54003623516951       -8.01522040473679
C           -3.44451924260443       -2.80626732847478       -8.19031606001590
C           -4.95709595008670       -2.58800906971729       -8.10412167730832
C           -5.52050761786236       -1.58136327437752       -9.10890506055286
C           -5.31816177904480       -1.94654299283201      -10.58314319593211
C           -5.80278944609222       -3.31757469487650      -11.06045049622186
N           -7.26721410686192       -3.60437428589795      -11.26706791803795
C           -7.92782104503218       -2.52972979921644      -12.13209001603778
C           -9.08006727421346       -3.04079528826568      -13.00378818066399
C           -9.53789522756946       -1.92569059223833      -13.95175677321763
C           -9.98989845086349       -0.68820505676942      -13.18908875904256
C           -8.87314278137241       -0.21554230431056      -12.26891815555222
C           -8.45943617318740       -1.34380748659523      -11.32111805554550
C           -7.30096393705762       -4.92208540460572      -11.94285040610391
C           -7.96189764793802       -3.77841715800617       -9.97810226314828
H           -0.00925926281580        0.53633732251600        0.57462359452976
H            0.88305889980077        1.96474786854927        1.08510174552262
H            1.70598814077780        0.40927413645542        0.97000544904847
H            0.53120228785758        1.95158211444844       -1.39225596832496
H            2.23201655417124        1.94701033266216       -0.94765094661633
H            1.90692337987945        0.39588305403521       -2.76580890030230
H            2.37577104250894       -0.47759392882042       -1.31372047443586
H            0.66042506132871       -1.70199699375606       -2.50915760004985
H            0.07741015333222       -1.20970195814041       -0.92932161468470
H           -1.68336434530792       -0.93554036843083       -2.55207340802268
H           -1.21267128020401        0.63323253349651       -1.92541869500268
H           -1.59631072356368        0.82171994574605       -4.29229482642749
H            0.10284256076639        1.09805603199537       -3.96003529417861
H           -0.16757192941044       -0.23416904538429       -5.97355182123172
H            0.69824165836016       -1.13557824839233       -4.74392652901961
H           -0.89435039689254       -2.55994039101006       -5.92732869799604
H           -1.25411099085820       -2.47203372229449       -4.21250637401609
H           -3.31845386342815       -2.39800251261687       -5.44316660365328
H           -3.07179217191745       -0.86686645451793       -4.62516982770669
H           -3.93093856253225       -0.36848303424949       -6.78576725960359
H           -2.25634442915913        0.14595153991053       -6.75107312586720
H           -2.73855462285185       -0.88610837383754       -8.88037212916610
H           -1.55175608712238       -1.83666562040257       -8.00819939107876
H           -3.18662590921894       -3.26181542606517       -9.15031080118922
H           -3.16862615328869       -3.52446049347256       -7.41693635618174
H           -5.45592685916116       -3.55484290805887       -8.21332946378623
H           -5.20016319820988       -2.22620421119062       -7.10487312170725
H           -6.57535883187333       -1.41431870336420       -8.87949737781285
H           -5.02215995089685       -0.62410083424569       -8.95329267040221
H           -5.71325397103733       -1.15186473554390      -11.21545135728826
H           -4.24043065954465       -1.96621762224996      -10.76053170142574
H           -5.32840663153076       -3.49848993451147      -12.02796839564660
H           -5.43306777044823       -4.06949017565555      -10.36133273608415
H           -7.13638606674063       -2.17797491179558      -12.80172626501125
H           -8.78442877205953       -3.88316687273884      -13.62583846654217
H           -9.92292193578132       -3.34470691050561      -12.38021183140155
H          -10.35362625146355       -2.30386501312001      -14.56757019087249
H           -8.71475099360236       -1.66172432324024      -14.61888422189480
H          -10.87767846130743       -0.92135079160608      -12.59849469794414
H          -10.25568995845052        0.10095546751095      -13.89113021899470
H           -9.20787709095041        0.63765610137011      -11.67929040523344
H           -8.01493049619817        0.10628584675259      -12.86215474520459
H           -9.34160722723416       -1.64384446401275      -10.75409476360200
H           -7.71961925128356       -0.95660489252362      -10.62648564218740
H           -6.69797400521122       -5.63444748171951      -11.38149272886959
H           -8.31804917255546       -5.30258971287159      -11.98931555717494
H           -6.89450358051868       -4.84944720674825      -12.94942797229441
H           -7.53956346872337       -4.63019431230161       -9.44773903728425
H           -7.85579454831736       -2.89884749218757       -9.35348972173377
H           -9.01864459431039       -3.97085331101339      -10.15100243214929

          :  Hamiltonian                  GFN2-xTB          :
         :: total energy             -79.467800503465 Eh    ::
         :: gradient norm              0.000283615555 Eh/a0 ::
         :: HOMO-LUMO gap              5.737517620963 eV    ::
         :: SCC energy               -80.620620629149 Eh    ::
         :: -> dispersion             -0.066182899780 Eh    ::
         :: repulsion energy           1.152820125684 Eh    ::

    * Orbital Energies and Occupations

         #    Occupation            Energy/Eh            Energy/eV
      -------------------------------------------------------------
         1        2.0000           -0.8501888             -23.1348
       ...           ...                  ...                  ...
        63        2.0000           -0.5143108             -13.9951
        64        2.0000           -0.5078850             -13.8203
        65        2.0000           -0.5046717             -13.7328
        66        2.0000           -0.4980802             -13.5535
        67        2.0000           -0.4922925             -13.3960
        68        2.0000           -0.4883625             -13.2890
        69        2.0000           -0.4844263             -13.1819
        70        2.0000           -0.4738454             -12.8940
        71        2.0000           -0.4726946             -12.8627
        72        2.0000           -0.4698337             -12.7848
        73        2.0000           -0.4597793             -12.5112
        74        2.0000           -0.4541953             -12.3593
        75        2.0000           -0.4528913             -12.3238 (HOMO)
        76                         -0.2420414              -6.5863 (LUMO)
        77                         -0.1766353              -4.8065
        78                         -0.1528658              -4.1597
        79                         -0.1400364              -3.8106
        80                         -0.0712148              -1.9379
        81                         -0.0589902              -1.6052
        82                         -0.0538293              -1.4648
        83                         -0.0426272              -1.1599
        84                         -0.0378885              -1.0310
        85                         -0.0334339              -0.9098
        86                         -0.0242827              -0.6608
       ...                                ...                  ...
       150                          0.2687303               7.3125
      -------------------------------------------------------------
                  HL-Gap            0.2108499 Eh            5.7375 eV

     #   Z          covCN         q      C6AA      α(0)
     1   6 C        3.751    -0.102    22.503     6.765
     2   6 C        3.799    -0.052    21.510     6.604
     3   6 C        3.800    -0.057    21.604     6.618
     4   6 C        3.800    -0.057    21.597     6.617
     5   6 C        3.800    -0.056    21.590     6.616
     6   6 C        3.800    -0.057    21.599     6.617
     7   6 C        3.800    -0.057    21.598     6.617
     8   6 C        3.800    -0.057    21.601     6.617
     9   6 C        3.800    -0.058    21.618     6.620
    10   6 C        3.800    -0.059    21.638     6.623
    11   6 C        3.800    -0.060    21.646     6.624
    12   6 C        3.800    -0.060    21.665     6.627
    13   6 C        3.800    -0.063    21.717     6.635
    14   6 C        3.799    -0.065    21.753     6.641
    15   6 C        3.799    -0.072    21.880     6.660
    16   6 C        3.763    -0.037    21.279     6.575
    17   7 N        3.615     0.111    19.328     6.530
    18   6 C        3.794     0.011    20.393     6.431
    19   6 C        3.807    -0.072    21.879     6.659
    20   6 C        3.807    -0.062    21.686     6.629
    21   6 C        3.806    -0.067    21.779     6.644
    22   6 C        3.807    -0.062    21.680     6.628
    23   6 C        3.809    -0.074    21.906     6.662
    24   6 C        3.736    -0.090    22.305     6.740
    25   6 C        3.718    -0.087    22.291     6.744
    26   1 H        0.925     0.034     2.537     2.491
    27   1 H        0.925     0.032     2.559     2.502
    28   1 H        0.925     0.034     2.527     2.486
    29   1 H        0.924     0.030     2.591     2.517
    30   1 H        0.924     0.028     2.621     2.532
    31   1 H        0.924     0.028     2.617     2.530
    32   1 H        0.924     0.029     2.594     2.519
    33   1 H        0.924     0.027     2.625     2.534
    34   1 H        0.924     0.032     2.560     2.502
    35   1 H        0.924     0.026     2.649     2.545
    36   1 H        0.924     0.032     2.556     2.500
    37   1 H        0.924     0.025     2.662     2.551
    38   1 H        0.924     0.034     2.534     2.490
    39   1 H        0.924     0.025     2.661     2.551
    40   1 H        0.924     0.034     2.529     2.487
    41   1 H        0.924     0.025     2.659     2.550
    42   1 H        0.924     0.034     2.527     2.486
    43   1 H        0.924     0.024     2.678     2.559
    44   1 H        0.924     0.037     2.491     2.468
    45   1 H        0.924     0.023     2.688     2.564
    46   1 H        0.924     0.041     2.440     2.443
    47   1 H        0.924     0.023     2.686     2.563
    48   1 H        0.924     0.042     2.423     2.434
    49   1 H        0.924     0.020     2.726     2.582
    50   1 H        0.924     0.044     2.400     2.422
    51   1 H        0.924     0.017     2.774     2.605
    52   1 H        0.925     0.052     2.292     2.367
    53   1 H        0.924     0.025     2.661     2.551
    54   1 H        0.924     0.062     2.174     2.306
    55   1 H        0.925     0.054     2.275     2.359
    56   1 H        0.924     0.076     2.019     2.222
    57   1 H        0.924     0.075     2.035     2.231
    58   1 H        0.924     0.086     1.920     2.167
    59   1 H        0.924     0.073     2.051     2.239
    60   1 H        0.925     0.050     2.317     2.381
    61   1 H        0.924     0.050     2.315     2.379
    62   1 H        0.925     0.057     2.235     2.338
    63   1 H        0.924     0.045     2.384     2.414
    64   1 H        0.924     0.047     2.360     2.402
    65   1 H        0.925     0.056     2.249     2.345
    66   1 H        0.925     0.056     2.248     2.345
    67   1 H        0.924     0.043     2.408     2.427
    68   1 H        0.924     0.056     2.248     2.345
    69   1 H        0.925     0.054     2.268     2.355
    70   1 H        0.925     0.092     1.863     2.134
    71   1 H        0.925     0.099     1.795     2.095
    72   1 H        0.925     0.091     1.865     2.135
    73   1 H        0.925     0.088     1.895     2.153
    74   1 H        0.925     0.105     1.738     2.062
    75   1 H        0.925     0.090     1.877     2.143

Wiberg/Mayer (AO) data.
largest (>0.10) Wiberg bond orders for each atom

     #   Z sym  total        # sym  WBO       # sym  WBO       # sym  WBO
 ---------------------------------------------------------------------------
     1   6 C    3.997 --     2 C    1.020    28 H    0.988    27 H    0.987
                            26 H    0.986
     2   6 C    3.998 --     1 C    1.020     3 C    1.008    30 H    0.978
                            29 H    0.976
     3   6 C    3.998 --     2 C    1.008     4 C    1.008    32 H    0.977
                            31 H    0.976
     4   6 C    3.998 --     5 C    1.008     3 C    1.008    34 H    0.975
                            33 H    0.975
     5   6 C    3.998 --     4 C    1.008     6 C    1.008    35 H    0.975
                            36 H    0.974
     6   6 C    3.997 --     5 C    1.008     7 C    1.008    37 H    0.975
                            38 H    0.974
     7   6 C    3.997 --     6 C    1.008     8 C    1.007    39 H    0.976
                            40 H    0.975
     8   6 C    3.997 --     9 C    1.008     7 C    1.007    41 H    0.975
                            42 H    0.975
     9   6 C    3.997 --     8 C    1.008    10 C    1.008    43 H    0.974
                            44 H    0.974
    10   6 C    3.997 --     9 C    1.008    11 C    1.008    45 H    0.975
                            46 H    0.973
    11   6 C    3.996 --    10 C    1.008    12 C    1.007    47 H    0.976
                            48 H    0.974
    12   6 C    3.996 --    13 C    1.007    11 C    1.007    49 H    0.976
                            50 H    0.974
    13   6 C    3.995 --    14 C    1.007    12 C    1.007    51 H    0.973
                            52 H    0.972
    14   6 C    3.992 --    13 C    1.007    15 C    1.005    54 H    0.968
                            53 H    0.965
    15   6 C    3.984 --    16 C    1.006    14 C    1.005    55 H    0.968
                            56 H    0.960
    16   6 C    3.929 --    15 C    1.006    57 H    0.969    58 H    0.962
                            17 N    0.922
    17   7 N    3.797 --    25 C    0.964    24 C    0.962    16 C    0.922
                            18 C    0.888
    18   6 C    3.925 --    19 C    0.999    23 C    0.999    59 H    0.958
                            17 N    0.888
    19   6 C    3.990 --    18 C    0.999    20 C    0.996    61 H    0.973
                            60 H    0.971
    20   6 C    3.992 --    21 C    1.011    19 C    0.996    63 H    0.976
                            62 H    0.974
    21   6 C    3.995 --    20 C    1.011    22 C    1.011    64 H    0.976
                            65 H    0.973
    22   6 C    3.993 --    21 C    1.011    23 C    0.998    67 H    0.976
                            66 H    0.974
    23   6 C    3.988 --    18 C    0.999    22 C    0.998    68 H    0.972
                            69 H    0.964
    24   6 C    3.934 --    72 H    0.975    70 H    0.974    71 H    0.973
                            17 N    0.962
    25   6 C    3.932 --    75 H    0.975    73 H    0.974    74 H    0.964
                            17 N    0.964
    26   1 H    0.999 --     1 C    0.986
    27   1 H    0.999 --     1 C    0.987
    28   1 H    0.999 --     1 C    0.988
    29   1 H    0.999 --     2 C    0.976
    30   1 H    0.999 --     2 C    0.978
    31   1 H    0.999 --     3 C    0.976
    32   1 H    0.999 --     3 C    0.977
    33   1 H    0.999 --     4 C    0.975
    34   1 H    0.999 --     4 C    0.975
    35   1 H    0.999 --     5 C    0.975
    36   1 H    0.999 --     5 C    0.974
    37   1 H    0.999 --     6 C    0.975
    38   1 H    0.999 --     6 C    0.974
    39   1 H    0.999 --     7 C    0.976
    40   1 H    0.999 --     7 C    0.975
    41   1 H    0.999 --     8 C    0.975
    42   1 H    0.999 --     8 C    0.975
    43   1 H    0.999 --     9 C    0.974
    44   1 H    0.999 --     9 C    0.974
    45   1 H    0.999 --    10 C    0.975
    46   1 H    0.998 --    10 C    0.973
    47   1 H    0.999 --    11 C    0.976
    48   1 H    0.998 --    11 C    0.974
    49   1 H    1.000 --    12 C    0.976
    50   1 H    0.998 --    12 C    0.974
    51   1 H    1.000 --    13 C    0.973
    52   1 H    0.997 --    13 C    0.972
    53   1 H    0.999 --    14 C    0.965
    54   1 H    0.996 --    14 C    0.968
    55   1 H    0.997 --    15 C    0.968
    56   1 H    0.994 --    15 C    0.960
    57   1 H    0.994 --    16 C    0.969
    58   1 H    0.992 --    16 C    0.962
    59   1 H    0.995 --    18 C    0.958
    60   1 H    0.997 --    19 C    0.971
    61   1 H    0.997 --    19 C    0.973
    62   1 H    0.996 --    20 C    0.974
    63   1 H    0.998 --    20 C    0.976
    64   1 H    0.998 --    21 C    0.976
    65   1 H    0.996 --    21 C    0.973
    66   1 H    0.996 --    22 C    0.974
    67   1 H    0.998 --    22 C    0.976
    68   1 H    0.997 --    23 C    0.972
    69   1 H    0.997 --    23 C    0.964
    70   1 H    0.991 --    24 C    0.974
    71   1 H    0.990 --    24 C    0.973
    72   1 H    0.992 --    24 C    0.975
    73   1 H    0.992 --    25 C    0.974
    74   1 H    0.989 --    25 C    0.964
    75   1 H    0.992 --    25 C    0.975
 ---------------------------------------------------------------------------

molecular dipole:
                 x           y           z       tot (Debye)
 q only:      -13.589      -5.973     -21.007
   full:      -13.548      -6.135     -21.063      65.537

           -------------------------------------------------
          | TOTAL ENERGY              -79.467800503465 Eh   |
          | GRADIENT NORM               0.000283615555 Eh/α |
          | HOMO-LUMO GAP               5.737517620963 eV   |
           -------------------------------------------------

 * finished run on 2024/12/20 at 06:51:20.986
