   * xtb version 6.7.1 (edcfbbe) compiled by 'conda@3ef47c1a292c' on 2024-11-25

   ID    Z sym.   atoms
    1    6 C      1-8, 10-17
    2    7 N      9
    3    1 H      18-45

          program call               : xtb C0635.xyz --opt --namespace C0635 --charge +1
          :  Hamiltonian                  GFN2-xTB          :
 * total energy  :   -51.1027557 Eh     change       -0.6402487E-09 Eh
 * total energy  :   -51.1068953 Eh     change       -0.4139617E-02 Eh
 * total energy  :   -51.1075885 Eh     change       -0.6931191E-03 Eh
 * total energy  :   -51.1077170 Eh     change       -0.1285522E-03 Eh
 * total energy  :   -51.1078596 Eh     change       -0.1425699E-03 Eh
 * total energy  :   -51.1079415 Eh     change       -0.8189582E-04 Eh
 * total energy  :   -51.1080196 Eh     change       -0.7815911E-04 Eh
 * total energy  :   -51.1080890 Eh     change       -0.6934958E-04 Eh
 * total energy  :   -51.1081761 Eh     change       -0.8714575E-04 Eh
 * total energy  :   -51.1082374 Eh     change       -0.6124929E-04 Eh
 * total energy  :   -51.1088254 Eh     change       -0.1051497E-04 Eh
 * total energy  :   -51.1088349 Eh     change       -0.9463388E-05 Eh
 * total energy  :   -51.1088420 Eh     change       -0.7090962E-05 Eh
 * total energy  :   -51.1088482 Eh     change       -0.6205311E-05 Eh
 * total energy  :   -51.1088544 Eh     change       -0.6190425E-05 Eh
 * total energy  :   -51.1088613 Eh     change       -0.6947301E-05 Eh
 * total energy  :   -51.1088682 Eh     change       -0.6914800E-05 Eh
 * total energy  :   -51.1088744 Eh     change       -0.6157242E-05 Eh
 * total energy  :   -51.1088781 Eh     change       -0.3677927E-05 Eh
   *** GEOMETRY OPTIMIZATION CONVERGED AFTER 33 ITERATIONS ***

 final structure:
================
45
 xtb: 6.7.1 (edcfbbe)
C            1.18863710663445       -0.55740416065739       -0.64888398347613
C            0.92498256871065       -1.94001055162957       -0.06484612603171
C            1.22929817931244       -2.03130351951166        1.43149156230312
C            0.38900628437340       -1.10897074905040        2.31744015363365
C           -1.12444077335532       -1.31340026517456        2.21342004845551
C           -1.60757261985524       -2.73108332129036        2.53051920219341
C           -1.24365392748727       -3.24467033576462        3.92408885022569
C           -1.91273184078987       -2.47658983534706        5.07429910840313
N           -3.34635675656407       -2.72968165663429        5.12041312494268
C           -4.13397599546709       -1.90672970190874        4.41048361502786
C           -5.50043116690536       -2.07879318419951        4.32843741577504
C           -6.35250610171086       -1.16165561428970        3.52296568157274
C           -6.04383802134397       -3.14995804591876        5.03674971127592
C           -5.23868883249262       -3.99605142265387        5.78436770191178
C           -3.85282845638208       -3.77345270965624        5.80451833326665
C           -2.93956096499368       -4.64510073270677        6.59619411916595
C           -5.85649273507527       -5.11815497951119        6.55232278894478
H            0.50377640489400        0.18296473926281       -0.24265267484031
H            1.06052220446407       -0.57653469247025       -1.72829409309343
H            2.20645829743389       -0.24145016325900       -0.43232478937988
H           -0.11125786164265       -2.22581300643717       -0.25682652004893
H            1.55915924660051       -2.66468584329245       -0.57976274415142
H            1.10299511519307       -3.06757969109615        1.75371817074355
H            2.27911777086459       -1.77345820222905        1.58633943246197
H            0.70878891929822       -1.23963360973955        3.35439013193286
H            0.60404008609051       -0.07329079165467        2.05175681161540
H           -1.60821095369176       -0.58712626681830        2.87325168172828
H           -1.44458521218596       -1.07420036114049        1.19883390369054
H           -2.69208088905827       -2.77916570725885        2.39146094520489
H           -1.16888474470042       -3.41542890093652        1.80433984320983
H           -1.51226492157548       -4.30128508997195        3.98271514735675
H           -0.16602316012845       -3.17128770113100        4.06478492639976
H           -1.46304979008055       -2.75624992712277        6.02603424617633
H           -1.75587785868297       -1.40712861275507        4.93089934898489
H           -3.65128935282085       -1.08366554267045        3.90712915431772
H           -5.78151594077515       -0.32052088392830        3.14282504896716
H           -6.78263970305515       -1.69863895492864        2.67899103180272
H           -7.17824572277863       -0.78658877754524        4.12306873142988
H           -7.11014299317797       -3.31590372935463        5.00836248113159
H           -2.06203398954232       -4.94003169406957        6.02763465582018
H           -2.60151883853750       -4.12091370114694        7.49155119024837
H           -3.44924155308347       -5.54625149399261        6.91637567755401
H           -5.50815250843951       -6.08126203326259        6.18197158353216
H           -5.60777583266720       -5.04970957174131        7.60951463242404
H           -6.93751216481942       -5.09194900341925        6.45439073718300

          :  Hamiltonian                  GFN2-xTB          :
         :: total energy             -51.108878060410 Eh    ::
         :: gradient norm              0.000695562089 Eh/a0 ::
         :: HOMO-LUMO gap              1.811262692287 eV    ::
         :: SCC energy               -51.925886327352 Eh    ::
         :: -> dispersion             -0.038046959188 Eh    ::
         :: repulsion energy           0.817008266943 Eh    ::

    * Orbital Energies and Occupations

         #    Occupation            Energy/Eh            Energy/eV
      -------------------------------------------------------------
         1        2.0000           -0.8528185             -23.2064
       ...           ...                  ...                  ...
        36        2.0000           -0.5823063             -15.8454
        37        2.0000           -0.5771762             -15.7058
        38        2.0000           -0.5716034             -15.5541
        39        2.0000           -0.5658735             -15.3982
        40        2.0000           -0.5593001             -15.2193
        41        2.0000           -0.5551682             -15.1069
        42        2.0000           -0.5501081             -14.9692
        43        2.0000           -0.5359369             -14.5836
        44        2.0000           -0.5293494             -14.4043
        45        2.0000           -0.5246342             -14.2760
        46        2.0000           -0.5037834             -13.7086
        47        2.0000           -0.4999751             -13.6050
        48        2.0000           -0.4956682             -13.4878 (HOMO)
        49                         -0.4291055             -11.6766 (LUMO)
        50                         -0.3943491             -10.7308
        51                         -0.2822545              -7.6805
        52                         -0.1587735              -4.3204
        53                         -0.0783545              -2.1321
        54                         -0.0571390              -1.5548
        55                         -0.0449256              -1.2225
        56                         -0.0393500              -1.0708
        57                         -0.0318049              -0.8655
        58                         -0.0248608              -0.6765
        59                         -0.0209496              -0.5701
       ...                                ...                  ...
        96                          0.4584480              12.4750
      -------------------------------------------------------------
                  HL-Gap            0.0665627 Eh            1.8113 eV

     #   Z          covCN         q      C6AA      α(0)
     1   6 C        3.751    -0.105    22.569     6.775
     2   6 C        3.799    -0.054    21.549     6.610
     3   6 C        3.800    -0.061    21.673     6.628
     4   6 C        3.800    -0.062    21.687     6.631
     5   6 C        3.800    -0.060    21.659     6.626
     6   6 C        3.800    -0.065    21.753     6.641
     7   6 C        3.801    -0.067    21.779     6.644
     8   6 C        3.760    -0.032    21.197     6.563
     9   7 N        2.749     0.077    19.899     6.625
    10   6 C        2.898     0.009    27.820     8.648
    11   6 C        2.958     0.036    27.198     8.554
    12   6 C        3.759    -0.129    23.025     6.841
    13   6 C        2.936    -0.023    28.570     8.766
    14   6 C        2.962     0.028    27.366     8.581
    15   6 C        2.927     0.071    26.403     8.427
    16   6 C        3.757    -0.138    23.204     6.868
    17   6 C        3.759    -0.128    23.015     6.839
    18   1 H        0.925     0.033     2.546     2.495
    19   1 H        0.925     0.039     2.462     2.454
    20   1 H        0.925     0.040     2.452     2.449
    21   1 H        0.924     0.027     2.623     2.533
    22   1 H        0.924     0.035     2.510     2.478
    23   1 H        0.924     0.026     2.648     2.545
    24   1 H        0.924     0.040     2.447     2.446
    25   1 H        0.924     0.025     2.659     2.550
    26   1 H        0.924     0.046     2.368     2.407
    27   1 H        0.924     0.016     2.788     2.611
    28   1 H        0.924     0.050     2.324     2.384
    29   1 H        0.924     0.026     2.649     2.545
    30   1 H        0.925     0.062     2.179     2.308
    31   1 H        0.924     0.045     2.377     2.411
    32   1 H        0.925     0.076     2.021     2.223
    33   1 H        0.925     0.084     1.937     2.176
    34   1 H        0.924     0.088     1.894     2.152
    35   1 H        0.926     0.096     1.823     2.111
    36   1 H        0.925     0.071     2.071     2.251
    37   1 H        0.925     0.089     1.892     2.151
    38   1 H        0.925     0.087     1.913     2.163
    39   1 H        0.926     0.088     1.896     2.153
    40   1 H        0.925     0.087     1.905     2.158
    41   1 H        0.924     0.090     1.878     2.143
    42   1 H        0.925     0.093     1.847     2.125
    43   1 H        0.925     0.082     1.961     2.190
    44   1 H        0.925     0.082     1.958     2.188
    45   1 H        0.925     0.078     2.001     2.212

Wiberg/Mayer (AO) data.
largest (>0.10) Wiberg bond orders for each atom

     #   Z sym  total        # sym  WBO       # sym  WBO       # sym  WBO
 ---------------------------------------------------------------------------
     1   6 C    3.996 --     2 C    1.020    20 H    0.987    19 H    0.987
                            18 H    0.986
     2   6 C    3.998 --     1 C    1.020     3 C    1.008    22 H    0.978
                            21 H    0.976
     3   6 C    3.996 --     2 C    1.008     4 C    1.008    24 H    0.976
                            23 H    0.976
     4   6 C    3.996 --     3 C    1.008     5 C    1.007    25 H    0.975
                            26 H    0.974
     5   6 C    3.995 --     6 C    1.007     4 C    1.007    28 H    0.973
                            27 H    0.972
     6   6 C    3.993 --     7 C    1.008     5 C    1.007    29 H    0.972
                            30 H    0.968
     7   6 C    3.985 --     6 C    1.008     8 C    0.978    31 H    0.972
                            32 H    0.963
     8   6 C    3.938 --     7 C    0.978     9 N    0.964    33 H    0.961
                            34 H    0.960
     9   7 N    3.743 --    15 C    1.304    10 C    1.300     8 C    0.964
    10   6 C    3.959 --    11 C    1.432     9 N    1.300    35 H    0.951
    11   6 C    3.985 --    10 C    1.432    13 C    1.366    12 C    1.040
    12   6 C    3.985 --    11 C    1.040    36 H    0.981    38 H    0.961
                            37 H    0.954
    13   6 C    3.981 --    14 C    1.431    11 C    1.366    39 H    0.961
    14   6 C    3.985 --    13 C    1.431    15 C    1.349    17 C    1.038
    15   6 C    3.961 --    14 C    1.349     9 N    1.304    16 C    1.045
    16   6 C    3.981 --    15 C    1.045    42 H    0.969    40 H    0.958
                            41 H    0.944
    17   6 C    3.985 --    14 C    1.038    45 H    0.979    44 H    0.960
                            43 H    0.956
    18   1 H    0.999 --     1 C    0.986
    19   1 H    0.998 --     1 C    0.987
    20   1 H    0.998 --     1 C    0.987
    21   1 H    0.999 --     2 C    0.976
    22   1 H    0.999 --     2 C    0.978
    23   1 H    0.999 --     3 C    0.976
    24   1 H    0.998 --     3 C    0.976
    25   1 H    0.999 --     4 C    0.975
    26   1 H    0.998 --     4 C    0.974
    27   1 H    1.000 --     5 C    0.972
    28   1 H    0.997 --     5 C    0.973
    29   1 H    0.999 --     6 C    0.972
    30   1 H    0.995 --     6 C    0.968
    31   1 H    0.998 --     7 C    0.972
    32   1 H    0.993 --     7 C    0.963
    33   1 H    0.993 --     8 C    0.961
    34   1 H    0.992 --     8 C    0.960
    35   1 H    0.990 --    10 C    0.951
    36   1 H    0.995 --    12 C    0.981
    37   1 H    0.991 --    12 C    0.954
    38   1 H    0.992 --    12 C    0.961
    39   1 H    0.992 --    13 C    0.961
    40   1 H    0.992 --    16 C    0.958
    41   1 H    0.991 --    16 C    0.944
    42   1 H    0.991 --    16 C    0.969
    43   1 H    0.993 --    17 C    0.956
    44   1 H    0.993 --    17 C    0.960
    45   1 H    0.993 --    17 C    0.979
 ---------------------------------------------------------------------------

molecular dipole:
                 x           y           z       tot (Debye)
 q only:       -7.173      -5.723       9.378
   full:       -7.193      -5.694       9.443      33.463

           -------------------------------------------------
          | TOTAL ENERGY              -51.108878060410 Eh   |
          | GRADIENT NORM               0.000695562089 Eh/α |
          | HOMO-LUMO GAP               1.811262692287 eV   |
           -------------------------------------------------

 * finished run on 2024/12/20 at 06:51:16.899
