   * xtb version 6.7.1 (edcfbbe) compiled by 'conda@3ef47c1a292c' on 2024-11-25

   ID    Z sym.   atoms
    1    8 O      1
    2    6 C      2, 3, 5, 6, 8-14
    3    7 N      4, 7
    4    1 H      15-35

          program call               : xtb C0639.xyz --opt --namespace C0639 --charge +1
          :  Hamiltonian                  GFN2-xTB          :
 * total energy  :   -43.8169569 Eh     change       -0.5123226E-09 Eh
 * total energy  :   -43.8222918 Eh     change       -0.5334908E-02 Eh
 * total energy  :   -43.8237534 Eh     change       -0.1461639E-02 Eh
 * total energy  :   -43.8240538 Eh     change       -0.3003157E-03 Eh
 * total energy  :   -43.8242162 Eh     change       -0.1624116E-03 Eh
 * total energy  :   -43.8242732 Eh     change       -0.5700917E-04 Eh
 * total energy  :   -43.8243176 Eh     change       -0.4445975E-04 Eh
 * total energy  :   -43.8243474 Eh     change       -0.2979249E-04 Eh
 * total energy  :   -43.8243739 Eh     change       -0.2649658E-04 Eh
 * total energy  :   -43.8243943 Eh     change       -0.2039682E-04 Eh
 * total energy  :   -43.8244532 Eh     change       -0.1514642E-04 Eh
 * total energy  :   -43.8244737 Eh     change       -0.2042496E-04 Eh
 * total energy  :   -43.8244998 Eh     change       -0.2613770E-04 Eh
 * total energy  :   -43.8245231 Eh     change       -0.2326726E-04 Eh
 * total energy  :   -43.8245399 Eh     change       -0.1685359E-04 Eh
 * total energy  :   -43.8245522 Eh     change       -0.1227614E-04 Eh
 * total energy  :   -43.8245572 Eh     change       -0.4967995E-05 Eh
 * total energy  :   -43.8245604 Eh     change       -0.3234914E-05 Eh
 * total energy  :   -43.8245639 Eh     change       -0.3468233E-05 Eh
   *** GEOMETRY OPTIMIZATION CONVERGED AFTER 21 ITERATIONS ***

 final structure:
================
35
 xtb: 6.7.1 (edcfbbe)
O            1.59882281877158       -0.03543294533333        0.07128269772553
C            0.90106977799335        0.91071473296854        0.84946669060098
C            1.14219801232059        0.55384003262433        2.32617930158004
N            2.58303319813763        0.48043496945206        2.51868911078860
C            3.42173199458532        1.48093671255217        2.90593612919013
C            4.69232902250052        0.99962258012828        2.81846532156601
N            4.61079260228986       -0.28134678052743        2.36418731983042
C            3.32593721413998       -0.57281752019525        2.19396871675578
C            5.72722486152249       -1.18125558700752        2.17360639284413
C            6.12947947114798       -1.83363009647759        3.49263750591754
C            0.49608347232493        1.53988831493883        3.29757156336267
C           -1.03269015342236        1.40987651845079        3.40550011897184
C           -1.45318497200835        0.06901777880931        4.00149080234230
C           -1.56040548406797        2.55229714636681        4.27190381543918
H            1.34575296653176        0.05825280885488       -0.85300531756292
H            1.26800929207596        1.92707264010396        0.64770848555428
H           -0.17431552055955        0.87656833531669        0.64998648594613
H            0.75715081056412       -0.45593620079879        2.49483180946247
H            3.07720877975744        2.44527631575570        3.21513521676826
H            5.62666447235082        1.47457588637732        3.03789437196856
H            2.94107288127269       -1.50226280145530        1.82326015713351
H            5.43517336511538       -1.94170168437372        1.44746396223459
H            6.56322687696951       -0.60812162100439        1.76754102333613
H            5.30701014727385       -2.41256304738905        3.90481255516632
H            6.96790006213732       -2.50191901238344        3.32301677210785
H            6.43047175813103       -1.08456133000981        4.22020425334501
H            0.91961308145870        1.37829651144578        4.29177257174703
H            0.73049056749916        2.55970398202330        2.98610417297235
H           -1.47046785516878        1.50699960582079        2.40758810256099
H           -0.97545429227027       -0.08683762441165        4.96596210473451
H           -2.52864394372441        0.05704290327413        4.15321824149560
H           -1.20564480419322       -0.76408819556600        3.34856729486842
H           -1.29308109021997        3.51788447397926        3.84995631582206
H           -2.64285374621082        2.50234069658394        4.34169560294558
H           -1.15150564502562        2.48856150110778        5.27736033047804

          :  Hamiltonian                  GFN2-xTB          :
         :: total energy             -43.824563865152 Eh    ::
         :: gradient norm              0.000533620332 Eh/a0 ::
         :: HOMO-LUMO gap              3.765732039125 eV    ::
         :: SCC energy               -44.435528248832 Eh    ::
         :: -> dispersion             -0.027208513785 Eh    ::
         :: repulsion energy           0.610964383680 Eh    ::

    * Orbital Energies and Occupations

         #    Occupation            Energy/Eh            Energy/eV
      -------------------------------------------------------------
         1        2.0000           -0.8818519             -23.9964
       ...           ...                  ...                  ...
        28        2.0000           -0.6069940             -16.5171
        29        2.0000           -0.5970559             -16.2467
        30        2.0000           -0.5959280             -16.2160
        31        2.0000           -0.5939629             -16.1626
        32        2.0000           -0.5851723             -15.9234
        33        2.0000           -0.5770359             -15.7019
        34        2.0000           -0.5726657             -15.5830
        35        2.0000           -0.5659181             -15.3994
        36        2.0000           -0.5548965             -15.0995
        37        2.0000           -0.5490995             -14.9418
        38        2.0000           -0.5427299             -14.7684
        39        2.0000           -0.5386959             -14.6587
        40        2.0000           -0.5316936             -14.4681 (HOMO)
        41                         -0.3933055             -10.7024 (LUMO)
        42                         -0.3595558              -9.7840
        43                         -0.1827815              -4.9737
        44                         -0.1311610              -3.5691
        45                         -0.1030521              -2.8042
        46                         -0.0627852              -1.7085
        47                         -0.0472111              -1.2847
        48                         -0.0343626              -0.9351
        49                         -0.0311461              -0.8475
        50                         -0.0226816              -0.6172
        51                         -0.0161837              -0.4404
       ...                                ...                  ...
        77                          0.4757126              12.9448
      -------------------------------------------------------------
                  HL-Gap            0.1383881 Eh            3.7657 eV

     #   Z          covCN         q      C6AA      α(0)
     1   8 O        1.656    -0.449    21.831     6.307
     2   6 C        3.678     0.074    19.550     6.334
     3   6 C        3.791     0.017    20.299     6.416
     4   7 N        2.875     0.066    20.087     6.657
     5   6 C        3.073    -0.007    28.117     8.694
     6   6 C        3.076    -0.008    28.138     8.697
     7   7 N        2.870     0.067    20.077     6.655
     8   6 C        3.105     0.056    26.617     8.453
     9   6 C        3.741    -0.023    21.054     6.547
    10   6 C        3.753    -0.124    22.942     6.830
    11   6 C        3.807    -0.081    22.046     6.684
    12   6 C        3.849    -0.011    20.740     6.478
    13   6 C        3.756    -0.118    22.821     6.811
    14   6 C        3.758    -0.118    22.802     6.808
    15   1 H        0.805     0.313     0.683     1.298
    16   1 H        0.923     0.042     2.427     2.437
    17   1 H        0.924     0.059     2.208     2.324
    18   1 H        0.924     0.089     1.889     2.149
    19   1 H        0.927     0.105     1.736     2.060
    20   1 H        0.926     0.104     1.745     2.066
    21   1 H        0.926     0.121     1.606     1.982
    22   1 H        0.924     0.086     1.921     2.168
    23   1 H        0.924     0.091     1.871     2.139
    24   1 H        0.925     0.063     2.168     2.303
    25   1 H        0.925     0.084     1.943     2.180
    26   1 H        0.925     0.066     2.129     2.282
    27   1 H        0.924     0.060     2.200     2.319
    28   1 H        0.924     0.054     2.273     2.358
    29   1 H        0.924     0.037     2.493     2.469
    30   1 H        0.925     0.046     2.374     2.409
    31   1 H        0.925     0.060     2.202     2.321
    32   1 H        0.925     0.033     2.540     2.493
    33   1 H        0.925     0.043     2.413     2.429
    34   1 H        0.925     0.057     2.229     2.335
    35   1 H        0.925     0.048     2.347     2.396

Wiberg/Mayer (AO) data.
largest (>0.10) Wiberg bond orders for each atom

     #   Z sym  total        # sym  WBO       # sym  WBO       # sym  WBO
 ---------------------------------------------------------------------------
     1   8 O    1.949 --     2 C    1.003    15 H    0.887
     2   6 C    3.957 --     1 O    1.003     3 C    0.971    16 H    0.967
                            17 H    0.963
     3   6 C    3.940 --    11 C    0.991     2 C    0.971     4 N    0.950
                            18 H    0.949
     4   7 N    3.714 --     8 C    1.366     5 C    1.227     3 C    0.950
     5   6 C    3.950 --     6 C    1.592     4 N    1.227    19 H    0.960
     6   6 C    3.949 --     5 C    1.592     7 N    1.225    20 H    0.962
     7   7 N    3.716 --     8 C    1.366     6 C    1.225     9 C    0.967
     8   6 C    3.947 --     7 N    1.366     4 N    1.366    21 H    0.951
     9   6 C    3.940 --    10 C    1.001    22 H    0.967     7 N    0.967
                            23 H    0.963
    10   6 C    3.981 --     9 C    1.001    24 H    0.985    26 H    0.984
                            25 H    0.977
    11   6 C    3.983 --     3 C    0.991    12 C    0.988    28 H    0.971
                            27 H    0.970
    12   6 C    3.991 --    13 C    1.011    14 C    1.007    11 C    0.988
                            29 H    0.967
    13   6 C    3.994 --    12 C    1.011    30 H    0.986    31 H    0.983
                            32 H    0.983
    14   6 C    3.992 --    12 C    1.007    35 H    0.986    33 H    0.985
                            34 H    0.984
    15   1 H    0.902 --     1 O    0.887
    16   1 H    0.998 --     2 C    0.967
    17   1 H    0.996 --     2 C    0.963
    18   1 H    0.992 --     3 C    0.949
    19   1 H    0.989 --     5 C    0.960
    20   1 H    0.989 --     6 C    0.962
    21   1 H    0.985 --     8 C    0.951
    22   1 H    0.993 --     9 C    0.967
    23   1 H    0.991 --     9 C    0.963
    24   1 H    0.996 --    10 C    0.985
    25   1 H    0.992 --    10 C    0.977
    26   1 H    0.996 --    10 C    0.984
    27   1 H    0.996 --    11 C    0.970
    28   1 H    0.997 --    11 C    0.971
    29   1 H    0.999 --    12 C    0.967
    30   1 H    0.998 --    13 C    0.986
    31   1 H    0.996 --    13 C    0.983
    32   1 H    0.999 --    13 C    0.983
    33   1 H    0.998 --    14 C    0.985
    34   1 H    0.996 --    14 C    0.984
    35   1 H    0.998 --    14 C    0.986
 ---------------------------------------------------------------------------

molecular dipole:
                 x           y           z       tot (Debye)
 q only:        5.949       0.397       4.633
   full:        5.861       0.466       4.354      18.595

           -------------------------------------------------
          | TOTAL ENERGY              -43.824563865152 Eh   |
          | GRADIENT NORM               0.000533620332 Eh/α |
          | HOMO-LUMO GAP               3.765732039125 eV   |
           -------------------------------------------------

 * finished run on 2024/12/20 at 06:51:30.967
