   * xtb version 6.7.1 (edcfbbe) compiled by 'conda@3ef47c1a292c' on 2024-11-25

   ID    Z sym.   atoms
    1    6 C      1-4, 6-9
    2    7 N      5
    3    1 H      10-29

          program call               : xtb C0633.xyz --opt --namespace C0633 --charge +1
          :  Hamiltonian                  GFN2-xTB          :
 * total energy  :   -29.8440809 Eh     change       -0.7550938E-10 Eh
 * total energy  :   -29.8505466 Eh     change       -0.6465649E-02 Eh
 * total energy  :   -29.8520207 Eh     change       -0.1474150E-02 Eh
 * total energy  :   -29.8521036 Eh     change       -0.8283063E-04 Eh
 * total energy  :   -29.8522138 Eh     change       -0.1102471E-03 Eh
 * total energy  :   -29.8523154 Eh     change       -0.1015686E-03 Eh
 * total energy  :   -29.8524591 Eh     change       -0.1436702E-03 Eh
 * total energy  :   -29.8526393 Eh     change       -0.1802356E-03 Eh
 * total energy  :   -29.8527926 Eh     change       -0.1532635E-03 Eh
 * total energy  :   -29.8529073 Eh     change       -0.1146954E-03 Eh
 * total energy  :   -29.8555151 Eh     change       -0.1638144E-04 Eh
 * total energy  :   -29.8555324 Eh     change       -0.1734419E-04 Eh
 * total energy  :   -29.8555533 Eh     change       -0.2082756E-04 Eh
 * total energy  :   -29.8555685 Eh     change       -0.1522499E-04 Eh
 * total energy  :   -29.8555844 Eh     change       -0.1595080E-04 Eh
 * total energy  :   -29.8555987 Eh     change       -0.1425788E-04 Eh
 * total energy  :   -29.8556157 Eh     change       -0.1698134E-04 Eh
 * total energy  :   -29.8556232 Eh     change       -0.7485786E-05 Eh
 * total energy  :   -29.8556254 Eh     change       -0.2225833E-05 Eh
   *** GEOMETRY OPTIMIZATION CONVERGED AFTER 45 ITERATIONS ***

 final structure:
================
29
 xtb: 6.7.1 (edcfbbe)
C            2.29459595544797        0.20301203031094       -0.27899326637491
C            0.98744042560196        0.97902448555559       -0.38351506048048
C            0.60787593905408        1.31456060451114       -1.83075882026125
C            0.23510761170668        0.07090417738257       -2.66092534195067
N           -1.22419161299446        0.05359916523717       -3.09381750035352
C           -1.55748129326344        1.17377091991158       -3.99192068196860
C           -1.52754536380791       -1.20891327772722       -3.79914772287060
C           -2.08917869441434        0.10688971786608       -1.89800355799906
C            1.19796745446954       -0.08582862467175       -3.83226835338643
H            2.23220555838259       -0.76714682468380       -0.76663280941814
H            2.54138217848901        0.03486775097081        0.76503771487590
H            3.10808720614042        0.76453984859819       -0.73076564344845
H            0.18538493893091        0.41472404919506        0.09705815764009
H            1.09734627316089        1.91696634300843        0.16190837380208
H           -0.19664899909277        2.04820575931878       -1.81395145538678
H            1.46014447950521        1.80885306529414       -2.29810792053862
H            0.33607932518760       -0.81104778389111       -2.02071809709734
H           -0.98363877808094        1.10317705676337       -4.91241730337558
H           -2.61620491556495        1.14107795944226       -4.24222530542576
H           -1.34403072056395        2.12900464453552       -3.51945858045142
H           -1.20492023225670       -2.06237913477174       -3.20572119500909
H           -2.60061562976410       -1.28791206397610       -3.96493458390667
H           -1.03381470567465       -1.24166762759679       -4.76643036387120
H           -1.88291285301555       -0.74445376990365       -1.25199191302045
H           -1.92533697822819        1.02029001099631       -1.33336122860003
H           -3.13564816822774        0.07149709732931       -2.19548498318307
H            2.20433019389358       -0.13998086830878       -3.42464524799971
H            1.03835023840828       -0.99860988411199       -4.39782153831639
H            1.16599116658074        0.76657517341649       -4.50514577162404

          :  Hamiltonian                  GFN2-xTB          :
         :: total energy             -29.855625385622 Eh    ::
         :: gradient norm              0.000306141128 Eh/a0 ::
         :: HOMO-LUMO gap              8.478737129984 eV    ::
         :: SCC energy               -30.286552287420 Eh    ::
         :: -> dispersion             -0.020105263202 Eh    ::
         :: repulsion energy           0.430926901798 Eh    ::

    * Orbital Energies and Occupations

         #    Occupation            Energy/Eh            Energy/eV
      -------------------------------------------------------------
         1        2.0000           -0.8650028             -23.5379
       ...           ...                  ...                  ...
        16        2.0000           -0.6488038             -17.6548
        17        2.0000           -0.6461906             -17.5837
        18        2.0000           -0.6451288             -17.5548
        19        2.0000           -0.6415674             -17.4579
        20        2.0000           -0.6403861             -17.4258
        21        2.0000           -0.6259126             -17.0319
        22        2.0000           -0.6146431             -16.7253
        23        2.0000           -0.6027737             -16.4023
        24        2.0000           -0.5995897             -16.3157
        25        2.0000           -0.5933259             -16.1452
        26        2.0000           -0.5674896             -15.4422
        27        2.0000           -0.5571269             -15.1602
        28        2.0000           -0.5511325             -14.9971 (HOMO)
        29                         -0.2395446              -6.5183 (LUMO)
        30                         -0.1681918              -4.5767
        31                         -0.1517672              -4.1298
        32                         -0.1446352              -3.9357
        33                         -0.0855490              -2.3279
        34                         -0.0651149              -1.7719
        35                         -0.0434483              -1.1823
        36                         -0.0354460              -0.9645
        37                         -0.0233275              -0.6348
        38                         -0.0042847              -0.1166
        39                          0.0094545               0.2573
       ...                                ...                  ...
        56                          0.1874770               5.1015
      -------------------------------------------------------------
                  HL-Gap            0.3115879 Eh            8.4787 eV

     #   Z          covCN         q      C6AA      α(0)
     1   6 C        3.752    -0.115    22.753     6.802
     2   6 C        3.800    -0.063    21.705     6.633
     3   6 C        3.802    -0.080    22.033     6.683
     4   6 C        3.796     0.009    20.431     6.436
     5   7 N        3.619     0.131    19.007     6.475
     6   6 C        3.718    -0.094    22.424     6.764
     7   6 C        3.728    -0.095    22.427     6.761
     8   6 C        3.725    -0.095    22.422     6.761
     9   6 C        3.754    -0.133    23.109     6.855
    10   1 H        0.925     0.035     2.519     2.482
    11   1 H        0.925     0.058     2.228     2.334
    12   1 H        0.925     0.049     2.336     2.390
    13   1 H        0.924     0.036     2.505     2.475
    14   1 H        0.924     0.057     2.236     2.338
    15   1 H        0.925     0.047     2.358     2.402
    16   1 H        0.924     0.075     2.034     2.230
    17   1 H        0.924     0.081     1.969     2.194
    18   1 H        0.925     0.101     1.776     2.084
    19   1 H        0.925     0.096     1.823     2.111
    20   1 H        0.925     0.099     1.798     2.097
    21   1 H        0.925     0.096     1.820     2.110
    22   1 H        0.925     0.097     1.808     2.103
    23   1 H        0.925     0.102     1.770     2.080
    24   1 H        0.925     0.097     1.816     2.107
    25   1 H        0.925     0.103     1.757     2.073
    26   1 H        0.925     0.095     1.827     2.114
    27   1 H        0.925     0.089     1.893     2.152
    28   1 H        0.925     0.061     2.187     2.313
    29   1 H        0.925     0.063     2.163     2.300

Wiberg/Mayer (AO) data.
largest (>0.10) Wiberg bond orders for each atom

     #   Z sym  total        # sym  WBO       # sym  WBO       # sym  WBO
 ---------------------------------------------------------------------------
     1   6 C    3.993 --     2 C    1.021    12 H    0.986    10 H    0.985
                            11 H    0.984
     2   6 C    3.993 --     1 C    1.021     3 C    1.004    13 H    0.976
                            14 H    0.975
     3   6 C    3.986 --     2 C    1.004     4 C    0.993    16 H    0.969
                            15 H    0.962
     4   6 C    3.925 --     9 C    1.016     3 C    0.993    17 H    0.956
                             5 N    0.890
     5   7 N    3.808 --     6 C    0.961     8 C    0.960     7 C    0.959
                             4 C    0.890
     6   6 C    3.929 --    19 H    0.974    18 H    0.972    20 H    0.970
                             5 N    0.961
     7   6 C    3.929 --    21 H    0.975    22 H    0.974    23 H    0.971
                             5 N    0.959
     8   6 C    3.929 --    24 H    0.975    26 H    0.974    25 H    0.969
                             5 N    0.960
     9   6 C    3.983 --     4 C    1.016    29 H    0.979    28 H    0.978
                            27 H    0.971
    10   1 H    0.999 --     1 C    0.985
    11   1 H    0.997 --     1 C    0.984
    12   1 H    0.998 --     1 C    0.986
    13   1 H    0.999 --     2 C    0.976
    14   1 H    0.996 --     2 C    0.975
    15   1 H    0.998 --     3 C    0.962
    16   1 H    0.994 --     3 C    0.969
    17   1 H    0.993 --     4 C    0.956
    18   1 H    0.990 --     6 C    0.972
    19   1 H    0.991 --     6 C    0.974
    20   1 H    0.990 --     6 C    0.970
    21   1 H    0.991 --     7 C    0.975
    22   1 H    0.990 --     7 C    0.974
    23   1 H    0.990 --     7 C    0.971
    24   1 H    0.991 --     8 C    0.975
    25   1 H    0.989 --     8 C    0.969
    26   1 H    0.991 --     8 C    0.974
    27   1 H    0.992 --     9 C    0.971
    28   1 H    0.996 --     9 C    0.978
    29   1 H    0.996 --     9 C    0.979
 ---------------------------------------------------------------------------

molecular dipole:
                 x           y           z       tot (Debye)
 q only:       -1.763       0.229      -5.626
   full:       -1.855       0.208      -5.654      15.133

           -------------------------------------------------
          | TOTAL ENERGY              -29.855625385622 Eh   |
          | GRADIENT NORM               0.000306141128 Eh/α |
          | HOMO-LUMO GAP               8.478737129984 eV   |
           -------------------------------------------------

 * finished run on 2024/12/20 at 06:51:07.982
