   * xtb version 6.7.1 (edcfbbe) compiled by 'conda@3ef47c1a292c' on 2024-11-25

   ID    Z sym.   atoms
    1    8 O      1
    2    6 C      2-7, 9, 12-17
    3    7 N      8, 10, 11, 18
    4    1 H      19-37

          program call               : xtb C0643.xyz --opt --namespace C0643 --charge +1
          :  Hamiltonian                  GFN2-xTB          :
 * total energy  :   -52.8903949 Eh     change       -0.4301342E-09 Eh
 * total energy  :   -52.8986088 Eh     change       -0.8213949E-02 Eh
 * total energy  :   -52.9003670 Eh     change       -0.1758226E-02 Eh
 * total energy  :   -52.9010257 Eh     change       -0.6586074E-03 Eh
 * total energy  :   -52.9018143 Eh     change       -0.7886557E-03 Eh
 * total energy  :   -52.9023720 Eh     change       -0.5576763E-03 Eh
 * total energy  :   -52.9031671 Eh     change       -0.7951526E-03 Eh
 * total energy  :   -52.9038270 Eh     change       -0.6599057E-03 Eh
 * total energy  :   -52.9043600 Eh     change       -0.5329368E-03 Eh
 * total energy  :   -52.9049015 Eh     change       -0.5415044E-03 Eh
 * total energy  :   -52.9104346 Eh     change       -0.3899293E-04 Eh
 * total energy  :   -52.9104536 Eh     change       -0.1892446E-04 Eh
 * total energy  :   -52.9104811 Eh     change       -0.2750864E-04 Eh
 * total energy  :   -52.9104989 Eh     change       -0.1787358E-04 Eh
 * total energy  :   -52.9105091 Eh     change       -0.1017272E-04 Eh
 * total energy  :   -52.9105245 Eh     change       -0.1542691E-04 Eh
 * total energy  :   -52.9105297 Eh     change       -0.5134707E-05 Eh
 * total energy  :   -52.9105399 Eh     change       -0.1019255E-04 Eh
 * total energy  :   -52.9105447 Eh     change       -0.4850191E-05 Eh
   *** GEOMETRY OPTIMIZATION CONVERGED AFTER 48 ITERATIONS ***

 final structure:
================
37
 xtb: 6.7.1 (edcfbbe)
O            1.62555631903790        0.48395752974768       -0.20379891944553
C            2.67104911942037       -0.09835880535168       -0.06764735365236
C            3.07174778576415       -0.84864111373463        1.18436587537011
C            3.81485891440781       -2.15150861520926        0.87463473182036
C            3.98600886932690        0.09589685593680        1.98562567113694
C            1.80895004703803       -1.14875779905893        1.99708992486665
C            3.70404443992926       -0.01700088053095       -1.21207962331333
N            3.05490224571233        0.41003371665598       -2.42493120348223
C            2.45587870005567        1.59654200495006       -2.61560417306312
N            2.53845549395984        2.68356959599308       -1.84797517836314
N            1.82627550227538        1.60443979429327       -3.81058289456390
C            1.98925221277850        0.35687620752405       -4.40682846492075
C            2.75797603247144       -0.40587590990838       -3.51570790454887
C            3.09153103503026       -1.71640437237502       -3.80977966031550
C            2.63527662978311       -2.23038704893024       -5.01198204523685
C            1.87470152253602       -1.46838040438706       -5.89407967971688
C            1.53656872364122       -0.15707868174253       -5.60863504048638
N            1.13152550154251        2.71889313028445       -4.25841491921389
H            4.81216601987169       -1.96854692743306        0.48188868631633
H            3.92488415517464       -2.72030696120342        1.79411679393126
H            3.25310848565207       -2.76335710080582        0.17195667175879
H            3.47628135577183        1.02970974744549        2.21111774788125
H            4.24623282498469       -0.38198525869181        2.92616039521968
H            4.90718523036365        0.31242032534483        1.44928961840238
H            1.25231250798885       -0.23586618615463        2.19105214258160
H            1.16153277331828       -1.83267340112902        1.45369321789344
H            2.07487912471513       -1.60253338035330        2.94689902844905
H            4.48317884102589        0.69814217344327       -0.92983396452405
H            4.16895782182685       -0.98288455127990       -1.39371860398999
H            2.71096748731096        2.58733898440412       -0.86061299918927
H            1.95674604094295        3.45845297043409       -2.13840232791241
H            3.67921100744644       -2.32432368326610       -3.14146457958336
H            2.87539088903651       -3.24898968965877       -5.27052587214867
H            1.54006595338527       -1.90957300545882       -6.81897915213219
H            0.94597590160757        0.43109789518293       -6.29255437627303
H            0.14606779661170        2.50466101603136       -4.39907712838014
H            1.52180668825567        3.07280182900026       -5.12963444117090

          :  Hamiltonian                  GFN2-xTB          :
         :: total energy             -52.910544722171 Eh    ::
         :: gradient norm              0.000894445701 Eh/a0 ::
         :: HOMO-LUMO gap              3.563649791287 eV    ::
         :: SCC energy               -53.685663430062 Eh    ::
         :: -> dispersion             -0.035775052629 Eh    ::
         :: repulsion energy           0.775118707892 Eh    ::

    * Orbital Energies and Occupations

         #    Occupation            Energy/Eh            Energy/eV
      -------------------------------------------------------------
         1        2.0000           -0.8749877             -23.8096
       ...           ...                  ...                  ...
        36        2.0000           -0.5838378             -15.8870
        37        2.0000           -0.5792900             -15.7633
        38        2.0000           -0.5754259             -15.6581
        39        2.0000           -0.5733263             -15.6010
        40        2.0000           -0.5662924             -15.4096
        41        2.0000           -0.5645131             -15.3612
        42        2.0000           -0.5618772             -15.2895
        43        2.0000           -0.5523262             -15.0296
        44        2.0000           -0.5470491             -14.8860
        45        2.0000           -0.5456845             -14.8488
        46        2.0000           -0.5376615             -14.6305
        47        2.0000           -0.5284453             -14.3797
        48        2.0000           -0.5188748             -14.1193 (HOMO)
        49                         -0.3879131             -10.5557 (LUMO)
        50                         -0.3833726             -10.4321
        51                         -0.3530978              -9.6083
        52                         -0.3401704              -9.2565
        53                         -0.2273669              -6.1870
        54                         -0.2080339              -5.6609
        55                         -0.1531148              -4.1665
        56                         -0.1235845              -3.3629
        57                         -0.0830390              -2.2596
        58                         -0.0665072              -1.8098
        59                         -0.0507961              -1.3822
       ...                                ...                  ...
        91                          0.5550009              15.1023
      -------------------------------------------------------------
                  HL-Gap            0.1309617 Eh            3.5636 eV

     #   Z          covCN         q      C6AA      α(0)
     1   8 O        0.857    -0.350    20.715     6.102
     2   6 C        2.825     0.230    23.177     7.889
     3   6 C        3.900     0.011    20.333     6.410
     4   6 C        3.758    -0.122    22.891     6.821
     5   6 C        3.764    -0.115    22.734     6.796
     6   6 C        3.762    -0.116    22.757     6.800
     7   6 C        3.740    -0.044    21.443     6.607
     8   7 N        2.818    -0.013    21.508     6.888
     9   6 C        2.978     0.199    23.776     7.998
    10   7 N        2.638    -0.229    26.017     7.575
    11   7 N        2.897     0.042    20.503     6.725
    12   6 C        3.067     0.027    27.332     8.573
    13   6 C        3.086     0.038    27.065     8.528
    14   6 C        2.911    -0.035    28.874     8.811
    15   6 C        2.926    -0.022    28.558     8.764
    16   6 C        2.927    -0.022    28.548     8.762
    17   6 C        2.910    -0.035    28.879     8.812
    18   7 N        2.706    -0.264    26.838     7.694
    19   1 H        0.925     0.044     2.395     2.420
    20   1 H        0.925     0.072     2.067     2.248
    21   1 H        0.925     0.045     2.386     2.416
    22   1 H        0.925     0.051     2.307     2.375
    23   1 H        0.925     0.075     2.027     2.227
    24   1 H        0.925     0.041     2.435     2.440
    25   1 H        0.925     0.062     2.170     2.304
    26   1 H        0.925     0.053     2.285     2.364
    27   1 H        0.925     0.059     2.207     2.323
    28   1 H        0.924     0.093     1.853     2.129
    29   1 H        0.925     0.107     1.727     2.055
    30   1 H        0.860     0.227     0.976     1.548
    31   1 H        0.860     0.236     0.938     1.517
    32   1 H        0.926     0.062     2.174     2.306
    33   1 H        0.926     0.075     2.027     2.226
    34   1 H        0.926     0.076     2.022     2.224
    35   1 H        0.926     0.064     2.153     2.294
    36   1 H        0.860     0.189     1.162     1.688
    37   1 H        0.860     0.188     1.169     1.694

Wiberg/Mayer (AO) data.
largest (>0.10) Wiberg bond orders for each atom

     #   Z sym  total        # sym  WBO       # sym  WBO       # sym  WBO
 ---------------------------------------------------------------------------
     1   8 O    2.093 --     2 C    1.871
     2   6 C    3.905 --     1 O    1.871     3 C    0.973     7 C    0.944
     3   6 C    3.985 --     6 C    0.992     4 C    0.986     2 C    0.973
                             5 C    0.957
     4   6 C    3.991 --     3 C    0.986    21 H    0.985    19 H    0.982
                            20 H    0.980
     5   6 C    3.989 --    22 H    0.985    24 H    0.984    23 H    0.975
                             3 C    0.957
     6   6 C    3.987 --     3 C    0.992    26 H    0.985    25 H    0.983
                            27 H    0.982
     7   6 C    3.952 --     8 N    0.986    29 H    0.948     2 C    0.944
                            28 H    0.940
     8   7 N    3.599 --     9 C    1.265    13 C    1.078     7 C    0.986
     9   6 C    3.972 --    10 N    1.289     8 N    1.265    11 N    1.238
    10   7 N    3.362 --     9 C    1.289    30 H    0.923    31 H    0.918
    11   7 N    3.593 --     9 C    1.238    12 C    1.074    18 N    1.024
    12   6 C    3.951 --    17 C    1.373    13 C    1.284    11 N    1.074
    13   6 C    3.948 --    14 C    1.374    12 C    1.284     8 N    1.078
    14   6 C    3.987 --    15 C    1.459    13 C    1.374    32 H    0.962
                            17 C    0.113
    15   6 C    3.980 --    14 C    1.459    16 C    1.413    33 H    0.967
    16   6 C    3.981 --    17 C    1.458    15 C    1.413    34 H    0.967
    17   6 C    3.986 --    16 C    1.458    12 C    1.373    35 H    0.965
                            14 C    0.113
    18   7 N    2.995 --    11 N    1.024    37 H    0.943    36 H    0.943
    19   1 H    0.998 --     4 C    0.982
    20   1 H    0.995 --     4 C    0.980
    21   1 H    0.998 --     4 C    0.985
    22   1 H    0.997 --     5 C    0.985
    23   1 H    0.994 --     5 C    0.975
    24   1 H    0.998 --     5 C    0.984
    25   1 H    0.996 --     6 C    0.983
    26   1 H    0.997 --     6 C    0.985
    27   1 H    0.996 --     6 C    0.982
    28   1 H    0.991 --     7 C    0.940
    29   1 H    0.988 --     7 C    0.948
    30   1 H    0.947 --    10 N    0.923
    31   1 H    0.944 --    10 N    0.918
    32   1 H    0.995 --    14 C    0.962
    33   1 H    0.994 --    15 C    0.967
    34   1 H    0.994 --    16 C    0.967
    35   1 H    0.995 --    17 C    0.965
    36   1 H    0.963 --    18 N    0.943
    37   1 H    0.964 --    18 N    0.943
 ---------------------------------------------------------------------------

molecular dipole:
                 x           y           z       tot (Debye)
 q only:        5.293       1.337      -4.781
   full:        5.248       1.271      -4.938      18.599

           -------------------------------------------------
          | TOTAL ENERGY              -52.910544722171 Eh   |
          | GRADIENT NORM               0.000894445701 Eh/α |
          | HOMO-LUMO GAP               3.563649791287 eV   |
           -------------------------------------------------

 * finished run on 2024/12/20 at 06:51:36.296
