   * xtb version 6.7.1 (edcfbbe) compiled by 'conda@3ef47c1a292c' on 2024-11-25

   ID    Z sym.   atoms
    1    6 C      1, 3-9, 11-13
    2    8 O      2
    3    7 N      10
    4    1 H      14-31

          program call               : xtb C0642.xyz --opt --namespace C0642 --charge +1
          :  Hamiltonian                  GFN2-xTB          :
 * total energy  :   -39.3091706 Eh     change       -0.2817941E-09 Eh
 * total energy  :   -39.3158053 Eh     change       -0.6634706E-02 Eh
 * total energy  :   -39.3175556 Eh     change       -0.1750265E-02 Eh
 * total energy  :   -39.3177386 Eh     change       -0.1829942E-03 Eh
 * total energy  :   -39.3178888 Eh     change       -0.1501522E-03 Eh
 * total energy  :   -39.3179447 Eh     change       -0.5593992E-04 Eh
 * total energy  :   -39.3180070 Eh     change       -0.6228818E-04 Eh
 * total energy  :   -39.3180505 Eh     change       -0.4350551E-04 Eh
 * total energy  :   -39.3180733 Eh     change       -0.2281292E-04 Eh
 * total energy  :   -39.3180915 Eh     change       -0.1817870E-04 Eh
 * total energy  :   -39.3181069 Eh     change       -0.1540356E-04 Eh
 * total energy  :   -39.3181226 Eh     change       -0.1572632E-04 Eh
 * total energy  :   -39.3181383 Eh     change       -0.1570036E-04 Eh
 * total energy  :   -39.3181522 Eh     change       -0.1390207E-04 Eh
 * total energy  :   -39.3181636 Eh     change       -0.1133508E-04 Eh
 * total energy  :   -39.3181733 Eh     change       -0.9705007E-05 Eh
 * total energy  :   -39.3181814 Eh     change       -0.8159505E-05 Eh
 * total energy  :   -39.3181868 Eh     change       -0.5426908E-05 Eh
 * total energy  :   -39.3181894 Eh     change       -0.2564571E-05 Eh
   *** GEOMETRY OPTIMIZATION CONVERGED AFTER 19 ITERATIONS ***

 final structure:
================
31
 xtb: 6.7.1 (edcfbbe)
C            1.11911455976592        0.20598275965775        0.23878812170640
O            0.19304863247483       -0.64025587781970        0.88909250865364
C            0.63871949042069       -1.65975218063048        1.63540508473509
C           -0.34530858057878       -2.47697213916656        2.20837300468895
C            0.00282487083706       -3.55304610750481        2.98948663810416
C            1.34363299432067       -3.85095026135334        3.23934377975194
C            2.31832305349902       -3.04711932072280        2.65836136402675
C            1.98075365242366       -1.96439743441905        1.86896992929109
C            1.72322251676455       -5.04061040174221        4.07463269875523
N            1.85014115726569       -4.74665094907141        5.54917046603537
C            0.56645421652774       -4.26160357829218        6.08280147574720
C            2.22999949197953       -5.98662155315633        6.24774693189247
C            2.88519537522352       -3.72413665796385        5.77370018788065
H            0.51815762159655        0.92945868490418       -0.30815123179470
H            1.74261839683951       -0.35222072571851       -0.46477284742570
H            1.75277110925878        0.73214456862630        0.95820089816533
H           -1.37847313510900       -2.24668982922209        2.00699176918096
H           -0.77705002730261       -4.18268973294029        3.39185121854565
H            3.36462992624745       -3.27494798394674        2.80325107221938
H            2.76676755527092       -1.37224301720048        1.43015829471704
H            0.96958226783435       -5.82315734574453        3.96652584642011
H            2.68547730267555       -5.43467739294488        3.74166868371051
H           -0.20638199598242       -5.01527570492746        5.94433008408853
H            0.66013565904457       -4.04850112357521        7.14603934773586
H            0.26866345844026       -3.35253428345166        5.56350860771079
H            3.18168878326991       -6.35727390969217        5.87094405054220
H            2.32731876378725       -5.80075723545711        7.31617705656124
H            1.47307616833439       -6.75410760073848        6.09558389955028
H            3.84626706338054       -4.07531742665968        5.40269256310830
H            2.61923848140806       -2.80736077501785        5.25036110093923
H            2.97731117008130       -3.51195546410609        6.83733739475755

          :  Hamiltonian                  GFN2-xTB          :
         :: total energy             -39.318189409106 Eh    ::
         :: gradient norm              0.000178928738 Eh/a0 ::
         :: HOMO-LUMO gap              3.995263329740 eV    ::
         :: SCC energy               -39.902555705061 Eh    ::
         :: -> dispersion             -0.025546229996 Eh    ::
         :: repulsion energy           0.584366295954 Eh    ::

    * Orbital Energies and Occupations

         #    Occupation            Energy/Eh            Energy/eV
      -------------------------------------------------------------
         1        2.0000           -0.8632113             -23.4892
       ...           ...                  ...                  ...
        24        2.0000           -0.6395339             -17.4026
        25        2.0000           -0.6384292             -17.3725
        26        2.0000           -0.6293707             -17.1260
        27        2.0000           -0.6102840             -16.6067
        28        2.0000           -0.5999037             -16.3242
        29        2.0000           -0.5964637             -16.2306
        30        2.0000           -0.5897480             -16.0479
        31        2.0000           -0.5719827             -15.5644
        32        2.0000           -0.5600701             -15.2403
        33        2.0000           -0.5595747             -15.2268
        34        2.0000           -0.5353943             -14.5688
        35        2.0000           -0.5272971             -14.3485
        36        2.0000           -0.4935492             -13.4302 (HOMO)
        37                         -0.3467260              -9.4349 (LUMO)
        38                         -0.3435013              -9.3471
        39                         -0.2315957              -6.3020
        40                         -0.1987913              -5.4094
        41                         -0.1466052              -3.9893
        42                         -0.1387195              -3.7748
        43                         -0.1369980              -3.7279
        44                         -0.0711960              -1.9373
        45                         -0.0545663              -1.4848
        46                         -0.0298691              -0.8128
        47                          0.0046348               0.1261
       ...                                ...                  ...
        70                          0.5450559              14.8317
      -------------------------------------------------------------
                  HL-Gap            0.1468232 Eh            3.9953 eV

     #   Z          covCN         q      C6AA      α(0)
     1   6 C        3.644     0.025    20.496     6.507
     2   8 O        1.706    -0.237    17.924     5.716
     3   6 C        2.865     0.159    24.569     8.125
     4   6 C        2.919    -0.052    29.287     8.875
     5   6 C        2.921    -0.041    29.017     8.834
     6   6 C        2.966    -0.025    28.618     8.775
     7   6 C        2.923    -0.041    29.021     8.834
     8   6 C        2.915    -0.065    29.627     8.926
     9   6 C        3.764    -0.043    21.380     6.591
    10   7 N        3.622     0.141    18.843     6.447
    11   6 C        3.722    -0.096    22.452     6.767
    12   6 C        3.724    -0.096    22.453     6.766
    13   6 C        3.722    -0.096    22.441     6.765
    14   1 H        0.925     0.083     1.952     2.185
    15   1 H        0.924     0.055     2.256     2.349
    16   1 H        0.924     0.052     2.291     2.367
    17   1 H        0.926     0.072     2.066     2.248
    18   1 H        0.926     0.045     2.381     2.413
    19   1 H        0.926     0.042     2.426     2.436
    20   1 H        0.926     0.057     2.233     2.337
    21   1 H        0.924     0.085     1.929     2.172
    22   1 H        0.924     0.084     1.935     2.175
    23   1 H        0.925     0.098     1.807     2.102
    24   1 H        0.925     0.096     1.819     2.109
    25   1 H        0.925     0.105     1.740     2.063
    26   1 H        0.925     0.098     1.804     2.100
    27   1 H        0.925     0.099     1.792     2.093
    28   1 H        0.925     0.098     1.801     2.098
    29   1 H        0.925     0.097     1.812     2.105
    30   1 H        0.925     0.104     1.749     2.068
    31   1 H        0.925     0.096     1.819     2.109

Wiberg/Mayer (AO) data.
largest (>0.10) Wiberg bond orders for each atom

     #   Z sym  total        # sym  WBO       # sym  WBO       # sym  WBO
 ---------------------------------------------------------------------------
     1   6 C    3.930 --    14 H    0.977    16 H    0.976    15 H    0.976
                             2 O    0.970
     2   8 O    2.294 --     3 C    1.122     1 C    0.970
     3   6 C    3.941 --     8 C    1.348     4 C    1.320     2 O    1.122
     4   6 C    3.987 --     5 C    1.494     3 C    1.320    17 H    0.965
     5   6 C    3.991 --     4 C    1.494     6 C    1.371    18 H    0.967
     6   6 C    3.971 --     7 C    1.403     5 C    1.371     9 C    1.010
     7   6 C    3.991 --     8 C    1.457     6 C    1.403    19 H    0.968
     8   6 C    3.988 --     7 C    1.457     3 C    1.348    20 H    0.964
     9   6 C    3.924 --     6 C    1.010    22 H    0.966    21 H    0.966
                            10 N    0.900
    10   7 N    3.812 --    12 C    0.961    13 C    0.960    11 C    0.959
                             9 C    0.900
    11   6 C    3.927 --    23 H    0.975    24 H    0.975    25 H    0.970
                            10 N    0.959
    12   6 C    3.929 --    26 H    0.975    28 H    0.975    27 H    0.974
                            10 N    0.961
    13   6 C    3.928 --    29 H    0.975    31 H    0.975    30 H    0.970
                            10 N    0.960
    14   1 H    0.993 --     1 C    0.977
    15   1 H    0.997 --     1 C    0.976
    16   1 H    0.997 --     1 C    0.976
    17   1 H    0.995 --     4 C    0.965
    18   1 H    0.997 --     5 C    0.967
    19   1 H    0.998 --     7 C    0.968
    20   1 H    0.996 --     8 C    0.964
    21   1 H    0.992 --     9 C    0.966
    22   1 H    0.992 --     9 C    0.966
    23   1 H    0.990 --    11 C    0.975
    24   1 H    0.991 --    11 C    0.975
    25   1 H    0.989 --    11 C    0.970
    26   1 H    0.990 --    12 C    0.975
    27   1 H    0.989 --    12 C    0.974
    28   1 H    0.990 --    12 C    0.975
    29   1 H    0.991 --    13 C    0.975
    30   1 H    0.989 --    13 C    0.970
    31   1 H    0.991 --    13 C    0.975
 ---------------------------------------------------------------------------

molecular dipole:
                 x           y           z       tot (Debye)
 q only:        3.555      -7.819       9.460
   full:        3.717      -7.883       9.461      32.697

           -------------------------------------------------
          | TOTAL ENERGY              -39.318189409106 Eh   |
          | GRADIENT NORM               0.000178928738 Eh/α |
          | HOMO-LUMO GAP               3.995263329740 eV   |
           -------------------------------------------------

 * finished run on 2024/12/20 at 06:51:34.709
