   * xtb version 6.7.1 (edcfbbe) compiled by 'conda@3ef47c1a292c' on 2024-11-25

   ID    Z sym.   atoms
    1    6 C      1-3, 5-10
    2    7 N      4
    3    8 O      11
    4    1 H      12-21

          program call               : xtb C0640.xyz --opt --namespace C0640 --charge +1
          :  Hamiltonian                  GFN2-xTB          :
 * total energy  :   -30.8724535 Eh     change       -0.8454037E-09 Eh
 * total energy  :   -30.8762614 Eh     change       -0.3807980E-02 Eh
 * total energy  :   -30.8769510 Eh     change       -0.6895772E-03 Eh
 * total energy  :   -30.8770420 Eh     change       -0.9103184E-04 Eh
 * total energy  :   -30.8770781 Eh     change       -0.3602189E-04 Eh
 * total energy  :   -30.8771057 Eh     change       -0.2762952E-04 Eh
 * total energy  :   -30.8771206 Eh     change       -0.1495626E-04 Eh
 * total energy  :   -30.8771321 Eh     change       -0.1148787E-04 Eh
 * total energy  :   -30.8771424 Eh     change       -0.1026060E-04 Eh
 * total energy  :   -30.8771480 Eh     change       -0.5615973E-05 Eh
 * total energy  :   -30.8771548 Eh     change       -0.6739534E-05 Eh
 * total energy  :   -30.8771645 Eh     change       -0.9796907E-05 Eh
 * total energy  :   -30.8771738 Eh     change       -0.9288236E-05 Eh
 * total energy  :   -30.8771780 Eh     change       -0.4130584E-05 Eh
   *** GEOMETRY OPTIMIZATION CONVERGED AFTER 14 ITERATIONS ***

 final structure:
================
21
 xtb: 6.7.1 (edcfbbe)
C            0.94823933504317       -0.17131011131452        0.10094726223304
C            0.44716899798875        1.04165437363295        0.22411185295948
C           -1.01848460592442        1.36000494221119        0.04876568587787
N           -1.53933098094312        1.95564024312100        1.27275703561601
C           -2.02049684865980        1.16446241896043        2.23997565188114
C           -2.45140255710353        1.68482115797058        3.44405450577275
C           -2.37374245075368        3.05340026228343        3.65521122384431
C           -1.86369221140813        3.86550479497588        2.63957642378443
C           -1.45458609013469        3.27641359086180        1.45444783982239
C           -1.76760469751417        5.34668769124820        2.85088848828229
O           -2.09163003299354        5.87231309284727        3.87063015103362
H            0.34013310042762       -1.02885002494484       -0.13493510049661
H            2.00319304861765       -0.35203680682352        0.20773475301575
H            1.07759568134602        1.89028787406356        0.45052013753028
H           -1.14824368996028        2.06902243163064       -0.77303185987479
H           -1.57545632776193        0.44962193642506       -0.17814398716471
H           -2.05461665464296        0.10385322507768        2.03714804448008
H           -2.84011307836966        1.02515029344831        4.20367936717583
H           -2.69472418398607        3.51114573209282        4.58030995841685
H           -1.05659188825329        3.86886129952161        0.64155308661226
H           -1.37141386501389        5.90096158271050        1.98405947919773

          :  Hamiltonian                  GFN2-xTB          :
         :: total energy             -30.877177967720 Eh    ::
         :: gradient norm              0.000436911047 Eh/a0 ::
         :: HOMO-LUMO gap              2.219020436588 eV    ::
         :: SCC energy               -31.379125725222 Eh    ::
         :: -> dispersion             -0.016072494319 Eh    ::
         :: repulsion energy           0.501947757501 Eh    ::

    * Orbital Energies and Occupations

         #    Occupation            Energy/Eh            Energy/eV
      -------------------------------------------------------------
         1        2.0000           -0.8970671             -24.4104
       ...           ...                  ...                  ...
        16        2.0000           -0.6973414             -18.9756
        17        2.0000           -0.6940167             -18.8852
        18        2.0000           -0.6764382             -18.4068
        19        2.0000           -0.6708572             -18.2550
        20        2.0000           -0.6544112             -17.8074
        21        2.0000           -0.6503347             -17.6965
        22        2.0000           -0.6383900             -17.3715
        23        2.0000           -0.6343731             -17.2622
        24        2.0000           -0.6289502             -17.1146
        25        2.0000           -0.6174024             -16.8004
        26        2.0000           -0.5869208             -15.9709
        27        2.0000           -0.5695032             -15.4970
        28        2.0000           -0.5604570             -15.2508 (HOMO)
        29                         -0.4789095             -13.0318 (LUMO)
        30                         -0.4650217             -12.6539
        31                         -0.3937986             -10.7158
        32                         -0.3664911              -9.9727
        33                         -0.3043094              -8.2807
        34                         -0.1822604              -4.9596
        35                         -0.0979787              -2.6661
        36                         -0.0785619              -2.1378
        37                         -0.0593859              -1.6160
        38                         -0.0551595              -1.5010
        39                         -0.0292639              -0.7963
       ...                                ...                  ...
        54                          0.5217433              14.1974
      -------------------------------------------------------------
                  HL-Gap            0.0815475 Eh            2.2190 eV

     #   Z          covCN         q      C6AA      α(0)
     1   6 C        2.837    -0.075    29.850     8.953
     2   6 C        2.887    -0.040    28.996     8.828
     3   6 C        3.763    -0.037    21.278     6.575
     4   7 N        2.750     0.117    19.243     6.515
     5   6 C        2.891     0.036    27.197     8.550
     6   6 C        2.913    -0.007    28.201     8.708
     7   6 C        2.927     0.020    27.552     8.608
     8   6 C        2.965     0.015    27.670     8.628
     9   6 C        2.892     0.031    27.315     8.569
    10   6 C        2.762     0.207    23.607     7.957
    11   8 O        0.857    -0.238    18.702     5.798
    12   1 H        0.926     0.074     2.039     2.233
    13   1 H        0.926     0.090     1.878     2.143
    14   1 H        0.926     0.062     2.179     2.308
    15   1 H        0.924     0.101     1.778     2.085
    16   1 H        0.924     0.102     1.770     2.080
    17   1 H        0.926     0.118     1.631     1.997
    18   1 H        0.926     0.118     1.626     1.994
    19   1 H        0.926     0.132     1.523     1.930
    20   1 H        0.925     0.114     1.666     2.018
    21   1 H        0.923     0.061     2.183     2.310

Wiberg/Mayer (AO) data.
largest (>0.10) Wiberg bond orders for each atom

     #   Z sym  total        # sym  WBO       # sym  WBO       # sym  WBO
 ---------------------------------------------------------------------------
     1   6 C    3.978 --     2 C    1.987    12 H    0.970    13 H    0.966
     2   6 C    3.977 --     1 C    1.987     3 C    0.982    14 H    0.962
     3   6 C    3.928 --     2 C    0.982    16 H    0.959     4 N    0.952
                            15 H    0.952
     4   7 N    3.770 --     9 C    1.338     5 C    1.322     3 C    0.952
     5   6 C    3.955 --     6 C    1.459     4 N    1.322    17 H    0.953
     6   6 C    3.978 --     5 C    1.459     7 C    1.427    18 H    0.956
     7   6 C    3.956 --     6 C    1.427     8 C    1.376    19 H    0.952
     8   6 C    3.984 --     9 C    1.421     7 C    1.376    10 C    0.995
     9   6 C    3.958 --     8 C    1.421     4 N    1.338    20 H    0.951
    10   6 C    3.924 --    11 O    1.962     8 C    0.995    21 H    0.929
    11   8 O    2.151 --    10 C    1.962
    12   1 H    0.994 --     1 C    0.970
    13   1 H    0.991 --     1 C    0.966
    14   1 H    0.996 --     2 C    0.962
    15   1 H    0.990 --     3 C    0.952
    16   1 H    0.989 --     3 C    0.959
    17   1 H    0.986 --     5 C    0.953
    18   1 H    0.985 --     6 C    0.956
    19   1 H    0.983 --     7 C    0.952
    20   1 H    0.987 --     9 C    0.951
    21   1 H    0.996 --    10 C    0.929
 ---------------------------------------------------------------------------

molecular dipole:
                 x           y           z       tot (Debye)
 q only:       -2.674       3.341       2.813
   full:       -2.673       3.286       2.594      12.624

           -------------------------------------------------
          | TOTAL ENERGY              -30.877177967720 Eh   |
          | GRADIENT NORM               0.000436911047 Eh/α |
          | HOMO-LUMO GAP               2.219020436588 eV   |
           -------------------------------------------------

 * finished run on 2024/12/20 at 06:51:31.352
