   * xtb version 6.7.1 (edcfbbe) compiled by 'conda@3ef47c1a292c' on 2024-11-25

   ID    Z sym.   atoms
    1    6 C      1-4, 6-16
    2   15 P      5
    3    1 H      17-50

          program call               : xtb C0648.xyz --opt --namespace C0648 --charge +1
          :  Hamiltonian                  GFN2-xTB          :
 * total energy  :   -51.5966427 Eh     change       -0.2210996E-09 Eh
 * total energy  :   -51.6019142 Eh     change       -0.5271489E-02 Eh
 * total energy  :   -51.6033858 Eh     change       -0.1471575E-02 Eh
 * total energy  :   -51.6035882 Eh     change       -0.2024161E-03 Eh
 * total energy  :   -51.6036970 Eh     change       -0.1087962E-03 Eh
 * total energy  :   -51.6037871 Eh     change       -0.9007801E-04 Eh
 * total energy  :   -51.6039170 Eh     change       -0.1298620E-03 Eh
 * total energy  :   -51.6040846 Eh     change       -0.1676128E-03 Eh
 * total energy  :   -51.6042678 Eh     change       -0.1832550E-03 Eh
 * total energy  :   -51.6044680 Eh     change       -0.2002304E-03 Eh
 * total energy  :   -51.6118353 Eh     change       -0.1529336E-04 Eh
 * total energy  :   -51.6118484 Eh     change       -0.1313629E-04 Eh
 * total energy  :   -51.6118613 Eh     change       -0.1290098E-04 Eh
 * total energy  :   -51.6118756 Eh     change       -0.1421628E-04 Eh
 * total energy  :   -51.6118879 Eh     change       -0.1233792E-04 Eh
 * total energy  :   -51.6118962 Eh     change       -0.8300756E-05 Eh
 * total energy  :   -51.6119062 Eh     change       -0.9992570E-05 Eh
 * total energy  :   -51.6119134 Eh     change       -0.7158011E-05 Eh
 * total energy  :   -51.6119169 Eh     change       -0.3546697E-05 Eh
   *** GEOMETRY OPTIMIZATION CONVERGED AFTER 113 ITERATIONS ***

 final structure:
================
50
 xtb: 6.7.1 (edcfbbe)
C            2.83415284835145       -3.17939995873750       -0.13779242358691
C            2.26279085804872       -1.77021772921561       -0.25369243545818
C            0.73574795223656       -1.73965074698452       -0.36818176312711
C            0.06362311036769       -2.14591998521420        0.94586499580257
P           -1.74228999931293       -2.34703376949960        0.76021812134952
C           -2.05640556388822       -3.74010551191713       -0.39027662996071
C           -1.13424654913722       -4.95303231088318       -0.25490637106662
C           -1.23990460193266       -5.64501328630101        1.09666872069290
C           -2.60296380642079       -2.69802956480873        2.34772136612087
C           -1.76420949011120       -2.51931871361374        3.61534660422017
C           -1.56731866362580       -1.05562382849704        4.01258340526520
C           -2.80899922730549       -0.44689164109759        4.65399770519076
C           -2.57405101346418       -0.94965371169988       -0.08614262063323
C           -2.73148492706512        0.35986411645261        0.68818927251151
C           -1.47253898170026        1.22802494873309        0.71720512036161
C           -1.16960266320875        1.88372096412991       -0.62517323880962
H            2.54122945406956       -3.66262573650238        0.79195279113294
H            3.91943112735827       -3.13760634859610       -0.15699625649125
H            2.50722415074828       -3.79687219310192       -0.97273065742178
H            2.57538429921741       -1.17546458889731        0.60705908715627
H            2.67666588460365       -1.29890902897940       -1.14629751712118
H            0.42768958948846       -0.72816660632761       -0.63783915003894
H            0.42863498380926       -2.41116356368982       -1.17397181875115
H            0.44960641983284       -3.11079427156716        1.28400572149177
H            0.27345589157224       -1.41224557815435        1.72621613797670
H           -3.09743357568886       -4.04166072009295       -0.23398916561371
H           -1.98205686059807       -3.33470716268134       -1.40409517187763
H           -1.40862300633123       -5.66319550618689       -1.03744103015471
H           -0.09911361422849       -4.66010295558000       -0.43684699411289
H           -2.26139834185625       -5.96546324985314        1.28898317153851
H           -0.60675451953791       -6.52808011082960        1.10897027062027
H           -0.91892157096824       -4.99007599859416        1.90549978881208
H           -3.48369582477986       -2.05211905112560        2.38545717736837
H           -2.95776608329148       -3.72917006889029        2.28045236770770
H           -2.27274844893757       -3.03463278095040        4.43237030993715
H           -0.79323826570023       -3.00248294360460        3.48758295174111
H           -0.74559165058795       -0.99553361331016        4.72757178958266
H           -1.28591617679351       -0.47015167837064        3.13337920000335
H           -3.06766963924823       -0.98483415689981        5.56224617037468
H           -2.62344955982129        0.59073813410564        4.91726732748150
H           -3.66864891676523       -0.47570483582042        3.98763901916293
H           -2.04636979698711       -0.77635358955994       -1.02701409596428
H           -3.56512779905464       -1.34736669747355       -0.33594491856314
H           -3.52957520608443        0.93416760977232        0.21339063490626
H           -3.05235341779709        0.15043582012407        1.70979923291065
H           -1.62082837636013        2.01509839092511        1.45821998523479
H           -0.61459294832069        0.63383063489245        1.03867604814675
H           -2.00044294578558        2.51220905828889       -0.93522410172661
H           -0.28545972577538        2.50993182110574       -0.54301927281461
H           -0.98844481120461        1.15001229556241       -1.40799886150517

          :  Hamiltonian                  GFN2-xTB          :
         :: total energy             -51.611916899000 Eh    ::
         :: gradient norm              0.000821476087 Eh/a0 ::
         :: HOMO-LUMO gap              6.605268109816 eV    ::
         :: SCC energy               -52.376143762104 Eh    ::
         :: -> dispersion             -0.044382555836 Eh    ::
         :: repulsion energy           0.764226863105 Eh    ::

    * Orbital Energies and Occupations

         #    Occupation            Energy/Eh            Energy/eV
      -------------------------------------------------------------
         1        2.0000           -0.8432949             -22.9472
       ...           ...                  ...                  ...
        37        2.0000           -0.5793976             -15.7662
        38        2.0000           -0.5757835             -15.6679
        39        2.0000           -0.5682411             -15.4626
        40        2.0000           -0.5609641             -15.2646
        41        2.0000           -0.5578161             -15.1789
        42        2.0000           -0.5548993             -15.0996
        43        2.0000           -0.5537123             -15.0673
        44        2.0000           -0.5513501             -15.0030
        45        2.0000           -0.5494630             -14.9517
        46        2.0000           -0.5464234             -14.8689
        47        2.0000           -0.5441090             -14.8060
        48        2.0000           -0.5425990             -14.7649
        49        2.0000           -0.5401438             -14.6981 (HOMO)
        50                         -0.2974047              -8.0928 (LUMO)
        51                         -0.2848868              -7.7522
        52                         -0.2648596              -7.2072
        53                         -0.1926132              -5.2413
        54                         -0.1122889              -3.0555
        55                         -0.0672541              -1.8301
        56                         -0.0517135              -1.4072
        57                         -0.0464842              -1.2649
        58                         -0.0409556              -1.1145
        59                         -0.0373038              -1.0151
        60                         -0.0355027              -0.9661
       ...                                ...                  ...
       103                          0.7903135              21.5055
      -------------------------------------------------------------
                  HL-Gap            0.2427391 Eh            6.6053 eV

     #   Z          covCN         q      C6AA      α(0)
     1   6 C        3.751    -0.110    22.670     6.790
     2   6 C        3.801    -0.060    21.662     6.627
     3   6 C        3.876    -0.062    21.645     6.615
     4   6 C        3.751    -0.067    21.847     6.666
     5  15 P        3.920     0.175   152.708    22.198
     6   6 C        3.750    -0.079    22.072     6.700
     7   6 C        3.840    -0.060    21.630     6.616
     8   6 C        3.751    -0.114    22.740     6.801
     9   6 C        3.750    -0.075    21.995     6.688
    10   6 C        3.842    -0.064    21.699     6.627
    11   6 C        3.800    -0.061    21.665     6.627
    12   6 C        3.752    -0.111    22.680     6.791
    13   6 C        3.750    -0.075    21.997     6.689
    14   6 C        3.834    -0.065    21.721     6.631
    15   6 C        3.800    -0.058    21.622     6.621
    16   6 C        3.752    -0.111    22.680     6.792
    17   1 H        0.925     0.034     2.535     2.490
    18   1 H        0.925     0.055     2.253     2.347
    19   1 H        0.925     0.041     2.442     2.444
    20   1 H        0.924     0.045     2.384     2.415
    21   1 H        0.924     0.055     2.259     2.350
    22   1 H        0.924     0.055     2.256     2.349
    23   1 H        0.924     0.050     2.314     2.379
    24   1 H        0.927     0.097     1.808     2.103
    25   1 H        0.926     0.090     1.880     2.144
    26   1 H        0.927     0.084     1.936     2.176
    27   1 H        0.927     0.081     1.964     2.191
    28   1 H        0.924     0.065     2.140     2.288
    29   1 H        0.924     0.057     2.234     2.337
    30   1 H        0.925     0.048     2.343     2.394
    31   1 H        0.925     0.063     2.161     2.299
    32   1 H        0.925     0.041     2.436     2.441
    33   1 H        0.926     0.092     1.858     2.132
    34   1 H        0.927     0.092     1.861     2.133
    35   1 H        0.924     0.069     2.100     2.266
    36   1 H        0.924     0.046     2.370     2.407
    37   1 H        0.924     0.052     2.293     2.368
    38   1 H        0.924     0.036     2.497     2.471
    39   1 H        0.925     0.051     2.311     2.377
    40   1 H        0.925     0.052     2.300     2.371
    41   1 H        0.925     0.032     2.554     2.499
    42   1 H        0.926     0.092     1.857     2.131
    43   1 H        0.929     0.084     1.938     2.177
    44   1 H        0.924     0.066     2.136     2.285
    45   1 H        0.924     0.054     2.274     2.358
    46   1 H        0.924     0.053     2.287     2.365
    47   1 H        0.924     0.033     2.545     2.495
    48   1 H        0.925     0.050     2.324     2.384
    49   1 H        0.925     0.052     2.301     2.372
    50   1 H        0.925     0.031     2.572     2.508

Wiberg/Mayer (AO) data.
largest (>0.10) Wiberg bond orders for each atom

     #   Z sym  total        # sym  WBO       # sym  WBO       # sym  WBO
 ---------------------------------------------------------------------------
     1   6 C    3.994 --     2 C    1.021    19 H    0.986    17 H    0.984
                            18 H    0.984
     2   6 C    3.990 --     1 C    1.021     3 C    1.000    20 H    0.976
                            21 H    0.974
     3   6 C    3.989 --     2 C    1.000     4 C    0.984    22 H    0.968
                            23 H    0.966
     4   6 C    3.985 --     5 P    1.002     3 C    0.984    25 H    0.934
                            24 H    0.922
     5  15 P    4.564 --    13 C    1.009     6 C    1.008     4 C    1.002
                             9 C    0.994
     6   6 C    3.989 --     5 P    1.008     7 C    0.992    27 H    0.937
                            26 H    0.935
     7   6 C    3.987 --     8 C    1.021     6 C    0.992    28 H    0.970
                            29 H    0.968
     8   6 C    3.993 --     7 C    1.021    30 H    0.984    31 H    0.983
                            32 H    0.972
     9   6 C    3.982 --     5 P    0.994    10 C    0.991    34 H    0.934
                            33 H    0.931
    10   6 C    3.988 --    11 C    1.007     9 C    0.991    35 H    0.968
                            36 H    0.968
    11   6 C    3.995 --    12 C    1.021    10 C    1.007    37 H    0.976
                            38 H    0.962
    12   6 C    3.994 --    11 C    1.021    39 H    0.986    40 H    0.985
                            41 H    0.982
    13   6 C    3.987 --     5 P    1.009    14 C    0.991    42 H    0.930
                            43 H    0.929
    14   6 C    3.986 --    15 C    1.007    13 C    0.991    44 H    0.968
                            45 H    0.963
    15   6 C    3.995 --    16 C    1.021    14 C    1.007    46 H    0.975
                            47 H    0.966
    16   6 C    3.993 --    15 C    1.021    48 H    0.986    49 H    0.985
                            50 H    0.983
    17   1 H    0.999 --     1 C    0.984
    18   1 H    0.997 --     1 C    0.984
    19   1 H    0.998 --     1 C    0.986
    20   1 H    0.998 --     2 C    0.976
    21   1 H    0.996 --     2 C    0.974
    22   1 H    0.997 --     3 C    0.968
    23   1 H    0.997 --     3 C    0.966
    24   1 H    0.990 --     4 C    0.922
    25   1 H    0.992 --     4 C    0.934
    26   1 H    0.993 --     6 C    0.935
    27   1 H    0.993 --     6 C    0.937
    28   1 H    0.995 --     7 C    0.970
    29   1 H    0.997 --     7 C    0.968
    30   1 H    0.998 --     8 C    0.984
    31   1 H    0.996 --     8 C    0.983
    32   1 H    0.998 --     8 C    0.972
    33   1 H    0.991 --     9 C    0.931
    34   1 H    0.991 --     9 C    0.934
    35   1 H    0.995 --    10 C    0.968
    36   1 H    0.998 --    10 C    0.968
    37   1 H    0.997 --    11 C    0.976
    38   1 H    0.999 --    11 C    0.962
    39   1 H    0.997 --    12 C    0.986
    40   1 H    0.997 --    12 C    0.985
    41   1 H    0.999 --    12 C    0.982
    42   1 H    0.991 --    13 C    0.930
    43   1 H    0.993 --    13 C    0.929
    44   1 H    0.995 --    14 C    0.968
    45   1 H    0.997 --    14 C    0.963
    46   1 H    0.997 --    15 C    0.975
    47   1 H    0.999 --    15 C    0.966
    48   1 H    0.997 --    16 C    0.986
    49   1 H    0.997 --    16 C    0.985
    50   1 H    0.999 --    16 C    0.983
 ---------------------------------------------------------------------------

molecular dipole:
                 x           y           z       tot (Debye)
 q only:       -2.776      -4.191       1.653
   full:       -2.931      -4.266       1.566      13.745

           -------------------------------------------------
          | TOTAL ENERGY              -51.611916899000 Eh   |
          | GRADIENT NORM               0.000821476087 Eh/α |
          | HOMO-LUMO GAP               6.605268109816 eV   |
           -------------------------------------------------

 * finished run on 2024/12/20 at 06:51:43.254
