   * xtb version 6.7.1 (edcfbbe) compiled by 'conda@3ef47c1a292c' on 2024-11-25

   ID    Z sym.   atoms
    1    6 C      1-3, 5-10
    2    7 N      4, 11
    3    8 O      12
    4    1 H      13-23

          program call               : xtb C0647.xyz --opt --namespace C0647 --charge +1
          :  Hamiltonian                  GFN2-xTB          :
 * total energy  :   -34.2821819 Eh     change       -0.6045298E-10 Eh
 * total energy  :   -34.2879625 Eh     change       -0.5780584E-02 Eh
 * total energy  :   -34.2890828 Eh     change       -0.1120317E-02 Eh
 * total energy  :   -34.2893695 Eh     change       -0.2866685E-03 Eh
 * total energy  :   -34.2895091 Eh     change       -0.1396027E-03 Eh
 * total energy  :   -34.2896350 Eh     change       -0.1259220E-03 Eh
 * total energy  :   -34.2897728 Eh     change       -0.1378186E-03 Eh
 * total energy  :   -34.2899363 Eh     change       -0.1634610E-03 Eh
 * total energy  :   -34.2901208 Eh     change       -0.1845460E-03 Eh
 * total energy  :   -34.2902539 Eh     change       -0.1330342E-03 Eh
 * total energy  :   -34.2904310 Eh     change       -0.6788834E-04 Eh
 * total energy  :   -34.2904634 Eh     change       -0.3243805E-04 Eh
 * total energy  :   -34.2904985 Eh     change       -0.3506365E-04 Eh
 * total energy  :   -34.2905107 Eh     change       -0.1222579E-04 Eh
 * total energy  :   -34.2905271 Eh     change       -0.1640555E-04 Eh
 * total energy  :   -34.2905341 Eh     change       -0.7016947E-05 Eh
 * total energy  :   -34.2905411 Eh     change       -0.7003725E-05 Eh
 * total energy  :   -34.2905452 Eh     change       -0.4062754E-05 Eh
 * total energy  :   -34.2905479 Eh     change       -0.2765187E-05 Eh
   *** GEOMETRY OPTIMIZATION CONVERGED AFTER 20 ITERATIONS ***

 final structure:
================
23
 xtb: 6.7.1 (edcfbbe)
C            1.07914774617930        0.05100850993661        0.07229930307421
C            0.41655119117544        1.07993620809384        0.56188256246623
C           -1.06705433681525        1.28043376322915        0.37495820324444
N           -1.72100095042413        1.40916740436952        1.66872960887799
C           -2.17820500573918        0.32054045938329        2.30049454566441
C           -2.74871533824912        0.39563700125364        3.54848082004231
C           -2.85606740852400        1.63751352675212        4.19446674863805
C           -2.35174519335983        2.75498715813477        3.50935732612874
C           -1.79610450540297        2.60878218099065        2.26317108972018
C           -3.45378137387504        1.82029008747797        5.50783808750071
N           -3.98166554700142        0.98149216147413        6.30274366458617
O           -4.05107708258522       -0.33347044781034        5.97673129045064
H            0.59812581835879       -0.72604825517417       -0.49846102312922
H            2.14227328947285       -0.04458467615457        0.20479109513052
H            0.91794800018799        1.85585769950454        1.12315119311142
H           -1.24668652146758        2.19273545905767       -0.20081476992918
H           -1.49499446333315        0.43345443648654       -0.16380762581033
H           -2.08126286146311       -0.62364768650964        1.78583260505678
H           -3.11184375987885       -0.50154058788726        4.02182706901035
H           -2.40193381099944        3.73496374031989        3.95710856838371
H           -1.40646747064206        3.45498557468942        1.71692762776670
H           -3.46837276160106        2.82916814883239        5.89657917743083
H           -4.49244765401261       -0.76297186644976        6.72987283258463

          :  Hamiltonian                  GFN2-xTB          :
         :: total energy             -34.290547948070 Eh    ::
         :: gradient norm              0.000827151926 Eh/a0 ::
         :: HOMO-LUMO gap              1.756350075264 eV    ::
         :: SCC energy               -34.820120348044 Eh    ::
         :: -> dispersion             -0.018031246392 Eh    ::
         :: repulsion energy           0.529572399974 Eh    ::

    * Orbital Energies and Occupations

         #    Occupation            Energy/Eh            Energy/eV
      -------------------------------------------------------------
         1        2.0000           -0.8726624             -23.7464
       ...           ...                  ...                  ...
        19        2.0000           -0.6695036             -18.2181
        20        2.0000           -0.6578299             -17.9005
        21        2.0000           -0.6426736             -17.4880
        22        2.0000           -0.6414000             -17.4534
        23        2.0000           -0.6298931             -17.1403
        24        2.0000           -0.6251594             -17.0115
        25        2.0000           -0.6091141             -16.5748
        26        2.0000           -0.6085213             -16.5587
        27        2.0000           -0.6041347             -16.4393
        28        2.0000           -0.5753978             -15.6574
        29        2.0000           -0.5613929             -15.2763
        30        2.0000           -0.5551045             -15.1052
        31        2.0000           -0.5280832             -14.3699 (HOMO)
        32                         -0.4635386             -12.6135 (LUMO)
        33                         -0.4196037             -11.4180
        34                         -0.3730758             -10.1519
        35                         -0.3520462              -9.5797
        36                         -0.2760199              -7.5109
        37                         -0.1614326              -4.3928
        38                         -0.1467629              -3.9936
        39                         -0.0720724              -1.9612
        40                         -0.0470442              -1.2801
        41                         -0.0407804              -1.1097
        42                         -0.0282191              -0.7679
       ...                                ...                  ...
        59                          0.4866331              13.2420
      -------------------------------------------------------------
                  HL-Gap            0.0645447 Eh            1.7564 eV

     #   Z          covCN         q      C6AA      α(0)
     1   6 C        2.837    -0.076    29.896     8.960
     2   6 C        2.886    -0.039    28.979     8.826
     3   6 C        3.761    -0.033    21.202     6.564
     4   7 N        2.751     0.099    19.529     6.563
     5   6 C        2.888     0.030    27.334     8.572
     6   6 C        2.917    -0.019    28.472     8.750
     7   6 C        2.972     0.056    26.734     8.481
     8   6 C        2.921    -0.023    28.591     8.768
     9   6 C        2.888     0.031    27.311     8.568
    10   6 C        2.829     0.036    27.179     8.543
    11   7 N        1.830    -0.038    22.686     7.058
    12   8 O        1.727    -0.296    18.915     5.872
    13   1 H        0.926     0.070     2.082     2.256
    14   1 H        0.926     0.084     1.935     2.175
    15   1 H        0.926     0.059     2.211     2.325
    16   1 H        0.924     0.095     1.830     2.116
    17   1 H        0.924     0.095     1.832     2.117
    18   1 H        0.926     0.104     1.745     2.066
    19   1 H        0.926     0.124     1.581     1.967
    20   1 H        0.926     0.100     1.789     2.092
    21   1 H        0.926     0.104     1.749     2.068
    22   1 H        0.925     0.091     1.867     2.137
    23   1 H        0.804     0.345     0.601     1.218

Wiberg/Mayer (AO) data.
largest (>0.10) Wiberg bond orders for each atom

     #   Z sym  total        # sym  WBO       # sym  WBO       # sym  WBO
 ---------------------------------------------------------------------------
     1   6 C    3.980 --     2 C    1.987    13 H    0.971    14 H    0.967
     2   6 C    3.976 --     1 C    1.987     3 C    0.986    15 H    0.963
     3   6 C    3.935 --     2 C    0.986    17 H    0.961     4 N    0.958
                            16 H    0.952
     4   7 N    3.756 --     5 C    1.311     9 C    1.303     3 C    0.958
     5   6 C    3.959 --     6 C    1.488     4 N    1.311    18 H    0.955
     6   6 C    3.977 --     5 C    1.488     7 C    1.342    19 H    0.949
     7   6 C    3.976 --     6 C    1.342     8 C    1.336    10 C    1.103
     8   6 C    3.983 --     9 C    1.501     7 C    1.336    20 H    0.959
     9   6 C    3.960 --     8 C    1.501     4 N    1.303    21 H    0.955
    10   6 C    3.977 --    11 N    1.765     7 C    1.103    22 H    0.947
                            12 O    0.114
    11   7 N    3.031 --    10 C    1.765    12 O    1.110
    12   8 O    2.190 --    11 N    1.110    23 H    0.868    10 C    0.114
    13   1 H    0.995 --     1 C    0.971
    14   1 H    0.991 --     1 C    0.967
    15   1 H    0.996 --     2 C    0.963
    16   1 H    0.990 --     3 C    0.952
    17   1 H    0.990 --     3 C    0.961
    18   1 H    0.989 --     5 C    0.955
    19   1 H    0.984 --     6 C    0.949
    20   1 H    0.990 --     8 C    0.959
    21   1 H    0.989 --     9 C    0.955
    22   1 H    0.991 --    10 C    0.947
    23   1 H    0.881 --    12 O    0.868
 ---------------------------------------------------------------------------

molecular dipole:
                 x           y           z       tot (Debye)
 q only:       -3.824       2.254       5.055
   full:       -3.789       2.285       4.843      16.675

           -------------------------------------------------
          | TOTAL ENERGY              -34.290547948070 Eh   |
          | GRADIENT NORM               0.000827151926 Eh/α |
          | HOMO-LUMO GAP               1.756350075264 eV   |
           -------------------------------------------------

 * finished run on 2024/12/20 at 06:51:39.440
