   * xtb version 6.7.1 (edcfbbe) compiled by 'conda@3ef47c1a292c' on 2024-11-25

   ID    Z sym.   atoms
    1    6 C      1-6, 8-19
    2   16 S      7
    3    1 H      20-34

          program call               : xtb C0649.xyz --opt --namespace C0649 --charge +1
          :  Hamiltonian                  GFN2-xTB          :
 * total energy  :   -48.9623771 Eh     change       -0.1369472E-08 Eh
 * total energy  :   -48.9682270 Eh     change       -0.5849868E-02 Eh
 * total energy  :   -48.9689795 Eh     change       -0.7524754E-03 Eh
 * total energy  :   -48.9690774 Eh     change       -0.9795953E-04 Eh
 * total energy  :   -48.9690973 Eh     change       -0.1992255E-04 Eh
 * total energy  :   -48.9691052 Eh     change       -0.7887650E-05 Eh
 * total energy  :   -48.9691142 Eh     change       -0.8944273E-05 Eh
 * total energy  :   -48.9691302 Eh     change       -0.1608502E-04 Eh
 * total energy  :   -48.9691578 Eh     change       -0.2753507E-04 Eh
 * total energy  :   -48.9691903 Eh     change       -0.3247299E-04 Eh
 * total energy  :   -48.9692118 Eh     change       -0.2157945E-04 Eh
 * total energy  :   -48.9692244 Eh     change       -0.1252350E-04 Eh
 * total energy  :   -48.9692318 Eh     change       -0.7403306E-05 Eh
 * total energy  :   -48.9692393 Eh     change       -0.7548788E-05 Eh
 * total energy  :   -48.9692468 Eh     change       -0.7476283E-05 Eh
 * total energy  :   -48.9692533 Eh     change       -0.6554062E-05 Eh
 * total energy  :   -48.9692582 Eh     change       -0.4815276E-05 Eh
   *** GEOMETRY OPTIMIZATION CONVERGED AFTER 17 ITERATIONS ***

 final structure:
================
34
 xtb: 6.7.1 (edcfbbe)
C            1.47935190719008       -0.26892530911961        0.15989196908170
C            0.93915797222486        0.92786168942029       -0.28430720113774
C           -0.43411610837738        1.09882873985669       -0.24676039531164
C           -1.24731295647403        0.08067990305487        0.22550134206137
C           -0.69204435642880       -1.11188566367732        0.66096705737627
C            0.68045936064473       -1.29787625792893        0.62954184868989
S            3.27968588004852       -0.40451149318577        0.08434506422900
C            3.76174363511915        0.16087874389677        1.73025782113616
C            5.00125867126840        0.77503447154962        1.82778612237359
C            5.42633013121122        1.23528717723716        3.06267934896247
C            4.61531508490005        1.08304229480537        4.17634613063554
C            3.37643066972474        0.47154962110438        4.06106800183506
C            2.93706930915789        0.00681829978519        2.83270033342808
C            3.51358016155805       -2.19528495526060        0.16851583053191
C            3.99826428125818       -2.82940422507402        1.29824232712831
C            4.16315917745975       -4.20544229514929        1.26813356140224
C            3.85490254403824       -4.92362303818750        0.12437629200096
C            3.38239351299406       -4.27101033327417       -1.00402587501644
C            3.21455303296084       -2.89757355822407       -0.99021317329302
H            1.58305708896106        1.71120912957581       -0.65262605526172
H           -0.86542651443900        2.02524893443883       -0.59002301628590
H           -2.31708282842094        0.21468821765843        0.25133129072018
H           -1.32448322774535       -1.90529681074248        1.02689007082707
H            1.11061968314107       -2.23153465875386        0.95949472060085
H            5.62179795240401        0.88927509954706        0.95258336677233
H            6.38823222222548        1.71471747423138        3.15058356718718
H            4.94713378567055        1.44431196166571        5.13687874017494
H            2.74460455589851        0.35481984488706        4.92738689460719
H            1.96961867880725       -0.46306895417668        2.74288368734135
H            4.24474286448667       -2.27200666907332        2.18872977502442
H            4.53656206833613       -4.71142552429442        2.14427438687351
H            3.98796395534210       -5.99375359874129        0.11025478631312
H            3.14770985328873       -4.82732633632742       -1.89729412171612
H            2.85022795156477       -2.37782192152466       -1.86291449929319

          :  Hamiltonian                  GFN2-xTB          :
         :: total energy             -48.969258158711 Eh    ::
         :: gradient norm              0.000443690299 Eh/a0 ::
         :: HOMO-LUMO gap              3.978106550276 eV    ::
         :: SCC energy               -49.889668839745 Eh    ::
         :: -> dispersion             -0.040139767683 Eh    ::
         :: repulsion energy           0.920410681034 Eh    ::

    * Orbital Energies and Occupations

         #    Occupation            Energy/Eh            Energy/eV
      -------------------------------------------------------------
         1        2.0000           -0.9036923             -24.5907
       ...           ...                  ...                  ...
        34        2.0000           -0.6023192             -16.3899
        35        2.0000           -0.5687131             -15.4755
        36        2.0000           -0.5656960             -15.3934
        37        2.0000           -0.5653616             -15.3843
        38        2.0000           -0.5604780             -15.2514
        39        2.0000           -0.5602253             -15.2445
        40        2.0000           -0.5597147             -15.2306
        41        2.0000           -0.5517923             -15.0150
        42        2.0000           -0.5489726             -14.9383
        43        2.0000           -0.5483341             -14.9209
        44        2.0000           -0.5468688             -14.8811
        45        2.0000           -0.5464636             -14.8700
        46        2.0000           -0.5428206             -14.7709 (HOMO)
        47                         -0.3966278             -10.7928 (LUMO)
        48                         -0.3912296             -10.6459
        49                         -0.3753022             -10.2125
        50                         -0.3669452              -9.9851
        51                         -0.3658471              -9.9552
        52                         -0.3642337              -9.9113
        53                         -0.3451920              -9.3932
        54                         -0.3374485              -9.1824
        55                         -0.2636492              -7.1743
        56                         -0.2453088              -6.6752
        57                         -0.2402219              -6.5368
       ...                                ...                  ...
        96                          0.5247986              14.2805
      -------------------------------------------------------------
                  HL-Gap            0.1461927 Eh            3.9781 eV

     #   Z          covCN         q      C6AA      α(0)
     1   6 C        2.971     0.010    27.802     8.649
     2   6 C        2.968    -0.027    28.679     8.784
     3   6 C        2.922    -0.014    28.371     8.735
     4   6 C        2.919    -0.013    28.340     8.730
     5   6 C        2.923    -0.017    28.441     8.746
     6   6 C        2.938    -0.028    28.709     8.788
     7  16 S        3.137     0.254   131.110    19.272
     8   6 C        2.971     0.010    27.795     8.648
     9   6 C        2.967    -0.027    28.670     8.783
    10   6 C        2.922    -0.015    28.377     8.736
    11   6 C        2.919    -0.013    28.333     8.729
    12   6 C        2.923    -0.017    28.436     8.745
    13   6 C        2.938    -0.028    28.703     8.787
    14   6 C        2.971     0.010    27.789     8.647
    15   6 C        2.937    -0.029    28.717     8.789
    16   6 C        2.923    -0.017    28.427     8.744
    17   6 C        2.919    -0.014    28.355     8.732
    18   6 C        2.922    -0.015    28.384     8.737
    19   6 C        2.970    -0.027    28.681     8.785
    20   1 H        0.926     0.063     2.162     2.299
    21   1 H        0.926     0.075     2.030     2.228
    22   1 H        0.926     0.075     2.028     2.227
    23   1 H        0.926     0.071     2.073     2.252
    24   1 H        0.926     0.053     2.281     2.362
    25   1 H        0.926     0.065     2.142     2.289
    26   1 H        0.926     0.076     2.025     2.225
    27   1 H        0.926     0.076     2.024     2.225
    28   1 H        0.926     0.072     2.069     2.249
    29   1 H        0.926     0.055     2.254     2.348
    30   1 H        0.926     0.055     2.258     2.350
    31   1 H        0.926     0.072     2.068     2.249
    32   1 H        0.926     0.075     2.031     2.229
    33   1 H        0.926     0.074     2.039     2.233
    34   1 H        0.926     0.060     2.194     2.316

Wiberg/Mayer (AO) data.
largest (>0.10) Wiberg bond orders for each atom

     #   Z sym  total        # sym  WBO       # sym  WBO       # sym  WBO
 ---------------------------------------------------------------------------
     1   6 C    3.936 --     6 C    1.408     2 C    1.405     7 S    0.930
                             4 C    0.103
     2   6 C    3.987 --     3 C    1.439     1 C    1.405    20 H    0.965
                             5 C    0.108
     3   6 C    3.986 --     2 C    1.439     4 C    1.436    21 H    0.965
                             6 C    0.109
     4   6 C    3.985 --     5 C    1.437     3 C    1.436    22 H    0.966
                             1 C    0.103
     5   6 C    3.988 --     4 C    1.437     6 C    1.434    23 H    0.965
                             2 C    0.108
     6   6 C    3.989 --     5 C    1.434     1 C    1.408    24 H    0.963
                             3 C    0.109
     7  16 S    3.075 --     8 C    0.933     1 C    0.930    14 C    0.928
     8   6 C    3.936 --    13 C    1.406     9 C    1.404     7 S    0.933
                            11 C    0.103
     9   6 C    3.987 --    10 C    1.438     8 C    1.404    25 H    0.965
                            12 C    0.108
    10   6 C    3.986 --     9 C    1.438    11 C    1.437    26 H    0.965
                            13 C    0.109
    11   6 C    3.979 --    10 C    1.437    12 C    1.435    27 H    0.966
                             8 C    0.103
    12   6 C    3.988 --    13 C    1.438    11 C    1.435    28 H    0.965
                             9 C    0.108
    13   6 C    3.989 --    12 C    1.438     8 C    1.406    29 H    0.962
                            10 C    0.109
    14   6 C    3.930 --    15 C    1.415    19 C    1.399     7 S    0.928
                            17 C    0.103
    15   6 C    3.989 --    16 C    1.430    14 C    1.415    30 H    0.962
                            18 C    0.108
    16   6 C    3.988 --    17 C    1.442    15 C    1.430    31 H    0.965
                            19 C    0.110
    17   6 C    3.985 --    16 C    1.442    18 C    1.432    32 H    0.966
                            14 C    0.103
    18   6 C    3.986 --    19 C    1.443    17 C    1.432    33 H    0.965
                            15 C    0.108
    19   6 C    3.988 --    18 C    1.443    14 C    1.399    34 H    0.965
                            16 C    0.110
    20   1 H    0.996 --     2 C    0.965
    21   1 H    0.994 --     3 C    0.965
    22   1 H    0.993 --     4 C    0.966
    23   1 H    0.995 --     5 C    0.965
    24   1 H    0.997 --     6 C    0.963
    25   1 H    0.996 --     9 C    0.965
    26   1 H    0.994 --    10 C    0.965
    27   1 H    0.993 --    11 C    0.966
    28   1 H    0.995 --    12 C    0.965
    29   1 H    0.997 --    13 C    0.962
    30   1 H    0.997 --    15 C    0.962
    31   1 H    0.995 --    16 C    0.965
    32   1 H    0.993 --    17 C    0.966
    33   1 H    0.994 --    18 C    0.965
    34   1 H    0.996 --    19 C    0.965
 ---------------------------------------------------------------------------

molecular dipole:
                 x           y           z       tot (Debye)
 q only:        5.175      -1.714       1.863
   full:        5.141      -1.761       1.930      14.658

           -------------------------------------------------
          | TOTAL ENERGY              -48.969258158711 Eh   |
          | GRADIENT NORM               0.000443690299 Eh/α |
          | HOMO-LUMO GAP               3.978106550276 eV   |
           -------------------------------------------------

 * finished run on 2024/12/20 at 06:51:44.363
