   * xtb version 6.7.1 (edcfbbe) compiled by 'conda@3ef47c1a292c' on 2024-11-25

   ID    Z sym.   atoms
    1    6 C      1, 3, 5-7, 9-11
    2    8 O      2, 4
    3    7 N      8
    4    1 H      12-21

          program call               : xtb C0646.xyz --opt --namespace C0646 --charge +1
          :  Hamiltonian                  GFN2-xTB          :
 * total energy  :   -32.8689379 Eh     change       -0.3973213E-09 Eh
 * total energy  :   -32.8723108 Eh     change       -0.3372909E-02 Eh
 * total energy  :   -32.8727716 Eh     change       -0.4607883E-03 Eh
 * total energy  :   -32.8728158 Eh     change       -0.4421048E-04 Eh
 * total energy  :   -32.8728328 Eh     change       -0.1698051E-04 Eh
 * total energy  :   -32.8728389 Eh     change       -0.6138452E-05 Eh
 * total energy  :   -32.8728450 Eh     change       -0.6148078E-05 Eh
 * total energy  :   -32.8728543 Eh     change       -0.9303290E-05 Eh
 * total energy  :   -32.8728665 Eh     change       -0.1217846E-04 Eh
 * total energy  :   -32.8728757 Eh     change       -0.9223547E-05 Eh
 * total energy  :   -32.8728779 Eh     change       -0.2158577E-05 Eh
   *** GEOMETRY OPTIMIZATION CONVERGED AFTER 11 ITERATIONS ***

 final structure:
================
21
 xtb: 6.7.1 (edcfbbe)
C            0.83643712477508        0.34969760619648        0.15102351439458
O            0.28972278627481        1.20212509319025       -0.85735880668857
C            1.02973679012151        2.23362771340712       -1.21942258497323
O            2.11138949828459        2.52170505127699       -0.78723412749078
C            0.35504147396552        3.05799238982814       -2.29111033843461
C           -0.90541251630697        2.75911330043823       -2.80133952695666
C           -1.44069148016403        3.57043053396555       -3.78111103542882
N           -0.77474029062044        4.63260613582445       -4.24630021127151
C            0.44011014908117        4.93763270828448       -3.76807779723719
C            1.03204103994403        4.17129369354715       -2.79047101166981
C           -1.34411256555410        5.45922275030623       -5.28620406399647
H            0.17591877499356       -0.51063191846727        0.21082772986786
H            0.86958221968269        0.87530775877039        1.10650887349893
H            1.84849778489059        0.04584381528543       -0.12024311046001
H           -1.45609424270753        1.90644443284727       -2.43663422956871
H           -2.41531989171674        3.36951862682215       -4.20187477833966
H            0.93106761221911        5.80635947839858       -4.18268079200602
H            2.01003111229661        4.41393921429338       -2.40090440365035
H           -1.26614772700132        6.51262900474273       -5.01731527579546
H           -0.80454171746178        5.30584164156314       -6.22299255297614
H           -2.39142593499653        5.21201096947915       -5.44398547081747

          :  Hamiltonian                  GFN2-xTB          :
         :: total energy             -32.872877902601 Eh    ::
         :: gradient norm              0.000175317965 Eh/a0 ::
         :: HOMO-LUMO gap              2.264126374994 eV    ::
         :: SCC energy               -33.324312746005 Eh    ::
         :: -> dispersion             -0.015130039891 Eh    ::
         :: repulsion energy           0.451434843404 Eh    ::

    * Orbital Energies and Occupations

         #    Occupation            Energy/Eh            Energy/eV
      -------------------------------------------------------------
         1        2.0000           -0.8934872             -24.3130
       ...           ...                  ...                  ...
        17        2.0000           -0.6900142             -18.7762
        18        2.0000           -0.6799766             -18.5031
        19        2.0000           -0.6701506             -18.2357
        20        2.0000           -0.6631998             -18.0466
        21        2.0000           -0.6593099             -17.9407
        22        2.0000           -0.6440705             -17.5261
        23        2.0000           -0.6354563             -17.2916
        24        2.0000           -0.6285234             -17.1030
        25        2.0000           -0.6263767             -17.0446
        26        2.0000           -0.6229274             -16.9507
        27        2.0000           -0.5937136             -16.1558
        28        2.0000           -0.5717223             -15.5574
        29        2.0000           -0.5623646             -15.3027 (HOMO)
        30                         -0.4791595             -13.0386 (LUMO)
        31                         -0.4388562             -11.9419
        32                         -0.3724107             -10.1338
        33                         -0.2898261              -7.8866
        34                         -0.1803229              -4.9068
        35                         -0.1360304              -3.7016
        36                         -0.0827220              -2.2510
        37                         -0.0508347              -1.3833
        38                         -0.0397651              -1.0821
        39                         -0.0236443              -0.6434
        40                         -0.0105132              -0.2861
       ...                                ...                  ...
        54                          0.5587709              15.2049
      -------------------------------------------------------------
                  HL-Gap            0.0832051 Eh            2.2641 eV

     #   Z          covCN         q      C6AA      α(0)
     1   6 C        3.658     0.017    20.584     6.512
     2   8 O        1.704    -0.230    17.810     5.698
     3   6 C        2.728     0.357    20.946     7.493
     4   8 O        0.857    -0.359    20.872     6.125
     5   6 C        2.977     0.029    27.345     8.578
     6   6 C        2.915    -0.009    28.233     8.713
     7   6 C        2.890     0.031    27.297     8.566
     8   7 N        2.748     0.128    19.066     6.485
     9   6 C        2.893     0.031    27.316     8.569
    10   6 C        2.918    -0.006    28.168     8.703
    11   6 C        3.711    -0.100    22.556     6.787
    12   1 H        0.925     0.095     1.833     2.117
    13   1 H        0.924     0.087     1.910     2.161
    14   1 H        0.924     0.088     1.897     2.154
    15   1 H        0.926     0.124     1.583     1.968
    16   1 H        0.926     0.117     1.638     2.001
    17   1 H        0.926     0.120     1.616     1.988
    18   1 H        0.926     0.134     1.506     1.919
    19   1 H        0.925     0.117     1.641     2.003
    20   1 H        0.924     0.119     1.620     1.990
    21   1 H        0.925     0.111     1.688     2.032

Wiberg/Mayer (AO) data.
largest (>0.10) Wiberg bond orders for each atom

     #   Z sym  total        # sym  WBO       # sym  WBO       # sym  WBO
 ---------------------------------------------------------------------------
     1   6 C    3.893 --    12 H    0.978    14 H    0.972    13 H    0.970
                             2 O    0.935
     2   8 O    2.358 --     3 C    1.177     1 C    0.935     4 O    0.202
     3   6 C    3.940 --     4 O    1.749     2 O    1.177     5 C    0.954
     4   8 O    2.082 --     3 C    1.749     2 O    0.202
     5   6 C    3.976 --     6 C    1.395    10 C    1.382     3 C    0.954
     6   6 C    3.977 --     7 C    1.460     5 C    1.395    15 H    0.953
     7   6 C    3.956 --     6 C    1.460     8 N    1.332    16 H    0.952
     8   7 N    3.774 --     7 C    1.332     9 C    1.318    11 C    0.986
     9   6 C    3.955 --    10 C    1.476     8 N    1.318    17 H    0.953
    10   6 C    3.973 --     9 C    1.476     5 C    1.382    18 H    0.949
    11   6 C    3.925 --     8 N    0.986    21 H    0.972    19 H    0.960
                            20 H    0.951
    12   1 H    0.991 --     1 C    0.978
    13   1 H    0.991 --     1 C    0.970
    14   1 H    0.991 --     1 C    0.972
    15   1 H    0.985 --     6 C    0.953
    16   1 H    0.986 --     7 C    0.952
    17   1 H    0.985 --     9 C    0.953
    18   1 H    0.982 --    10 C    0.949
    19   1 H    0.986 --    11 C    0.960
    20   1 H    0.985 --    11 C    0.951
    21   1 H    0.987 --    11 C    0.972
 ---------------------------------------------------------------------------

molecular dipole:
                 x           y           z       tot (Debye)
 q only:       -1.441       7.348      -6.929
   full:       -1.544       7.362      -7.003      26.123

           -------------------------------------------------
          | TOTAL ENERGY              -32.872877902601 Eh   |
          | GRADIENT NORM               0.000175317965 Eh/α |
          | HOMO-LUMO GAP               2.264126374994 eV   |
           -------------------------------------------------

 * finished run on 2024/12/20 at 06:51:39.025
