   * xtb version 6.7.1 (edcfbbe) compiled by 'conda@3ef47c1a292c' on 2024-11-25

   ID    Z sym.   atoms
    1    6 C      1-4, 6, 8, 9, 11, 12, 14-17
    2    8 O      5, 13
    3    7 N      7, 10
    4    1 H      18-42

          program call               : xtb C0645.xyz --opt --namespace C0645 --charge +1
          :  Hamiltonian                  GFN2-xTB          :
 * total energy  :   -54.1799207 Eh     change       -0.1952998E-09 Eh
 * total energy  :   -54.1858383 Eh     change       -0.5917669E-02 Eh
 * total energy  :   -54.1873094 Eh     change       -0.1471044E-02 Eh
 * total energy  :   -54.1875679 Eh     change       -0.2585458E-03 Eh
 * total energy  :   -54.1877027 Eh     change       -0.1348008E-03 Eh
 * total energy  :   -54.1877327 Eh     change       -0.3001340E-04 Eh
 * total energy  :   -54.1877785 Eh     change       -0.4571489E-04 Eh
 * total energy  :   -54.1878289 Eh     change       -0.5039911E-04 Eh
 * total energy  :   -54.1878948 Eh     change       -0.6589842E-04 Eh
 * total energy  :   -54.1879610 Eh     change       -0.6627875E-04 Eh
 * total energy  :   -54.1887005 Eh     change       -0.1494950E-04 Eh
 * total energy  :   -54.1887195 Eh     change       -0.1895672E-04 Eh
 * total energy  :   -54.1887341 Eh     change       -0.1465749E-04 Eh
 * total energy  :   -54.1887420 Eh     change       -0.7868340E-05 Eh
 * total energy  :   -54.1887489 Eh     change       -0.6886996E-05 Eh
 * total energy  :   -54.1887571 Eh     change       -0.8232497E-05 Eh
 * total energy  :   -54.1887656 Eh     change       -0.8435946E-05 Eh
 * total energy  :   -54.1887716 Eh     change       -0.6039652E-05 Eh
 * total energy  :   -54.1887756 Eh     change       -0.3967318E-05 Eh
   *** GEOMETRY OPTIMIZATION CONVERGED AFTER 37 ITERATIONS ***

 final structure:
================
42
 xtb: 6.7.1 (edcfbbe)
C            2.10513312343551        0.28252393552301       -1.21790436481336
C            0.87488172004506       -0.26321542876458       -1.93416959103862
C            0.75197696408432       -1.78701671146717       -1.83058057962278
C            0.46079652036478       -2.32609058423877       -0.42380941650500
O           -0.88357594258153       -2.77912625074538       -0.24196924754511
C           -1.86870257592306       -1.82054950909476       -0.23180943606987
N           -1.88565845604020       -1.11452239788931        1.05852435667656
C           -2.31323869526141       -1.65274509500904        2.23703810988260
C           -2.03331232626934       -0.75280383734723        3.21855824841619
N           -1.43467494095935        0.31835629804111        2.62390816563488
C           -1.35046050635853        0.07463786486808        1.31995270418536
C           -0.95237893989078        1.55192619382024        3.27350945443837
O            0.13758124745165        2.05244186879139        2.61123527987722
C            1.39934028933986        1.42990666829794        2.89234820142683
C            1.88406959137894        1.64441475360435        4.33168606957708
C            1.85184241792590        0.38020341245590        5.19660300184370
C            2.96205168389460       -0.59784444299259        4.82954324731465
H            2.07555875007475        0.08106275229652       -0.14863477264525
H            2.17563000493607        1.35800403528987       -1.35845727546421
H            3.00556116006819       -0.17220323679789       -1.62147598201523
H           -0.02260147047598        0.22956836391385       -1.54909554784051
H            0.94887304280197       -0.00590241296716       -2.99177566953719
H           -0.03564619901970       -2.14335104748612       -2.49779064677935
H            1.68719026839796       -2.22212123207785       -2.18244705752661
H            1.04787640813112       -3.22392663052050       -0.22931215613052
H            0.70800387263541       -1.58164148771364        0.34402476382254
H           -1.75828227665324       -1.06761204833646       -1.02195162986579
H           -2.82382754807856       -2.34375355901232       -0.34162498088755
H           -2.76644407839085       -2.62176352724686        2.28839234392529
H           -2.21778130541885       -0.80003944619724        4.27248292871659
H           -0.91777825764258        0.75257317204750        0.60828367072101
H           -1.74724158742386        2.30525164942360        3.20596003675514
H           -0.76236122412350        1.31177510417112        4.32745870013692
H            1.33923727153715        0.35865687125940        2.66018028114850
H            2.07207231070288        1.90373222856914        2.17739559439915
H            2.90796206815816        2.01639963746676        4.31075215618190
H            1.27297118302292        2.42868173989997        4.78362444275962
H            1.97546265483013        0.67225938196239        6.24037128184768
H            0.88388158871921       -0.12280045385283        5.11005200341549
H            3.93407299538685       -0.13491840639754        4.97435040239742
H            2.90953012081506       -1.48179931927060        5.45929718996131
H            2.88903907237361       -0.91420886627619        3.79125571882876

          :  Hamiltonian                  GFN2-xTB          :
         :: total energy             -54.188775580722 Eh    ::
         :: gradient norm              0.000474133745 Eh/a0 ::
         :: HOMO-LUMO gap              3.188065818701 eV    ::
         :: SCC energy               -54.882329677250 Eh    ::
         :: -> dispersion             -0.033745315396 Eh    ::
         :: repulsion energy           0.693554096528 Eh    ::

    * Orbital Energies and Occupations

         #    Occupation            Energy/Eh            Energy/eV
      -------------------------------------------------------------
         1        2.0000           -0.9015325             -24.5319
       ...           ...                  ...                  ...
        37        2.0000           -0.5936239             -16.1533
        38        2.0000           -0.5839928             -15.8913
        39        2.0000           -0.5833092             -15.8727
        40        2.0000           -0.5738933             -15.6164
        41        2.0000           -0.5721583             -15.5692
        42        2.0000           -0.5611644             -15.2701
        43        2.0000           -0.5573115             -15.1652
        44        2.0000           -0.5493129             -14.9476
        45        2.0000           -0.5457864             -14.8516
        46        2.0000           -0.5439659             -14.8021
        47        2.0000           -0.5403106             -14.7026
        48        2.0000           -0.5327303             -14.4963
        49        2.0000           -0.5315522             -14.4643 (HOMO)
        50                         -0.4143929             -11.2762 (LUMO)
        51                         -0.3765883             -10.2475
        52                         -0.2070512              -5.6341
        53                         -0.1536384              -4.1807
        54                         -0.1244429              -3.3863
        55                         -0.1160911              -3.1590
        56                         -0.0716067              -1.9485
        57                         -0.0522015              -1.4205
        58                         -0.0456316              -1.2417
        59                         -0.0357023              -0.9715
        60                         -0.0333719              -0.9081
       ...                                ...                  ...
        93                          0.4571213              12.4389
      -------------------------------------------------------------
                  HL-Gap            0.1171593 Eh            3.1881 eV

     #   Z          covCN         q      C6AA      α(0)
     1   6 C        3.751    -0.111    22.678     6.791
     2   6 C        3.799    -0.056    21.585     6.615
     3   6 C        3.799    -0.080    22.037     6.684
     4   6 C        3.690     0.064    19.686     6.350
     5   8 O        1.701    -0.285    18.734     5.844
     6   6 C        3.632     0.122    18.960     6.269
     7   7 N        2.866     0.035    20.636     6.747
     8   6 C        3.069     0.006    27.823     8.649
     9   6 C        3.064    -0.002    28.005     8.678
    10   7 N        2.868     0.032    20.675     6.753
    11   6 C        3.088     0.067    26.400     8.422
    12   6 C        3.633     0.123    18.938     6.264
    13   8 O        1.701    -0.290    18.828     5.858
    14   6 C        3.691     0.064    19.686     6.349
    15   6 C        3.800    -0.079    22.014     6.680
    16   6 C        3.799    -0.056    21.589     6.616
    17   6 C        3.752    -0.111    22.683     6.792
    18   1 H        0.925     0.023     2.683     2.561
    19   1 H        0.925     0.048     2.341     2.393
    20   1 H        0.925     0.053     2.287     2.365
    21   1 H        0.924     0.013     2.842     2.636
    22   1 H        0.924     0.054     2.270     2.356
    23   1 H        0.924     0.057     2.231     2.336
    24   1 H        0.925     0.065     2.147     2.291
    25   1 H        0.924     0.081     1.972     2.196
    26   1 H        0.924     0.026     2.651     2.546
    27   1 H        0.924     0.076     2.017     2.221
    28   1 H        0.924     0.103     1.762     2.076
    29   1 H        0.926     0.119     1.622     1.992
    30   1 H        0.926     0.109     1.701     2.040
    31   1 H        0.926     0.126     1.565     1.956
    32   1 H        0.924     0.100     1.783     2.088
    33   1 H        0.924     0.084     1.940     2.178
    34   1 H        0.924     0.028     2.619     2.531
    35   1 H        0.925     0.078     2.000     2.212
    36   1 H        0.925     0.065     2.137     2.286
    37   1 H        0.924     0.054     2.275     2.359
    38   1 H        0.924     0.051     2.309     2.376
    39   1 H        0.924     0.017     2.783     2.609
    40   1 H        0.925     0.051     2.310     2.377
    41   1 H        0.925     0.049     2.333     2.388
    42   1 H        0.925     0.029     2.595     2.519

Wiberg/Mayer (AO) data.
largest (>0.10) Wiberg bond orders for each atom

     #   Z sym  total        # sym  WBO       # sym  WBO       # sym  WBO
 ---------------------------------------------------------------------------
     1   6 C    3.995 --     2 C    1.020    20 H    0.986    19 H    0.986
                            18 H    0.984
     2   6 C    3.996 --     1 C    1.020     3 C    1.008    22 H    0.976
                            21 H    0.972
     3   6 C    3.990 --     2 C    1.008     4 C    0.998    24 H    0.973
                            23 H    0.972
     4   6 C    3.927 --     3 C    0.998    25 H    0.968    26 H    0.966
                             5 O    0.947
     5   8 O    2.132 --     6 C    1.045     4 C    0.947
     6   6 C    3.927 --     5 O    1.045    28 H    0.953    27 H    0.951
                             7 N    0.922
     7   7 N    3.698 --    11 C    1.365     8 C    1.223     6 C    0.922
     8   6 C    3.947 --     9 C    1.602     7 N    1.223    29 H    0.959
     9   6 C    3.947 --     8 C    1.602    10 N    1.221    30 H    0.961
    10   7 N    3.699 --    11 C    1.371     9 C    1.221    12 C    0.919
    11   6 C    3.945 --    10 N    1.371     7 N    1.365    31 H    0.948
    12   6 C    3.929 --    13 O    1.057    33 H    0.948    32 H    0.944
                            10 N    0.919
    13   8 O    2.125 --    12 C    1.057    14 C    0.941
    14   6 C    3.925 --    15 C    0.999    35 H    0.970    34 H    0.970
                            13 O    0.941
    15   6 C    3.990 --    16 C    1.007    14 C    0.999    36 H    0.973
                            37 H    0.971
    16   6 C    3.996 --    17 C    1.021    15 C    1.007    38 H    0.977
                            39 H    0.976
    17   6 C    3.994 --    16 C    1.021    40 H    0.986    42 H    0.986
                            41 H    0.986
    18   1 H    0.999 --     1 C    0.984
    19   1 H    0.998 --     1 C    0.986
    20   1 H    0.997 --     1 C    0.986
    21   1 H    1.000 --     2 C    0.972
    22   1 H    0.997 --     2 C    0.976
    23   1 H    0.997 --     3 C    0.972
    24   1 H    0.996 --     3 C    0.973
    25   1 H    0.993 --     4 C    0.968
    26   1 H    0.999 --     4 C    0.966
    27   1 H    0.994 --     6 C    0.951
    28   1 H    0.989 --     6 C    0.953
    29   1 H    0.985 --     8 C    0.959
    30   1 H    0.988 --     9 C    0.961
    31   1 H    0.984 --    11 C    0.948
    32   1 H    0.990 --    12 C    0.944
    33   1 H    0.992 --    12 C    0.948
    34   1 H    0.999 --    14 C    0.970
    35   1 H    0.994 --    14 C    0.970
    36   1 H    0.996 --    15 C    0.973
    37   1 H    0.997 --    15 C    0.971
    38   1 H    0.997 --    16 C    0.977
    39   1 H    1.000 --    16 C    0.976
    40   1 H    0.997 --    17 C    0.986
    41   1 H    0.998 --    17 C    0.986
    42   1 H    0.999 --    17 C    0.986
 ---------------------------------------------------------------------------

molecular dipole:
                 x           y           z       tot (Debye)
 q only:       -1.758      -0.617       3.501
   full:       -1.882      -0.536       3.571      10.348

           -------------------------------------------------
          | TOTAL ENERGY              -54.188775580722 Eh   |
          | GRADIENT NORM               0.000474133745 Eh/α |
          | HOMO-LUMO GAP               3.188065818701 eV   |
           -------------------------------------------------

 * finished run on 2024/12/20 at 06:51:38.631
