   * xtb version 6.7.1 (edcfbbe) compiled by 'conda@3ef47c1a292c' on 2024-11-25

   ID    Z sym.   atoms
    1    6 C      1, 2, 4, 5, 8-10
    2    7 N      3
    3    8 O      6, 7
    4    1 H      11-26

          program call               : xtb C0644.xyz --opt --namespace C0644 --charge +1
          :  Hamiltonian                  GFN2-xTB          :
 * total energy  :   -33.7853132 Eh     change       -0.6088499E-09 Eh
 * total energy  :   -33.7901918 Eh     change       -0.4878594E-02 Eh
 * total energy  :   -33.7910552 Eh     change       -0.8633210E-03 Eh
 * total energy  :   -33.7913194 Eh     change       -0.2642106E-03 Eh
 * total energy  :   -33.7914347 Eh     change       -0.1153509E-03 Eh
 * total energy  :   -33.7915251 Eh     change       -0.9041275E-04 Eh
 * total energy  :   -33.7916323 Eh     change       -0.1072037E-03 Eh
 * total energy  :   -33.7917714 Eh     change       -0.1390814E-03 Eh
 * total energy  :   -33.7919691 Eh     change       -0.1977083E-03 Eh
 * total energy  :   -33.7922113 Eh     change       -0.2422124E-03 Eh
 * total energy  :   -33.8055224 Eh     change       -0.2840164E-04 Eh
 * total energy  :   -33.8055357 Eh     change       -0.1336504E-04 Eh
 * total energy  :   -33.8055720 Eh     change       -0.3629889E-04 Eh
 * total energy  :   -33.8055975 Eh     change       -0.2545883E-04 Eh
 * total energy  :   -33.8056337 Eh     change       -0.3625999E-04 Eh
 * total energy  :   -33.8056513 Eh     change       -0.1759663E-04 Eh
 * total energy  :   -33.8056662 Eh     change       -0.1483433E-04 Eh
 * total energy  :   -33.8056720 Eh     change       -0.5856196E-05 Eh
 * total energy  :   -33.8056761 Eh     change       -0.4033548E-05 Eh
   *** GEOMETRY OPTIMIZATION CONVERGED AFTER 64 ITERATIONS ***

 final structure:
================
26
 xtb: 6.7.1 (edcfbbe)
C            2.46030031352423        0.50378415860682        0.12829743413239
C            1.38666576101956        1.56691620457856        0.26834089511645
N            0.91901688595317        2.03686655858134       -1.06145028322097
C            0.07320390311024        1.09839527473367       -1.84569392878102
C           -1.27798627889519        1.84487972695869       -2.00478198022752
O           -1.36658918132423        2.96098703431296       -1.53970853605755
O           -2.16700814515192        1.16505002552641       -2.64917056724965
C           -3.47517458277037        1.75258826154735       -2.85618325842355
C           -4.38223858629941        1.48330634825016       -1.66861333264268
C            0.68529066208437        0.77017255839436       -3.19888459980096
H            2.08974243701125       -0.38255052317136       -0.37901656955497
H            2.79829633647177        0.20288047792263        1.11516509429578
H            3.32114060317011        0.88798403031915       -0.41382942775709
H            0.52522242353602        1.18514901914558        0.81844472571800
H            1.78291312594946        2.42897486890563        0.80805409999492
H            0.26790667730883        2.87197823894638       -0.95727896313839
H            1.73197409137524        2.32420538722252       -1.61630900893708
H           -0.09969238130665        0.18339365826537       -1.27387565281087
H           -3.35398825767110        2.82633476868620       -3.02010643979820
H           -3.84847788532700        1.27005950453576       -3.75982523786575
H           -4.01389171128766        1.99062996003252       -0.77951199914762
H           -5.37645468175850        1.85698451192162       -1.89235302276379
H           -4.44707988809672        0.41592835638686       -1.47280411614170
H            1.63144762754467        0.24759379475892       -3.07947831464715
H            0.01123129009239        0.12410205602132       -3.75467277523220
H            0.84536944173299        1.67300573861311       -3.78510423506684

          :  Hamiltonian                  GFN2-xTB          :
         :: total energy             -33.805676062367 Eh    ::
         :: gradient norm              0.000630002433 Eh/a0 ::
         :: HOMO-LUMO gap              4.732349075562 eV    ::
         :: SCC energy               -34.205201105338 Eh    ::
         :: -> dispersion             -0.015923644104 Eh    ::
         :: repulsion energy           0.399525042971 Eh    ::

    * Orbital Energies and Occupations

         #    Occupation            Energy/Eh            Energy/eV
      -------------------------------------------------------------
         1        2.0000           -0.9078363             -24.7035
       ...           ...                  ...                  ...
        18        2.0000           -0.6665886             -18.1388
        19        2.0000           -0.6528445             -17.7648
        20        2.0000           -0.6462234             -17.5846
        21        2.0000           -0.6381180             -17.3641
        22        2.0000           -0.6368051             -17.3283
        23        2.0000           -0.6272174             -17.0675
        24        2.0000           -0.6212520             -16.9051
        25        2.0000           -0.6179158             -16.8143
        26        2.0000           -0.6073354             -16.5264
        27        2.0000           -0.5939485             -16.1622
        28        2.0000           -0.5858042             -15.9405
        29        2.0000           -0.5793540             -15.7650
        30        2.0000           -0.5673197             -15.4376 (HOMO)
        31                         -0.3934091             -10.7052 (LUMO)
        32                         -0.2379963              -6.4762
        33                         -0.1712716              -4.6605
        34                         -0.1498666              -4.0781
        35                         -0.1280969              -3.4857
        36                         -0.0839638              -2.2848
        37                         -0.0681812              -1.8553
        38                         -0.0467194              -1.2713
        39                         -0.0371865              -1.0119
        40                         -0.0079895              -0.2174
        41                         -0.0056928              -0.1549
       ...                                ...                  ...
        56                          0.4805763              13.0771
      -------------------------------------------------------------
                  HL-Gap            0.1739106 Eh            4.7323 eV

     #   Z          covCN         q      C6AA      α(0)
     1   6 C        3.752    -0.135    23.151     6.862
     2   6 C        3.732    -0.023    21.079     6.553
     3   7 N        3.534    -0.074    22.663     7.070
     4   6 C        3.781    -0.008    20.746     6.489
     5   6 C        2.719     0.352    21.030     7.507
     6   8 O        0.857    -0.407    21.828     6.264
     7   8 O        1.701    -0.209    17.473     5.644
     8   6 C        3.698     0.065    19.640     6.339
     9   6 C        3.751    -0.123    22.930     6.829
    10   6 C        3.753    -0.136    23.174     6.865
    11   1 H        0.925     0.069     2.093     2.262
    12   1 H        0.925     0.092     1.858     2.131
    13   1 H        0.925     0.068     2.104     2.268
    14   1 H        0.924     0.095     1.835     2.119
    15   1 H        0.924     0.097     1.811     2.104
    16   1 H        0.855     0.279     0.779     1.383
    17   1 H        0.859     0.248     0.890     1.478
    18   1 H        0.924     0.113     1.672     2.022
    19   1 H        0.924     0.078     1.997     2.210
    20   1 H        0.924     0.089     1.889     2.149
    21   1 H        0.925     0.065     2.146     2.291
    22   1 H        0.925     0.080     1.983     2.202
    23   1 H        0.925     0.069     2.097     2.265
    24   1 H        0.925     0.083     1.948     2.183
    25   1 H        0.925     0.100     1.782     2.087
    26   1 H        0.925     0.072     2.061     2.245

Wiberg/Mayer (AO) data.
largest (>0.10) Wiberg bond orders for each atom

     #   Z sym  total        # sym  WBO       # sym  WBO       # sym  WBO
 ---------------------------------------------------------------------------
     1   6 C    3.980 --     2 C    1.024    13 H    0.981    11 H    0.981
                            12 H    0.973
     2   6 C    3.918 --     1 C    1.024    14 H    0.968    15 H    0.966
                             3 N    0.938
     3   7 N    3.702 --     4 C    0.945     2 C    0.938    17 H    0.909
                            16 H    0.822
     4   6 C    3.935 --    10 C    1.002     3 N    0.945    18 H    0.944
                             5 C    0.919
     5   6 C    3.933 --     6 O    1.679     7 O    1.266     4 C    0.919
     6   8 O    2.086 --     5 C    1.679     7 O    0.191
     7   8 O    2.402 --     5 C    1.266     8 C    0.890     6 O    0.191
     8   6 C    3.885 --     9 C    1.014    19 H    0.969    20 H    0.967
                             7 O    0.890
     9   6 C    3.983 --     8 C    1.014    21 H    0.984    23 H    0.983
                            22 H    0.976
    10   6 C    3.973 --     4 C    1.002    26 H    0.981    24 H    0.977
                            25 H    0.971
    11   1 H    0.995 --     1 C    0.981
    12   1 H    0.991 --     1 C    0.973
    13   1 H    0.995 --     1 C    0.981
    14   1 H    0.991 --     2 C    0.968
    15   1 H    0.990 --     2 C    0.966
    16   1 H    0.922 --     3 N    0.822
    17   1 H    0.938 --     3 N    0.909
    18   1 H    0.987 --     4 C    0.944
    19   1 H    0.994 --     8 C    0.969
    20   1 H    0.992 --     8 C    0.967
    21   1 H    0.996 --     9 C    0.984
    22   1 H    0.993 --     9 C    0.976
    23   1 H    0.995 --     9 C    0.983
    24   1 H    0.993 --    10 C    0.977
    25   1 H    0.990 --    10 C    0.971
    26   1 H    0.995 --    10 C    0.981
 ---------------------------------------------------------------------------

molecular dipole:
                 x           y           z       tot (Debye)
 q only:        0.554       2.564      -2.625
   full:        0.618       2.681      -2.718       9.830

           -------------------------------------------------
          | TOTAL ENERGY              -33.805676062367 Eh   |
          | GRADIENT NORM               0.000630002433 Eh/α |
          | HOMO-LUMO GAP               4.732349075562 eV   |
           -------------------------------------------------

 * finished run on 2024/12/20 at 06:51:37.195
