   * xtb version 6.7.1 (edcfbbe) compiled by 'conda@3ef47c1a292c' on 2024-11-25

   ID    Z sym.   atoms
    1    6 C      1, 3, 5, 7, 8, 10-12, 14-19
    2    8 O      2, 4, 13
    3    7 N      6, 9
    4    1 H      20-34

          program call               : xtb C0641.xyz --opt --namespace C0641 --charge +1
          :  Hamiltonian                  GFN2-xTB          :
 * total energy  :   -55.2575431 Eh     change       -0.9307684E-09 Eh
 * total energy  :   -55.2666698 Eh     change       -0.9126733E-02 Eh
 * total energy  :   -55.2687334 Eh     change       -0.2063570E-02 Eh
 * total energy  :   -55.2692111 Eh     change       -0.4777273E-03 Eh
 * total energy  :   -55.2695862 Eh     change       -0.3750978E-03 Eh
 * total energy  :   -55.2698628 Eh     change       -0.2766200E-03 Eh
 * total energy  :   -55.2702080 Eh     change       -0.3451107E-03 Eh
 * total energy  :   -55.2706125 Eh     change       -0.4044898E-03 Eh
 * total energy  :   -55.2710047 Eh     change       -0.3922666E-03 Eh
 * total energy  :   -55.2713469 Eh     change       -0.3422026E-03 Eh
 * total energy  :   -55.2850737 Eh     change       -0.3632393E-06 Eh
 * total energy  :   -55.2850817 Eh     change       -0.8005055E-05 Eh
 * total energy  :   -55.2850924 Eh     change       -0.1069513E-04 Eh
 * total energy  :   -55.2851029 Eh     change       -0.1054596E-04 Eh
 * total energy  :   -55.2851135 Eh     change       -0.1058662E-04 Eh
 * total energy  :   -55.2851242 Eh     change       -0.1071462E-04 Eh
 * total energy  :   -55.2851336 Eh     change       -0.9354984E-05 Eh
 * total energy  :   -55.2851403 Eh     change       -0.6722717E-05 Eh
 * total energy  :   -55.2851451 Eh     change       -0.4852085E-05 Eh
   *** GEOMETRY OPTIMIZATION CONVERGED AFTER 107 ITERATIONS ***

 final structure:
================
34
 xtb: 6.7.1 (edcfbbe)
C            0.38849738495413       -0.61627177963787        0.93118055597748
O            0.52175494969862       -1.19429922847733       -0.37216130119188
C            0.04732682406592       -0.47301669007693       -1.38244415322238
O           -0.48498017157079        0.58956823373767       -1.30174701445509
C            0.28644045663743       -1.19006698963722       -2.73094081571812
N            0.54756142633430       -2.59171505108348       -2.57408985360686
C           -0.37719241985396       -3.58985751982733       -2.65985579739119
C            0.26008582371349       -4.75742271627376       -2.37701583233965
N            1.56017523658959       -4.45265514088463       -2.09906161707980
C            1.71435548265165       -3.13686361006313       -2.23587279120950
C            2.64291298037091       -5.37648027148243       -1.93777351699513
C            3.64633589931726       -5.15826817267188       -3.11118246266713
O            3.49861420580418       -4.18179731887476       -3.80951811047545
C            4.70866253449562       -6.14370012571053       -3.26835991017052
C            5.56291180670745       -5.99458933379480       -4.36993645708965
C            6.59710778145453       -6.88308467808229       -4.58009058589288
C            6.79761085744713       -7.93119811009353       -3.69400456205186
C            5.96155280636517       -8.08572191439709       -2.59609201795708
C            4.92205637962919       -7.20361778704465       -2.37883875743137
H            0.68133877243542       -1.38935395630344        1.63581807766351
H           -0.64246971734638       -0.30566138032383        1.10216187745506
H            1.04058218258351        0.25299866037255        1.02137751785468
H           -0.59667426928836       -1.03644296391919       -3.35484142371404
H            1.13707719923965       -0.69937491648070       -3.21352173347726
H           -1.40049705743446       -3.40943512838971       -2.91915381071672
H           -0.11731052224220       -5.75929496034644       -2.35186601761185
H            2.62637185462129       -2.59585634672663       -2.08000785669896
H            3.17450209502008       -5.19010684439291       -1.00039887164276
H            2.25408456467879       -6.39436111451869       -1.94324781932041
H            5.39028983237499       -5.17250077534839       -5.04773255381957
H            7.24807044876831       -6.76031611429451       -5.43149190093362
H            7.60619279663431       -8.62725789002892       -3.85459378895615
H            6.12461151976502       -8.89939809442659       -1.90653470100872
H            4.29325005536079       -7.34046997053225       -1.51307199408398

          :  Hamiltonian                  GFN2-xTB          :
         :: total energy             -55.285145141268 Eh    ::
         :: gradient norm              0.000482732183 Eh/a0 ::
         :: HOMO-LUMO gap              3.084466144841 eV    ::
         :: SCC energy               -56.061313268737 Eh    ::
         :: -> dispersion             -0.030826050291 Eh    ::
         :: repulsion energy           0.776168127469 Eh    ::

    * Orbital Energies and Occupations

         #    Occupation            Energy/Eh            Energy/eV
      -------------------------------------------------------------
         1        2.0000           -0.8870285             -24.1373
       ...           ...                  ...                  ...
        37        2.0000           -0.6081388             -16.5483
        38        2.0000           -0.6008965             -16.3512
        39        2.0000           -0.5974531             -16.2575
        40        2.0000           -0.5957250             -16.2105
        41        2.0000           -0.5940783             -16.1657
        42        2.0000           -0.5799272             -15.7806
        43        2.0000           -0.5714238             -15.5492
        44        2.0000           -0.5577154             -15.1762
        45        2.0000           -0.5520125             -15.0210
        46        2.0000           -0.5386529             -14.6575
        47        2.0000           -0.5319153             -14.4742
        48        2.0000           -0.5305916             -14.4381
        49        2.0000           -0.5260040             -14.3133 (HOMO)
        50                         -0.4126519             -11.2288 (LUMO)
        51                         -0.3982154             -10.8360
        52                         -0.3645390              -9.9196
        53                         -0.3617021              -9.8424
        54                         -0.3423287              -9.3152
        55                         -0.3150452              -8.5728
        56                         -0.2054580              -5.5908
        57                         -0.1759894              -4.7889
        58                         -0.1323833              -3.6023
        59                         -0.1260797              -3.4308
        60                         -0.0874981              -2.3809
       ...                                ...                  ...
        91                          0.5568808              15.1535
      -------------------------------------------------------------
                  HL-Gap            0.1133520 Eh            3.0845 eV

     #   Z          covCN         q      C6AA      α(0)
     1   6 C        3.655     0.018    20.560     6.509
     2   8 O        1.703    -0.259    18.292     5.774
     3   6 C        2.718     0.358    20.931     7.489
     4   8 O        0.856    -0.346    20.626     6.089
     5   6 C        3.742    -0.060    21.739     6.652
     6   7 N        2.870     0.078    19.878     6.622
     7   6 C        3.067    -0.006    28.103     8.693
     8   6 C        3.066    -0.007    28.136     8.698
     9   7 N        2.872     0.078    19.887     6.623
    10   6 C        3.091     0.061    26.524     8.441
    11   6 C        3.743    -0.052    21.583     6.628
    12   6 C        2.822     0.227    23.229     7.897
    13   8 O        0.857    -0.357    20.833     6.120
    14   6 C        2.970    -0.017    28.426     8.745
    15   6 C        2.927    -0.008    28.229     8.713
    16   6 C        2.915    -0.017    28.434     8.744
    17   6 C        2.920    -0.006    28.162     8.702
    18   6 C        2.917    -0.018    28.470     8.750
    19   6 C        2.918    -0.027    28.664     8.780
    20   1 H        0.925     0.085     1.925     2.170
    21   1 H        0.924     0.086     1.923     2.168
    22   1 H        0.924     0.083     1.950     2.184
    23   1 H        0.924     0.122     1.596     1.975
    24   1 H        0.924     0.119     1.618     1.989
    25   1 H        0.926     0.109     1.703     2.041
    26   1 H        0.926     0.106     1.731     2.057
    27   1 H        0.926     0.125     1.570     1.959
    28   1 H        0.924     0.102     1.763     2.076
    29   1 H        0.925     0.103     1.761     2.075
    30   1 H        0.926     0.075     2.033     2.229
    31   1 H        0.926     0.068     2.110     2.271
    32   1 H        0.926     0.069     2.093     2.263
    33   1 H        0.926     0.063     2.163     2.300
    34   1 H        0.926     0.043     2.411     2.428

Wiberg/Mayer (AO) data.
largest (>0.10) Wiberg bond orders for each atom

     #   Z sym  total        # sym  WBO       # sym  WBO       # sym  WBO
 ---------------------------------------------------------------------------
     1   6 C    3.899 --    20 H    0.980    21 H    0.975    22 H    0.975
                             2 O    0.934
     2   8 O    2.316 --     3 C    1.153     1 C    0.934     4 O    0.187
     3   6 C    3.937 --     4 O    1.800     2 O    1.153     5 C    0.918
     4   8 O    2.108 --     3 C    1.800     2 O    0.187
     5   6 C    3.946 --     6 N    0.994    23 H    0.952    24 H    0.941
                             3 C    0.918
     6   7 N    3.714 --    10 C    1.349     7 C    1.215     5 C    0.994
     7   6 C    3.947 --     8 C    1.602     6 N    1.215    25 H    0.961
     8   6 C    3.946 --     7 C    1.602     9 N    1.212    26 H    0.961
     9   7 N    3.711 --    10 C    1.350     8 C    1.212    11 C    0.996
    10   6 C    3.945 --     9 N    1.350     6 N    1.349    27 H    0.952
    11   6 C    3.945 --     9 N    0.996    29 H    0.956    28 H    0.942
                            12 C    0.918
    12   6 C    3.930 --    13 O    1.803    14 C    1.084    11 C    0.918
    13   8 O    2.107 --    12 C    1.803
    14   6 C    3.982 --    19 C    1.350    15 C    1.346    12 C    1.084
    15   6 C    3.984 --    16 C    1.465    14 C    1.346    30 H    0.964
    16   6 C    3.988 --    15 C    1.465    17 C    1.427    31 H    0.967
                            19 C    0.101
    17   6 C    3.985 --    16 C    1.427    18 C    1.416    32 H    0.968
    18   6 C    3.990 --    19 C    1.474    17 C    1.416    33 H    0.968
    19   6 C    3.991 --    18 C    1.474    14 C    1.350    34 H    0.966
                            16 C    0.101
    20   1 H    0.993 --     1 C    0.980
    21   1 H    0.993 --     1 C    0.975
    22   1 H    0.993 --     1 C    0.975
    23   1 H    0.985 --     5 C    0.952
    24   1 H    0.986 --     5 C    0.941
    25   1 H    0.988 --     7 C    0.961
    26   1 H    0.989 --     8 C    0.961
    27   1 H    0.984 --    10 C    0.952
    28   1 H    0.989 --    11 C    0.942
    29   1 H    0.989 --    11 C    0.956
    30   1 H    0.994 --    15 C    0.964
    31   1 H    0.994 --    16 C    0.967
    32   1 H    0.995 --    17 C    0.968
    33   1 H    0.996 --    18 C    0.968
    34   1 H    0.998 --    19 C    0.966
 ---------------------------------------------------------------------------

molecular dipole:
                 x           y           z       tot (Debye)
 q only:        3.971      -8.662      -3.752
   full:        4.010      -8.816      -3.641      26.299

           -------------------------------------------------
          | TOTAL ENERGY              -55.285145141268 Eh   |
          | GRADIENT NORM               0.000482732183 Eh/α |
          | HOMO-LUMO GAP               3.084466144841 eV   |
           -------------------------------------------------

 * finished run on 2024/12/20 at 06:51:33.957
