   * xtb version 6.7.1 (edcfbbe) compiled by 'conda@3ef47c1a292c' on 2024-11-25

   ID    Z sym.   atoms
    1    8 O      1, 9
    2    6 C      2-8, 10, 12-20
    3    7 N      11
    4    1 H      21-40

          program call               : xtb C0659.xyz --opt --namespace C0659 --charge +1
          :  Hamiltonian                  GFN2-xTB          :
 * total energy  :   -57.2268878 Eh     change       -0.2291891E-08 Eh
 * total energy  :   -57.2365527 Eh     change       -0.9664890E-02 Eh
 * total energy  :   -57.2391290 Eh     change       -0.2576319E-02 Eh
 * total energy  :   -57.2397057 Eh     change       -0.5766948E-03 Eh
 * total energy  :   -57.2402356 Eh     change       -0.5299092E-03 Eh
 * total energy  :   -57.2406758 Eh     change       -0.4401970E-03 Eh
 * total energy  :   -57.2412524 Eh     change       -0.5766119E-03 Eh
 * total energy  :   -57.2419838 Eh     change       -0.7313684E-03 Eh
 * total energy  :   -57.2427101 Eh     change       -0.7262619E-03 Eh
 * total energy  :   -57.2433154 Eh     change       -0.6053421E-03 Eh
 * total energy  :   -57.2496280 Eh     change       -0.5229800E-05 Eh
 * total energy  :   -57.2496332 Eh     change       -0.5149062E-05 Eh
 * total energy  :   -57.2496382 Eh     change       -0.5048332E-05 Eh
 * total energy  :   -57.2496433 Eh     change       -0.5125768E-05 Eh
 * total energy  :   -57.2496488 Eh     change       -0.5437201E-05 Eh
 * total energy  :   -57.2496548 Eh     change       -0.6043067E-05 Eh
 * total energy  :   -57.2496610 Eh     change       -0.6204811E-05 Eh
 * total energy  :   -57.2496666 Eh     change       -0.5557232E-05 Eh
 * total energy  :   -57.2496711 Eh     change       -0.4550219E-05 Eh
   *** GEOMETRY OPTIMIZATION CONVERGED AFTER 90 ITERATIONS ***

 final structure:
================
40
 xtb: 6.7.1 (edcfbbe)
O            2.07395584243447        0.01668939603842       -0.04933931157164
C            2.79818658593646       -0.77308138639816       -0.59471541921750
C            2.39533268900208       -1.92318844549964       -1.39547031912921
C            3.32007049808068       -2.78296830154688       -1.99293272549596
C            2.87390226856714       -3.85562073766235       -2.73893704977909
C            1.51323482712202       -4.07772876831285       -2.89843464044185
C            0.59039720725968       -3.22440166665509       -2.31110831462656
C            1.02540388545231       -2.15066566373396       -1.56074086755799
O            4.17795904338790       -0.65462970430510       -0.47790606539145
C            4.65138407115407        0.49268706472804        0.15215263754189
N            5.13011552471411        0.10948241892461        1.56380411061701
C            6.25673894302082       -0.83474067104582        1.47626999128946
C            5.55099544156613        1.32179700635069        2.28400832084735
C            4.02198697014985       -0.52795528745210        2.30079784758777
C            5.73184120748591        1.15368777067985       -0.66664875262376
C            6.60410161397143        0.39746499608332       -1.44313164259406
C            7.56424170175492        1.02430505590313       -2.21783759600061
C            7.65897605402607        2.40599143401205       -2.22676510663855
C            6.77936654219626        3.16400831455973       -1.47110236135959
C            5.81441865018200        2.54319837666549       -0.69801872968498
H            4.37686129878036       -2.60192180933518       -1.87538634054459
H            3.58601769644390       -4.52145012787923       -3.20175649927206
H            1.17249972385593       -4.91730752343928       -3.48457913892623
H           -0.46630090857755       -3.39783507185614       -2.44102927701194
H            0.32613826447562       -1.47273444200358       -1.09587433946670
H            3.81111402884863        1.18898414686676        0.30703197081142
H            7.11340887204581       -0.35105398316275        1.01105787856179
H            6.53353517230428       -1.17264383846603        2.47299426071455
H            5.96321584062196       -1.69408595433125        0.87603282374257
H            4.70944963052464        2.00363064517619        2.39394328588484
H            5.91408234592955        1.05150430136123        3.27415415816861
H            6.34855740373513        1.82529118317985        1.74055830935612
H            3.14001754815757        0.11131837020793        2.28784812071027
H            3.76404720557634       -1.48173943743066        1.84380451958754
H            4.32149032087483       -0.70468953448203        3.33197758432422
H            6.51423107308486       -0.67733331372829       -1.46118967125524
H            8.23382756732424        0.43105423323894       -2.82037735810143
H            8.40632800842864        2.89228186328183       -2.83339420046203
H            6.83531257455024        4.24083923765335       -1.49089297757751
H            5.11456676554139        3.14190985380263       -0.13359711499054

          :  Hamiltonian                  GFN2-xTB          :
         :: total energy             -57.249671142220 Eh    ::
         :: gradient norm              0.000210128889 Eh/a0 ::
         :: HOMO-LUMO gap              3.361799917259 eV    ::
         :: SCC energy               -58.137851156421 Eh    ::
         :: -> dispersion             -0.040228265772 Eh    ::
         :: repulsion energy           0.888180014202 Eh    ::

    * Orbital Energies and Occupations

         #    Occupation            Energy/Eh            Energy/eV
      -------------------------------------------------------------
         1        2.0000           -0.8825460             -24.0153
       ...           ...                  ...                  ...
        40        2.0000           -0.5943024             -16.1718
        41        2.0000           -0.5912608             -16.0890
        42        2.0000           -0.5881804             -16.0052
        43        2.0000           -0.5852116             -15.9244
        44        2.0000           -0.5557651             -15.1231
        45        2.0000           -0.5501286             -14.9698
        46        2.0000           -0.5458165             -14.8524
        47        2.0000           -0.5337204             -14.5233
        48        2.0000           -0.5318263             -14.4717
        49        2.0000           -0.5311782             -14.4541
        50        2.0000           -0.5294850             -14.4080
        51        2.0000           -0.5215254             -14.1914
        52        2.0000           -0.5171388             -14.0721 (HOMO)
        53                         -0.3935950             -10.7103 (LUMO)
        54                         -0.3621600              -9.8549
        55                         -0.3498442              -9.5197
        56                         -0.3336511              -9.0791
        57                         -0.2997814              -8.1575
        58                         -0.2421330              -6.5888
        59                         -0.2083143              -5.6685
        60                         -0.1944403              -5.2910
        61                         -0.1651385              -4.4936
        62                         -0.1421472              -3.8680
        63                         -0.1348161              -3.6685
       ...                                ...                  ...
       100                          0.5804739              15.7955
      -------------------------------------------------------------
                  HL-Gap            0.1235439 Eh            3.3618 eV

     #   Z          covCN         q      C6AA      α(0)
     1   8 O        0.856    -0.397    21.612     6.233
     2   6 C        2.725     0.346    21.121     7.524
     3   6 C        2.972    -0.021    28.533     8.762
     4   6 C        2.919    -0.019    28.477     8.751
     5   6 C        2.918    -0.021    28.520     8.757
     6   6 C        2.920    -0.009    28.233     8.713
     7   6 C        2.917    -0.018    28.452     8.747
     8   6 C        2.926    -0.013    28.340     8.730
     9   8 O        1.705    -0.283    18.698     5.838
    10   6 C        3.702     0.148    18.334     6.122
    11   7 N        3.617     0.115    19.267     6.519
    12   6 C        3.718    -0.090    22.339     6.751
    13   6 C        3.719    -0.095    22.444     6.767
    14   6 C        3.720    -0.085    22.241     6.736
    15   6 C        2.969    -0.019    28.486     8.755
    16   6 C        2.921    -0.030    28.757     8.794
    17   6 C        2.919    -0.021    28.542     8.761
    18   6 C        2.920    -0.016    28.416     8.742
    19   6 C        2.919    -0.020    28.511     8.756
    20   6 C        2.922    -0.038    28.955     8.824
    21   1 H        0.926     0.050     2.322     2.383
    22   1 H        0.926     0.059     2.209     2.324
    23   1 H        0.926     0.066     2.134     2.285
    24   1 H        0.926     0.065     2.137     2.286
    25   1 H        0.926     0.072     2.062     2.246
    26   1 H        0.923     0.087     1.904     2.158
    27   1 H        0.925     0.099     1.794     2.094
    28   1 H        0.925     0.096     1.819     2.109
    29   1 H        0.925     0.105     1.743     2.065
    30   1 H        0.925     0.099     1.791     2.093
    31   1 H        0.925     0.101     1.772     2.082
    32   1 H        0.925     0.100     1.787     2.091
    33   1 H        0.925     0.107     1.722     2.052
    34   1 H        0.925     0.096     1.819     2.109
    35   1 H        0.925     0.094     1.839     2.121
    36   1 H        0.926     0.052     2.292     2.368
    37   1 H        0.926     0.062     2.175     2.306
    38   1 H        0.926     0.066     2.129     2.282
    39   1 H        0.926     0.064     2.153     2.295
    40   1 H        0.926     0.044     2.392     2.419

Wiberg/Mayer (AO) data.
largest (>0.10) Wiberg bond orders for each atom

     #   Z sym  total        # sym  WBO       # sym  WBO       # sym  WBO
 ---------------------------------------------------------------------------
     1   8 O    2.069 --     2 C    1.752     9 O    0.140
     2   6 C    3.903 --     1 O    1.752     3 C    1.057     9 O    0.998
     3   6 C    3.982 --     4 C    1.361     8 C    1.358     2 C    1.057
     4   6 C    3.990 --     5 C    1.467     3 C    1.361    21 H    0.967
                             7 C    0.103
     5   6 C    3.990 --     4 C    1.467     6 C    1.423    22 H    0.968
                             8 C    0.102
     6   6 C    3.986 --     7 C    1.428     5 C    1.423    23 H    0.968
     7   6 C    3.989 --     8 C    1.463     6 C    1.428    24 H    0.967
                             4 C    0.103
     8   6 C    3.985 --     7 C    1.463     3 C    1.358    25 H    0.965
                             5 C    0.102
     9   8 O    2.257 --    10 C    1.005     2 C    0.998     1 O    0.140
    10   6 C    3.898 --     9 O    1.005    15 C    0.983    26 H    0.938
                            11 N    0.858
    11   7 N    3.801 --    13 C    0.961    12 C    0.958    14 C    0.957
                            10 C    0.858
    12   6 C    3.926 --    28 H    0.974    29 H    0.973    27 H    0.972
                            11 N    0.958
    13   6 C    3.926 --    30 H    0.975    31 H    0.973    32 H    0.971
                            11 N    0.961
    14   6 C    3.924 --    34 H    0.975    35 H    0.974    33 H    0.972
                            11 N    0.957
    15   6 C    3.972 --    16 C    1.407    20 C    1.402    10 C    0.983
                            18 C    0.108
    16   6 C    3.990 --    17 C    1.443    15 C    1.407    36 H    0.966
                            19 C    0.109
    17   6 C    3.989 --    16 C    1.443    18 C    1.439    37 H    0.968
                            20 C    0.109
    18   6 C    3.987 --    17 C    1.439    19 C    1.435    38 H    0.968
                            15 C    0.108
    19   6 C    3.989 --    20 C    1.447    18 C    1.435    39 H    0.968
                            16 C    0.109
    20   6 C    3.990 --    19 C    1.447    15 C    1.402    40 H    0.967
                            17 C    0.109
    21   1 H    0.998 --     4 C    0.967
    22   1 H    0.996 --     5 C    0.968
    23   1 H    0.995 --     6 C    0.968
    24   1 H    0.995 --     7 C    0.967
    25   1 H    0.995 --     8 C    0.965
    26   1 H    0.992 --    10 C    0.938
    27   1 H    0.990 --    12 C    0.972
    28   1 H    0.991 --    12 C    0.974
    29   1 H    0.989 --    12 C    0.973
    30   1 H    0.990 --    13 C    0.975
    31   1 H    0.989 --    13 C    0.973
    32   1 H    0.990 --    13 C    0.971
    33   1 H    0.988 --    14 C    0.972
    34   1 H    0.991 --    14 C    0.975
    35   1 H    0.990 --    14 C    0.974
    36   1 H    0.997 --    16 C    0.966
    37   1 H    0.996 --    17 C    0.968
    38   1 H    0.995 --    18 C    0.968
    39   1 H    0.995 --    19 C    0.968
    40   1 H    0.998 --    20 C    0.967
 ---------------------------------------------------------------------------

molecular dipole:
                 x           y           z       tot (Debye)
 q only:       10.037      -0.679       1.246
   full:       10.015      -0.669       1.264      25.714

           -------------------------------------------------
          | TOTAL ENERGY              -57.249671142220 Eh   |
          | GRADIENT NORM               0.000210128889 Eh/α |
          | HOMO-LUMO GAP               3.361799917259 eV   |
           -------------------------------------------------

 * finished run on 2024/12/20 at 06:52:01.690
