   * xtb version 6.7.1 (edcfbbe) compiled by 'conda@3ef47c1a292c' on 2024-11-25

   ID    Z sym.   atoms
    1    6 C      1, 2, 4, 6-19
    2    7 N      3
    3    8 O      5
    4    1 H      20-55

          program call               : xtb C0655.xyz --opt --namespace C0655 --charge +1
          :  Hamiltonian                  GFN2-xTB          :
 * total energy  :   -61.3731035 Eh     change       -0.2699778E-09 Eh
 * total energy  :   -61.3806185 Eh     change       -0.7515001E-02 Eh
 * total energy  :   -61.3825213 Eh     change       -0.1902868E-02 Eh
 * total energy  :   -61.3828881 Eh     change       -0.3668061E-03 Eh
 * total energy  :   -61.3832171 Eh     change       -0.3289384E-03 Eh
 * total energy  :   -61.3833983 Eh     change       -0.1812014E-03 Eh
 * total energy  :   -61.3835837 Eh     change       -0.1854044E-03 Eh
 * total energy  :   -61.3837419 Eh     change       -0.1582387E-03 Eh
 * total energy  :   -61.3838526 Eh     change       -0.1106499E-03 Eh
 * total energy  :   -61.3839417 Eh     change       -0.8913062E-04 Eh
 * total energy  :   -61.3865662 Eh     change       -0.6139034E-05 Eh
 * total energy  :   -61.3865716 Eh     change       -0.5470253E-05 Eh
 * total energy  :   -61.3865767 Eh     change       -0.5093866E-05 Eh
 * total energy  :   -61.3865818 Eh     change       -0.5045258E-05 Eh
 * total energy  :   -61.3865870 Eh     change       -0.5189790E-05 Eh
 * total energy  :   -61.3865923 Eh     change       -0.5327148E-05 Eh
 * total energy  :   -61.3865975 Eh     change       -0.5253870E-05 Eh
 * total energy  :   -61.3866026 Eh     change       -0.5015946E-05 Eh
 * total energy  :   -61.3866072 Eh     change       -0.4616455E-05 Eh
   *** GEOMETRY OPTIMIZATION CONVERGED AFTER 60 ITERATIONS ***

 final structure:
================
55
 xtb: 6.7.1 (edcfbbe)
C            0.01560393115814        2.74938288938510        1.87215972943718
C           -1.48997625973387        2.94024513771411        1.77299694808074
N           -1.98962392690236        3.32723285095407        0.41753385311899
C           -1.47870782731226        2.33616504064141       -0.58925489194920
O           -1.79637419979939        1.06731393096035       -0.15468150616416
C           -1.82785654292962        0.04419284460798       -1.18381716294268
C           -1.30783205428927       -1.25035915607714       -0.55616513887856
C           -2.30305844914498       -1.97565416367128        0.35208946685872
C           -2.49438237219573       -1.26431686589383        1.68917718990110
C           -3.62054936308762       -2.17285089375168       -0.39806011515953
C           -4.19057868431542       -0.85380192486269       -0.90541240352654
C           -3.23781547182756       -0.03618695218137       -1.79322006624423
C           -3.26097913532702       -0.43559196208803       -3.28953347826901
C           -2.88459693522509        0.76381784100987       -4.16424191856857
C           -2.39344988299297       -1.62755851822772       -3.68286309364027
C           -3.48399761679299        3.20633588307552        0.38303046329639
C           -4.28006057979671        4.08440207383704        1.33115499389389
C           -1.53114474542845        4.68883231350054       -0.00962762325908
C           -1.41503683914184        5.75401914384434        1.07259092514592
H            0.33470445280550        1.84494564225448        1.36319023444723
H            0.26869467146537        2.63614921055039        2.92347133956844
H            0.57559417754090        3.59595881893230        1.48561726189769
H           -1.97289898106976        1.99643163047062        2.02923408893034
H           -1.81516340019013        3.70712376266007        2.47284849452212
H           -1.93801029124995        2.57170947433716       -1.56185944123941
H           -0.38931137176121        2.46850633059382       -0.67848687871430
H           -1.11345637521620        0.34963931954000       -1.95927034844656
H           -0.40453289835423       -1.00955966853125        0.00818117056328
H           -1.02468516107149       -1.92068910279612       -1.36597981306827
H           -1.88372197921139       -2.96431298421240        0.56723198330738
H           -2.87112843525243       -0.25668643154840        1.54593572706667
H           -3.19749456845603       -1.81506160740378        2.30902737859035
H           -1.54716423791175       -1.20365095069581        2.22011909223655
H           -3.45905358112535       -2.85466709510627       -1.23242678401315
H           -4.35161418517913       -2.63914886991186        0.26452597982586
H           -4.46360022108303       -0.24512985494579       -0.04028815584866
H           -5.10948503735969       -1.04701496929649       -1.46120119982588
H           -3.63472998252898        0.98944468615776       -1.78132861880428
H           -4.30054153889148       -0.69189915159634       -3.51951179823430
H           -1.86000564713992        1.08263007339120       -3.97804850257237
H           -2.96110296764104        0.49532207039202       -5.21410736959978
H           -3.55128202272771        1.60607440269744       -3.98621521313274
H           -2.63160019194153       -2.50914181656773       -3.09790178889959
H           -2.57290226158222       -1.86677294122155       -4.72853822911651
H           -1.33547004722951       -1.40233299114851       -3.57277246607171
H           -3.79855836623074        3.42431635991452       -0.64068108892686
H           -3.70270656697400        2.15589860549657        0.58732181865978
H           -4.21559909682510        5.13569449334658        1.06829170412893
H           -5.32451618544685        3.79428122730835        1.24014108664720
H           -3.99606269504965        3.94773442957579        2.36978887257906
H           -0.54906179743350        4.57666107044094       -0.47381279314198
H           -2.22345019956180        5.03007099595873       -0.78184245933436
H           -0.61683939723807        5.54015507401227        1.77644810573365
H           -1.16766086465744        6.69013241639611        0.57685639517161
H           -2.33649579309505        5.90851882777763        1.62200604396610

          :  Hamiltonian                  GFN2-xTB          :
         :: total energy             -61.386607172003 Eh    ::
         :: gradient norm              0.000161093560 Eh/a0 ::
         :: HOMO-LUMO gap              7.238406468812 eV    ::
         :: SCC energy               -62.215748095581 Eh    ::
         :: -> dispersion             -0.051149079591 Eh    ::
         :: repulsion energy           0.829140923578 Eh    ::

    * Orbital Energies and Occupations

         #    Occupation            Energy/Eh            Energy/eV
      -------------------------------------------------------------
         1        2.0000           -0.8598292             -23.3971
       ...           ...                  ...                  ...
        45        2.0000           -0.5687642             -15.4769
        46        2.0000           -0.5616404             -15.2830
        47        2.0000           -0.5585349             -15.1985
        48        2.0000           -0.5511370             -14.9972
        49        2.0000           -0.5449929             -14.8300
        50        2.0000           -0.5406047             -14.7106
        51        2.0000           -0.5379114             -14.6373
        52        2.0000           -0.5280473             -14.3689
        53        2.0000           -0.5265505             -14.3282
        54        2.0000           -0.5177628             -14.0890
        55        2.0000           -0.5053714             -13.7519
        56        2.0000           -0.5049820             -13.7413
        57        2.0000           -0.5023906             -13.6707 (HOMO)
        58                         -0.2363840              -6.4323 (LUMO)
        59                         -0.1775745              -4.8320
        60                         -0.1588657              -4.3230
        61                         -0.1537982              -4.1851
        62                         -0.1181309              -3.2145
        63                         -0.0662289              -1.8022
        64                         -0.0584876              -1.5915
        65                         -0.0437321              -1.1900
        66                         -0.0402049              -1.0940
        67                         -0.0331792              -0.9029
        68                         -0.0314661              -0.8562
       ...                                ...                  ...
       112                          0.2511942               6.8353
      -------------------------------------------------------------
                  HL-Gap            0.2660065 Eh            7.2384 eV

     #   Z          covCN         q      C6AA      α(0)
     1   6 C        3.751    -0.126    22.977     6.836
     2   6 C        3.752    -0.029    21.149     6.558
     3   7 N        3.617     0.091    19.665     6.586
     4   6 C        3.660     0.128    18.761     6.215
     5   8 O        1.698    -0.313    19.226     5.920
     6   6 C        3.739     0.112    18.823     6.191
     7   6 C        3.806    -0.070    21.828     6.651
     8   6 C        3.852    -0.014    20.783     6.484
     9   6 C        3.754    -0.108    22.627     6.783
    10   6 C        3.806    -0.065    21.747     6.639
    11   6 C        3.803    -0.059    21.638     6.623
    12   6 C        3.849    -0.032    21.102     6.534
    13   6 C        3.848    -0.019    20.889     6.501
    14   6 C        3.756    -0.109    22.638     6.784
    15   6 C        3.755    -0.112    22.690     6.792
    16   6 C        3.760    -0.025    21.060     6.542
    17   6 C        3.751    -0.127    23.007     6.840
    18   6 C        3.749    -0.028    21.134     6.557
    19   6 C        3.751    -0.129    23.033     6.844
    20   1 H        0.925     0.071     2.076     2.253
    21   1 H        0.925     0.081     1.971     2.195
    22   1 H        0.925     0.060     2.200     2.319
    23   1 H        0.924     0.101     1.775     2.083
    24   1 H        0.925     0.089     1.886     2.148
    25   1 H        0.923     0.055     2.263     2.353
    26   1 H        0.923     0.062     2.175     2.307
    27   1 H        0.924     0.024     2.675     2.558
    28   1 H        0.924     0.048     2.345     2.395
    29   1 H        0.925     0.059     2.207     2.323
    30   1 H        0.924     0.041     2.430     2.438
    31   1 H        0.925     0.033     2.537     2.491
    32   1 H        0.925     0.044     2.400     2.423
    33   1 H        0.925     0.036     2.501     2.473
    34   1 H        0.925     0.042     2.424     2.434
    35   1 H        0.924     0.045     2.386     2.416
    36   1 H        0.924     0.031     2.573     2.509
    37   1 H        0.924     0.042     2.417     2.431
    38   1 H        0.923     0.022     2.711     2.575
    39   1 H        0.924     0.046     2.374     2.410
    40   1 H        0.925     0.024     2.667     2.554
    41   1 H        0.925     0.053     2.278     2.360
    42   1 H        0.925     0.026     2.637     2.540
    43   1 H        0.925     0.046     2.366     2.406
    44   1 H        0.925     0.050     2.318     2.381
    45   1 H        0.925     0.033     2.541     2.493
    46   1 H        0.924     0.073     2.058     2.243
    47   1 H        0.924     0.096     1.820     2.110
    48   1 H        0.925     0.067     2.113     2.273
    49   1 H        0.925     0.084     1.942     2.179
    50   1 H        0.925     0.066     2.132     2.284
    51   1 H        0.924     0.077     2.009     2.217
    52   1 H        0.924     0.080     1.981     2.201
    53   1 H        0.925     0.072     2.067     2.249
    54   1 H        0.925     0.082     1.957     2.188
    55   1 H        0.925     0.071     2.073     2.252

Wiberg/Mayer (AO) data.
largest (>0.10) Wiberg bond orders for each atom

     #   Z sym  total        # sym  WBO       # sym  WBO       # sym  WBO
 ---------------------------------------------------------------------------
     1   6 C    3.983 --     2 C    1.022    20 H    0.981    22 H    0.980
                            21 H    0.974
     2   6 C    3.925 --     1 C    1.022    24 H    0.962    23 H    0.962
                             3 N    0.923
     3   7 N    3.791 --    18 C    0.929    16 C    0.925     2 C    0.923
                             4 C    0.922
     4   6 C    3.937 --     5 O    1.038    25 H    0.955    26 H    0.950
                             3 N    0.922
     5   8 O    2.078 --     4 C    1.038     6 C    0.902
     6   6 C    3.913 --     7 C    0.993    12 C    0.981    27 H    0.961
                             5 O    0.902
     7   6 C    3.990 --     8 C    0.996     6 C    0.993    28 H    0.972
                            29 H    0.967
     8   6 C    3.995 --     9 C    1.010    10 C    0.997     7 C    0.996
                            30 H    0.967
     9   6 C    3.996 --     8 C    1.010    33 H    0.986    32 H    0.986
                            31 H    0.980
    10   6 C    3.996 --    11 C    1.010     8 C    0.997    35 H    0.974
                            34 H    0.970
    11   6 C    3.996 --    10 C    1.010    12 C    0.994    36 H    0.974
                            37 H    0.973
    12   6 C    3.991 --    11 C    0.994     6 C    0.981    13 C    0.978
                            38 H    0.960
    13   6 C    3.993 --    15 C    1.012    14 C    1.008    12 C    0.978
                            39 H    0.965
    14   6 C    3.995 --    13 C    1.008    42 H    0.986    40 H    0.984
                            41 H    0.984
    15   6 C    3.994 --    13 C    1.012    45 H    0.983    44 H    0.983
                            43 H    0.977
    16   6 C    3.931 --    17 C    1.023    46 H    0.967    47 H    0.960
                             3 N    0.925
    17   6 C    3.983 --    16 C    1.023    50 H    0.980    48 H    0.979
                            49 H    0.972
    18   6 C    3.935 --    19 C    1.021    52 H    0.969    51 H    0.967
                             3 N    0.929
    19   6 C    3.979 --    18 C    1.021    53 H    0.979    55 H    0.976
                            54 H    0.973
    20   1 H    0.995 --     1 C    0.981
    21   1 H    0.993 --     1 C    0.974
    22   1 H    0.996 --     1 C    0.980
    23   1 H    0.990 --     2 C    0.962
    24   1 H    0.992 --     2 C    0.962
    25   1 H    0.997 --     4 C    0.955
    26   1 H    0.996 --     4 C    0.950
    27   1 H    0.999 --     6 C    0.961
    28   1 H    0.998 --     7 C    0.972
    29   1 H    0.996 --     7 C    0.967
    30   1 H    0.998 --     8 C    0.967
    31   1 H    0.999 --     9 C    0.980
    32   1 H    0.998 --     9 C    0.986
    33   1 H    0.999 --     9 C    0.986
    34   1 H    0.998 --    10 C    0.970
    35   1 H    0.998 --    10 C    0.974
    36   1 H    0.999 --    11 C    0.974
    37   1 H    0.998 --    11 C    0.973
    38   1 H    1.000 --    12 C    0.960
    39   1 H    0.998 --    13 C    0.965
    40   1 H    0.999 --    14 C    0.984
    41   1 H    0.997 --    14 C    0.984
    42   1 H    0.999 --    14 C    0.986
    43   1 H    0.998 --    15 C    0.977
    44   1 H    0.997 --    15 C    0.983
    45   1 H    0.999 --    15 C    0.983
    46   1 H    0.994 --    16 C    0.967
    47   1 H    0.991 --    16 C    0.960
    48   1 H    0.995 --    17 C    0.979
    49   1 H    0.993 --    17 C    0.972
    50   1 H    0.996 --    17 C    0.980
    51   1 H    0.994 --    18 C    0.967
    52   1 H    0.994 --    18 C    0.969
    53   1 H    0.995 --    19 C    0.979
    54   1 H    0.993 --    19 C    0.973
    55   1 H    0.995 --    19 C    0.976
 ---------------------------------------------------------------------------

molecular dipole:
                 x           y           z       tot (Debye)
 q only:       -3.954       5.554       0.550
   full:       -3.859       5.736       0.231      17.583

           -------------------------------------------------
          | TOTAL ENERGY              -61.386607172003 Eh   |
          | GRADIENT NORM               0.000161093560 Eh/α |
          | HOMO-LUMO GAP               7.238406468812 eV   |
           -------------------------------------------------

 * finished run on 2024/12/20 at 06:51:55.358
