   * xtb version 6.7.1 (edcfbbe) compiled by 'conda@3ef47c1a292c' on 2024-11-25

   ID    Z sym.   atoms
    1    6 C      1-4, 6-13
    2    7 N      5
    3    1 H      14-33

          program call               : xtb C0657.xyz --opt --namespace C0657 --charge +1
          :  Hamiltonian                  GFN2-xTB          :
 * total energy  :   -38.4481235 Eh     change       -0.5063470E-09 Eh
 * total energy  :   -38.4518891 Eh     change       -0.3765649E-02 Eh
 * total energy  :   -38.4524994 Eh     change       -0.6103054E-03 Eh
 * total energy  :   -38.4525970 Eh     change       -0.9753923E-04 Eh
 * total energy  :   -38.4526785 Eh     change       -0.8157785E-04 Eh
 * total energy  :   -38.4527150 Eh     change       -0.3644106E-04 Eh
 * total energy  :   -38.4527688 Eh     change       -0.5384690E-04 Eh
 * total energy  :   -38.4528183 Eh     change       -0.4951137E-04 Eh
 * total energy  :   -38.4528655 Eh     change       -0.4715119E-04 Eh
 * total energy  :   -38.4528898 Eh     change       -0.2433298E-04 Eh
 * total energy  :   -38.4531566 Eh     change       -0.8738613E-05 Eh
 * total energy  :   -38.4531673 Eh     change       -0.1072994E-04 Eh
 * total energy  :   -38.4531789 Eh     change       -0.1160218E-04 Eh
 * total energy  :   -38.4531897 Eh     change       -0.1082584E-04 Eh
 * total energy  :   -38.4531508 Eh     change        0.3896779E-04 Eh
 * total energy  :   -38.4531982 Eh     change       -0.4748629E-04 Eh
 * total energy  :   -38.4532046 Eh     change       -0.6374983E-05 Eh
 * total energy  :   -38.4532040 Eh     change        0.5816560E-06 Eh
 * total energy  :   -38.4532089 Eh     change       -0.4823164E-05 Eh
   *** GEOMETRY OPTIMIZATION CONVERGED AFTER 34 ITERATIONS ***

 final structure:
================
33
 xtb: 6.7.1 (edcfbbe)
C            1.35373902388297        0.53798981118388        0.23452366060896
C            0.73917550958559        1.59990333374839       -0.66981964011413
C            1.05819429397774        1.39396403284442       -2.15138139295681
C            0.38350835011598        0.16313260185564       -2.77724485807293
N           -1.05906573345894        0.33958212270726       -2.87487474836874
C           -1.79378314624369       -0.06415276207612       -1.82652101723156
C           -3.16108468489860        0.11369992436966       -1.76998883968581
C           -3.95369407941641       -0.31825965004377       -0.58643798146854
C           -3.76237518059189        0.72241649609210       -2.87083342701418
C           -3.01305785907028        1.12330388460261       -3.96694193983720
C           -1.62274567922442        0.93086971394388       -3.94603259692778
C           -0.76613635721019        1.33334697703903       -5.09690003414760
C           -3.69610745192211        1.74315380475819       -5.14146344467600
H            0.95300685867986       -0.45504520380258        0.04182723148382
H            1.15639382277666        0.77873181637618        1.27519817452137
H            2.43096426949144        0.50082159651446        0.09583409113055
H           -0.34291092792434        1.64448850234918       -0.51911587875614
H            1.13975378156568        2.57179998886998       -0.37874428901552
H            0.76728775343724        2.29086410017475       -2.70110025715521
H            2.13534133703310        1.26833976809614       -2.26667131637813
H            0.79639361320069       -0.02706596638609       -3.76690895234955
H            0.58294613252492       -0.71132882732682       -2.15718461310272
H           -1.26856901445558       -0.55293470664818       -1.02085417567371
H           -3.37641920623958       -0.96924672512858        0.06286837353506
H           -4.26283161611238        0.55408685350669       -0.01144395524694
H           -4.85615578670852       -0.83717254018153       -0.90011967639316
H           -4.83114008132749        0.87419629632042       -2.87217147897463
H            0.10425020174153        1.90106052404940       -4.77815866588235
H           -0.41498670813548        0.45015707765787       -5.63314914388886
H           -1.32469216258990        1.94234943135867       -5.79806126610177
H           -3.35049791948278        2.76339075756810       -5.30100152868689
H           -3.50373738133834        1.17266983949008       -6.04823033782766
H           -4.76945397166389        1.77334712611617       -4.98023607534446

          :  Hamiltonian                  GFN2-xTB          :
         :: total energy             -38.453208859443 Eh    ::
         :: gradient norm              0.000435799279 Eh/a0 ::
         :: HOMO-LUMO gap              3.185951434736 eV    ::
         :: SCC energy               -39.083661346999 Eh    ::
         :: -> dispersion             -0.026731870219 Eh    ::
         :: repulsion energy           0.630452487556 Eh    ::

    * Orbital Energies and Occupations

         #    Occupation            Energy/Eh            Energy/eV
      -------------------------------------------------------------
         1        2.0000           -0.8545814             -23.2543
       ...           ...                  ...                  ...
        24        2.0000           -0.6218552             -16.9215
        25        2.0000           -0.6129527             -16.6793
        26        2.0000           -0.6086488             -16.5622
        27        2.0000           -0.6035448             -16.4233
        28        2.0000           -0.5984007             -16.2833
        29        2.0000           -0.5970821             -16.2474
        30        2.0000           -0.5869701             -15.9723
        31        2.0000           -0.5839991             -15.8914
        32        2.0000           -0.5759491             -15.6724
        33        2.0000           -0.5637071             -15.3393
        34        2.0000           -0.5603738             -15.2485
        35        2.0000           -0.5546018             -15.0915
        36        2.0000           -0.5478701             -14.9083 (HOMO)
        37                         -0.4307885             -11.7224 (LUMO)
        38                         -0.3959832             -10.7753
        39                         -0.2838253              -7.7233
        40                         -0.1609498              -4.3797
        41                         -0.0783049              -2.1308
        42                         -0.0603349              -1.6418
        43                         -0.0451588              -1.2288
        44                         -0.0405972              -1.1047
        45                         -0.0314495              -0.8558
        46                         -0.0235853              -0.6418
        47                         -0.0203729              -0.5544
       ...                                ...                  ...
        72                          0.4560521              12.4098
      -------------------------------------------------------------
                  HL-Gap            0.1170816 Eh            3.1860 eV

     #   Z          covCN         q      C6AA      α(0)
     1   6 C        3.751    -0.112    22.712     6.796
     2   6 C        3.799    -0.061    21.677     6.629
     3   6 C        3.801    -0.068    21.804     6.648
     4   6 C        3.760    -0.033    21.208     6.565
     5   7 N        2.749     0.077    19.901     6.626
     6   6 C        2.898     0.009    27.824     8.649
     7   6 C        2.958     0.036    27.193     8.553
     8   6 C        3.759    -0.129    23.026     6.841
     9   6 C        2.936    -0.022    28.566     8.765
    10   6 C        2.962     0.029    27.358     8.579
    11   6 C        2.927     0.071    26.402     8.427
    12   6 C        3.757    -0.138    23.208     6.868
    13   6 C        3.759    -0.129    23.018     6.840
    14   1 H        0.925     0.030     2.583     2.513
    15   1 H        0.925     0.054     2.267     2.354
    16   1 H        0.925     0.052     2.295     2.369
    17   1 H        0.924     0.031     2.569     2.507
    18   1 H        0.924     0.059     2.216     2.328
    19   1 H        0.924     0.048     2.341     2.392
    20   1 H        0.924     0.074     2.043     2.235
    21   1 H        0.925     0.086     1.917     2.165
    22   1 H        0.924     0.089     1.893     2.152
    23   1 H        0.926     0.097     1.816     2.107
    24   1 H        0.925     0.072     2.060     2.244
    25   1 H        0.925     0.090     1.883     2.146
    26   1 H        0.925     0.086     1.923     2.168
    27   1 H        0.926     0.089     1.892     2.151
    28   1 H        0.925     0.088     1.903     2.157
    29   1 H        0.924     0.090     1.877     2.143
    30   1 H        0.925     0.094     1.843     2.123
    31   1 H        0.925     0.082     1.959     2.189
    32   1 H        0.925     0.083     1.952     2.185
    33   1 H        0.925     0.078     1.998     2.210

Wiberg/Mayer (AO) data.
largest (>0.10) Wiberg bond orders for each atom

     #   Z sym  total        # sym  WBO       # sym  WBO       # sym  WBO
 ---------------------------------------------------------------------------
     1   6 C    3.993 --     2 C    1.021    16 H    0.986    15 H    0.985
                            14 H    0.983
     2   6 C    3.994 --     1 C    1.021     3 C    1.009    17 H    0.972
                            18 H    0.972
     3   6 C    3.986 --     2 C    1.009     4 C    0.979    19 H    0.972
                            20 H    0.966
     4   6 C    3.939 --     3 C    0.979     5 N    0.965    21 H    0.961
                            22 H    0.960
     5   7 N    3.742 --    11 C    1.303     6 C    1.300     4 C    0.965
     6   6 C    3.959 --     7 C    1.431     5 N    1.300    23 H    0.952
     7   6 C    3.984 --     6 C    1.431     9 C    1.366     8 C    1.040
     8   6 C    3.984 --     7 C    1.040    24 H    0.980    26 H    0.965
                            25 H    0.951
     9   6 C    3.981 --    10 C    1.430     7 C    1.366    27 H    0.961
    10   6 C    3.985 --     9 C    1.430    11 C    1.349    13 C    1.038
    11   6 C    3.961 --    10 C    1.349     5 N    1.303    12 C    1.045
    12   6 C    3.981 --    11 C    1.045    30 H    0.970    28 H    0.957
                            29 H    0.944
    13   6 C    3.985 --    10 C    1.038    33 H    0.979    32 H    0.959
                            31 H    0.956
    14   1 H    0.999 --     1 C    0.983
    15   1 H    0.997 --     1 C    0.985
    16   1 H    0.997 --     1 C    0.986
    17   1 H    0.999 --     2 C    0.972
    18   1 H    0.996 --     2 C    0.972
    19   1 H    0.998 --     3 C    0.972
    20   1 H    0.993 --     3 C    0.966
    21   1 H    0.992 --     4 C    0.961
    22   1 H    0.992 --     4 C    0.960
    23   1 H    0.990 --     6 C    0.952
    24   1 H    0.994 --     8 C    0.980
    25   1 H    0.991 --     8 C    0.951
    26   1 H    0.992 --     8 C    0.965
    27   1 H    0.992 --     9 C    0.961
    28   1 H    0.992 --    12 C    0.957
    29   1 H    0.991 --    12 C    0.944
    30   1 H    0.991 --    12 C    0.970
    31   1 H    0.993 --    13 C    0.956
    32   1 H    0.993 --    13 C    0.959
    33   1 H    0.993 --    13 C    0.979
 ---------------------------------------------------------------------------

molecular dipole:
                 x           y           z       tot (Debye)
 q only:       -3.048       1.258      -5.552
   full:       -3.043       1.207      -5.573      16.430

           -------------------------------------------------
          | TOTAL ENERGY              -38.453208859443 Eh   |
          | GRADIENT NORM               0.000435799279 Eh/α |
          | HOMO-LUMO GAP               3.185951434736 eV   |
           -------------------------------------------------

 * finished run on 2024/12/20 at 06:51:56.742
