   * xtb version 6.7.1 (edcfbbe) compiled by 'conda@3ef47c1a292c' on 2024-11-25

   ID    Z sym.   atoms
    1    7 N      1
    2    6 C      2-6
    3    1 H      7-20

          program call               : xtb C0652.xyz --opt --namespace C0652 --charge +1
          :  Hamiltonian                  GFN2-xTB          :
 * total energy  :   -20.3352944 Eh     change       -0.1289777E-09 Eh
 * total energy  :   -20.3365234 Eh     change       -0.1229087E-02 Eh
 * total energy  :   -20.3367720 Eh     change       -0.2485287E-03 Eh
 * total energy  :   -20.3368228 Eh     change       -0.5081371E-04 Eh
 * total energy  :   -20.3368544 Eh     change       -0.3158801E-04 Eh
 * total energy  :   -20.3368829 Eh     change       -0.2847351E-04 Eh
 * total energy  :   -20.3369081 Eh     change       -0.2524958E-04 Eh
 * total energy  :   -20.3369307 Eh     change       -0.2255852E-04 Eh
 * total energy  :   -20.3369357 Eh     change       -0.5076506E-05 Eh
 * total energy  :   -20.3369386 Eh     change       -0.2861272E-05 Eh
   *** GEOMETRY OPTIMIZATION CONVERGED AFTER 10 ITERATIONS ***

 final structure:
================
20
 xtb: 6.7.1 (edcfbbe)
N            1.04736710641755       -0.04871990449407        0.04114605458394
C            0.59123284280086       -0.27265667562823        1.44895257034017
C            1.05181870766671        0.87835798162705        2.33148356453262
C            0.51066222277878        2.25847514638616        1.92270416023693
C           -1.01614366479238        2.29436125380174        1.91474027499892
C            1.05216895133908        3.30241587473237        2.89816350103693
H            0.69678939673393        0.87169686321348       -0.26476816025817
H            0.70389413829263       -0.77753169370253       -0.59533343805736
H            2.07497009025052       -0.02734906336272        0.00465773331133
H           -0.49611826185004       -0.34662782357265        1.45012575724549
H            1.00657418085298       -1.21634932509903        1.80377234569740
H            0.71928389074626        0.66743423035815        3.34816282468682
H            2.14314600373351        0.91028976696044        2.35205464684908
H            0.88020222665108        2.52567064565459        0.92207248995944
H           -1.40631714512713        1.96413105908554        2.87360038252934
H           -1.35775376116541        3.31219554510600        1.75079390142104
H           -1.44982958127246        1.67539171723632        1.13162653929796
H            2.13879451954480        3.28705354245672        2.92153204921760
H            0.73341316476338        4.29774125679173        2.60365170982806
H            0.68374497163536        3.11045960244898        3.90193109254244

          :  Hamiltonian                  GFN2-xTB          :
         :: total energy             -20.336938597781 Eh    ::
         :: gradient norm              0.000610602682 Eh/a0 ::
         :: HOMO-LUMO gap              8.168555467850 eV    ::
         :: SCC energy               -20.634764207742 Eh    ::
         :: -> dispersion             -0.010419730098 Eh    ::
         :: repulsion energy           0.297825609961 Eh    ::

    * Orbital Energies and Occupations

         #    Occupation            Energy/Eh            Energy/eV
      -------------------------------------------------------------
         1        2.0000           -0.8939935             -24.3268
       ...           ...                  ...                  ...
         7        2.0000           -0.7292194             -19.8431
         8        2.0000           -0.7128348             -19.3972
         9        2.0000           -0.6901837             -18.7809
        10        2.0000           -0.6814388             -18.5429
        11        2.0000           -0.6599510             -17.9582
        12        2.0000           -0.6463478             -17.5880
        13        2.0000           -0.6249817             -17.0066
        14        2.0000           -0.6124385             -16.6653
        15        2.0000           -0.5950139             -16.1912
        16        2.0000           -0.5812564             -15.8168
        17        2.0000           -0.5717781             -15.5589
        18        2.0000           -0.5663928             -15.4123
        19        2.0000           -0.5618598             -15.2890 (HOMO)
        20                         -0.2616709              -7.1204 (LUMO)
        21                         -0.1598728              -4.3504
        22                         -0.1076338              -2.9289
        23                         -0.1025261              -2.7899
        24                         -0.0783877              -2.1330
        25                         -0.0509098              -1.3853
        26                         -0.0392176              -1.0672
        27                         -0.0217035              -0.5906
        28                         -0.0040695              -0.1107
        29                          0.0178515               0.4858
        30                          0.0546410               1.4869
       ...                                ...                  ...
        38                          0.1649799               4.4893
      -------------------------------------------------------------
                  HL-Gap            0.3001889 Eh            8.1686 eV

     #   Z          covCN         q      C6AA      α(0)
     1   7 N        3.483    -0.128    23.779     7.242
     2   6 C        3.730    -0.034    21.272     6.584
     3   6 C        3.807    -0.093    22.270     6.718
     4   6 C        3.848    -0.015    20.802     6.487
     5   6 C        3.755    -0.125    22.958     6.832
     6   6 C        3.758    -0.121    22.872     6.818
     7   1 H        0.859     0.276     0.789     1.391
     8   1 H        0.859     0.266     0.824     1.422
     9   1 H        0.859     0.270     0.811     1.411
    10   1 H        0.925     0.110     1.695     2.036
    11   1 H        0.924     0.103     1.761     2.075
    12   1 H        0.924     0.094     1.839     2.121
    13   1 H        0.924     0.063     2.160     2.298
    14   1 H        0.923     0.019     2.745     2.591
    15   1 H        0.925     0.058     2.226     2.333
    16   1 H        0.925     0.065     2.146     2.291
    17   1 H        0.925     0.027     2.630     2.536
    18   1 H        0.925     0.048     2.351     2.398
    19   1 H        0.925     0.061     2.191     2.315
    20   1 H        0.925     0.057     2.233     2.337

Wiberg/Mayer (AO) data.
largest (>0.10) Wiberg bond orders for each atom

     #   Z sym  total        # sym  WBO       # sym  WBO       # sym  WBO
 ---------------------------------------------------------------------------
     1   7 N    3.675 --     2 C    0.922     8 H    0.915     9 H    0.911
                             7 H    0.896
     2   6 C    3.888 --     3 C    1.009    11 H    0.968    10 H    0.963
                             1 N    0.922
     3   6 C    3.977 --     2 C    1.009     4 C    0.991    13 H    0.971
                            12 H    0.960
     4   6 C    3.994 --     5 C    1.010     6 C    1.006     3 C    0.991
                            14 H    0.960
     5   6 C    3.991 --     4 C    1.010    15 H    0.984    17 H    0.984
                            16 H    0.982
     6   6 C    3.990 --     4 C    1.006    18 H    0.985    20 H    0.984
                            19 H    0.983
     7   1 H    0.924 --     1 N    0.896
     8   1 H    0.929 --     1 N    0.915
     9   1 H    0.927 --     1 N    0.911
    10   1 H    0.988 --     2 C    0.963
    11   1 H    0.989 --     2 C    0.968
    12   1 H    0.991 --     3 C    0.960
    13   1 H    0.996 --     3 C    0.971
    14   1 H    1.000 --     4 C    0.960
    15   1 H    0.997 --     5 C    0.984
    16   1 H    0.996 --     5 C    0.982
    17   1 H    0.999 --     5 C    0.984
    18   1 H    0.998 --     6 C    0.985
    19   1 H    0.996 --     6 C    0.983
    20   1 H    0.997 --     6 C    0.984
 ---------------------------------------------------------------------------

molecular dipole:
                 x           y           z       tot (Debye)
 q only:        1.749       0.403       1.013
   full:        1.818       0.327       0.743       5.060

           -------------------------------------------------
          | TOTAL ENERGY              -20.336938597781 Eh   |
          | GRADIENT NORM               0.000610602682 Eh/α |
          | HOMO-LUMO GAP               8.168555467850 eV   |
           -------------------------------------------------

 * finished run on 2024/12/20 at 06:51:46.933
