   * xtb version 6.7.1 (edcfbbe) compiled by 'conda@3ef47c1a292c' on 2024-11-25

   ID    Z sym.   atoms
    1    6 C      1, 3-21
    2    7 N      2
    3    1 H      22-43

          program call               : xtb C0658.xyz --opt --namespace C0658 --charge +1
          :  Hamiltonian                  GFN2-xTB          :
 * total energy  :   -56.4525560 Eh     change       -0.3357670E-09 Eh
 * total energy  :   -56.4592540 Eh     change       -0.6698058E-02 Eh
 * total energy  :   -56.4609446 Eh     change       -0.1690591E-02 Eh
 * total energy  :   -56.4613181 Eh     change       -0.3734256E-03 Eh
 * total energy  :   -56.4617443 Eh     change       -0.4262240E-03 Eh
 * total energy  :   -56.4620709 Eh     change       -0.3266473E-03 Eh
 * total energy  :   -56.4624417 Eh     change       -0.3708030E-03 Eh
 * total energy  :   -56.4627957 Eh     change       -0.3540035E-03 Eh
 * total energy  :   -56.4630913 Eh     change       -0.2955808E-03 Eh
 * total energy  :   -56.4633246 Eh     change       -0.2333178E-03 Eh
 * total energy  :   -56.4682145 Eh     change       -0.8523869E-05 Eh
 * total energy  :   -56.4682222 Eh     change       -0.7643975E-05 Eh
 * total energy  :   -56.4682326 Eh     change       -0.1044785E-04 Eh
 * total energy  :   -56.4682417 Eh     change       -0.9061145E-05 Eh
 * total energy  :   -56.4682599 Eh     change       -0.1824459E-04 Eh
 * total energy  :   -56.4682660 Eh     change       -0.6071811E-05 Eh
 * total energy  :   -56.4682732 Eh     change       -0.7211113E-05 Eh
 * total energy  :   -56.4682807 Eh     change       -0.7459709E-05 Eh
 * total energy  :   -56.4682847 Eh     change       -0.4062755E-05 Eh
   *** GEOMETRY OPTIMIZATION CONVERGED AFTER 68 ITERATIONS ***

 final structure:
================
43
 xtb: 6.7.1 (edcfbbe)
C            0.35774260214860        0.39249064822552        0.89624299428640
N           -0.11681795579704       -0.97984901584869        0.65152967739891
C            0.02895323755149       -1.77988368254877        1.91108262170877
C            1.40593703951986       -1.86165549532190        2.34951911545408
C            2.54938624592023       -1.94237450297798        2.71999629440077
C            3.88541244518882       -2.03448859304887        3.16909204143603
C            4.33656832044038       -1.19752005405181        4.19107977074571
C            5.64226952576505       -1.29762326906186        4.63065743886805
C            6.50207062596106       -2.22280110195096        4.05864823761013
C            6.05619636673664       -3.05366988351915        3.04214928980874
C            4.75261577586661       -2.96505831129832        2.59396032228493
C           -1.56514844348302       -0.97050797639274        0.24986035867480
C           -1.83326551377178       -0.16687846339787       -0.98226926892231
C           -2.09744193184486       -0.72591682454406       -2.16634248387129
C           -2.39858094218175       -0.04332621697027       -3.41070382062005
C           -2.73373464425220       -0.81483466367224       -4.52739931043330
C           -3.03514242642199       -0.21877437385751       -5.73606116884430
C           -3.00211270584331        1.16107330428473       -5.85540551005178
C           -2.66738530061542        1.93970693360318       -4.75812667301155
C           -2.36874919680717        1.34740317795640       -3.54750006378562
C            0.69139538750684       -1.59629150606296       -0.41321248880053
H           -0.28678315213111        0.88750469065882        1.62097279133930
H            0.35545136832428        0.96017419569890       -0.03111771970829
H            1.37217289461027        0.35907280755818        1.29246637928517
H           -0.35950621661551       -2.78631536942331        1.72723138381861
H           -0.57758313355255       -1.30891219518759        2.69082717211259
H            3.65952460241985       -0.48220918034687        4.63422694528512
H            5.99092717268564       -0.65337853281171        5.42307393612712
H            7.52057988121525       -2.29768875150670        4.40672194393771
H            6.72654675819384       -3.77427070728351        2.59948295627686
H            4.39681968281994       -3.61220976084199        1.80565032989859
H           -1.86706439716889       -2.00822655179314        0.08993321231527
H           -2.13409999457613       -0.56625926908739        1.09141378492421
H           -1.85229478350487        0.90449765148247       -0.85883929946913
H           -2.10809019963527       -1.80827107497821       -2.23703026746628
H           -2.76257437200040       -1.89151162722857       -4.43978631103402
H           -3.29487596235532       -0.82962875705569       -6.58685321398719
H           -3.23621787547826        1.62912439140333       -6.79882661687579
H           -2.64061480454036        3.01482007065897       -4.84876115918973
H           -2.11289379340150        1.97231077194571       -2.70565853752311
H            0.57340293801920       -1.03439096363266       -1.33797438790776
H            1.73970620904395       -1.60286585235715       -0.11912267357094
H            0.36732866617035       -2.62195611547534       -0.58094802302491

          :  Hamiltonian                  GFN2-xTB          :
         :: total energy             -56.468284721993 Eh    ::
         :: gradient norm              0.000620951824 Eh/a0 ::
         :: HOMO-LUMO gap              3.245337755604 eV    ::
         :: SCC energy               -57.544763094726 Eh    ::
         :: -> dispersion             -0.039506372410 Eh    ::
         :: repulsion energy           1.076478372733 Eh    ::

    * Orbital Energies and Occupations

         #    Occupation            Energy/Eh            Energy/eV
      -------------------------------------------------------------
         1        2.0000           -0.8517806             -23.1781
       ...           ...                  ...                  ...
        41        2.0000           -0.5695909             -15.4994
        42        2.0000           -0.5604102             -15.2495
        43        2.0000           -0.5515181             -15.0076
        44        2.0000           -0.5464630             -14.8700
        45        2.0000           -0.5391348             -14.6706
        46        2.0000           -0.5209659             -14.1762
        47        2.0000           -0.5193084             -14.1311
        48        2.0000           -0.5131558             -13.9637
        49        2.0000           -0.5121439             -13.9361
        50        2.0000           -0.4999635             -13.6047
        51        2.0000           -0.4986671             -13.5694
        52        2.0000           -0.4937184             -13.4348
        53        2.0000           -0.4907664             -13.3544 (HOMO)
        54                         -0.3715024             -10.1091 (LUMO)
        55                         -0.3522408              -9.5850
        56                         -0.3171516              -8.6301
        57                         -0.3156364              -8.5889
        58                         -0.2852141              -7.7611
        59                         -0.2827632              -7.6944
        60                         -0.2622959              -7.1374
        61                         -0.1977814              -5.3819
        62                         -0.1757650              -4.7828
        63                         -0.1674575              -4.5568
        64                         -0.1383674              -3.7652
       ...                                ...                  ...
       106                          1.2851982              34.9720
      -------------------------------------------------------------
                  HL-Gap            0.1192640 Eh            3.2453 eV

     #   Z          covCN         q      C6AA      α(0)
     1   6 C        3.718    -0.087    22.288     6.744
     2   7 N        3.623     0.127    19.075     6.487
     3   6 C        3.766    -0.013    20.849     6.508
     4   6 C        1.964    -0.074    33.081     9.288
     5   6 C        1.983    -0.016    31.488     9.062
     6   6 C        2.974     0.031    27.301     8.571
     7   6 C        2.927    -0.024    28.598     8.770
     8   6 C        2.919    -0.022    28.549     8.762
     9   6 C        2.920    -0.017    28.440     8.745
    10   6 C        2.918    -0.022    28.556     8.763
    11   6 C        2.927    -0.024    28.610     8.772
    12   6 C        3.763    -0.032    21.182     6.560
    13   6 C        2.889    -0.071    29.771     8.946
    14   6 C        2.902    -0.026    28.646     8.776
    15   6 C        2.971     0.008    27.829     8.653
    16   6 C        2.929    -0.028    28.693     8.785
    17   6 C        2.917    -0.023    28.575     8.766
    18   6 C        2.920    -0.017    28.440     8.745
    19   6 C        2.918    -0.024    28.594     8.769
    20   6 C        2.923    -0.030    28.751     8.793
    21   6 C        3.718    -0.087    22.287     6.743
    22   1 H        0.925     0.092     1.856     2.130
    23   1 H        0.925     0.097     1.814     2.106
    24   1 H        0.925     0.099     1.796     2.096
    25   1 H        0.924     0.091     1.872     2.140
    26   1 H        0.924     0.091     1.866     2.136
    27   1 H        0.926     0.040     2.450     2.448
    28   1 H        0.926     0.050     2.318     2.381
    29   1 H        0.926     0.053     2.286     2.364
    30   1 H        0.926     0.050     2.326     2.385
    31   1 H        0.926     0.038     2.477     2.461
    32   1 H        0.924     0.078     2.000     2.212
    33   1 H        0.924     0.079     1.995     2.209
    34   1 H        0.926     0.052     2.298     2.370
    35   1 H        0.925     0.046     2.368     2.406
    36   1 H        0.926     0.041     2.433     2.439
    37   1 H        0.926     0.051     2.307     2.375
    38   1 H        0.926     0.054     2.276     2.359
    39   1 H        0.926     0.049     2.334     2.389
    40   1 H        0.926     0.034     2.525     2.485
    41   1 H        0.925     0.096     1.824     2.112
    42   1 H        0.925     0.099     1.791     2.093
    43   1 H        0.925     0.092     1.864     2.135

Wiberg/Mayer (AO) data.
largest (>0.10) Wiberg bond orders for each atom

     #   Z sym  total        # sym  WBO       # sym  WBO       # sym  WBO
 ---------------------------------------------------------------------------
     1   6 C    3.929 --    22 H    0.976    23 H    0.973    24 H    0.971
                             2 N    0.961
     2   7 N    3.796 --    21 C    0.961     1 C    0.961     3 C    0.910
                            12 C    0.908
     3   6 C    3.938 --     4 C    1.051    26 H    0.951    25 H    0.951
                             2 N    0.910
     4   6 C    3.939 --     5 C    2.718     3 C    1.051
     5   6 C    3.974 --     4 C    2.718     6 C    1.118
     6   6 C    3.986 --    11 C    1.357     7 C    1.356     5 C    1.118
                             9 C    0.100
     7   6 C    3.988 --     8 C    1.458     6 C    1.356    27 H    0.970
                            10 C    0.105
     8   6 C    3.991 --     7 C    1.458     9 C    1.431    28 H    0.969
                            11 C    0.105
     9   6 C    3.960 --     8 C    1.431    10 C    1.430    29 H    0.970
                             6 C    0.100
    10   6 C    3.991 --    11 C    1.458     9 C    1.430    30 H    0.969
                             7 C    0.105
    11   6 C    3.989 --    10 C    1.458     6 C    1.357    31 H    0.971
                             8 C    0.105
    12   6 C    3.932 --    13 C    1.023    32 H    0.966    33 H    0.963
                             2 N    0.908
    13   6 C    3.971 --    14 C    1.817    12 C    1.023    34 H    0.960
    14   6 C    3.985 --    13 C    1.817    15 C    1.113    35 H    0.960
    15   6 C    3.989 --    16 C    1.364    20 C    1.361    14 C    1.113
    16   6 C    3.987 --    17 C    1.460    15 C    1.364    36 H    0.968
                            19 C    0.102
    17   6 C    3.991 --    16 C    1.460    18 C    1.431    37 H    0.969
                            20 C    0.104
    18   6 C    3.986 --    17 C    1.431    19 C    1.423    38 H    0.970
    19   6 C    3.991 --    20 C    1.467    18 C    1.423    39 H    0.970
                            16 C    0.102
    20   6 C    3.990 --    19 C    1.467    15 C    1.361    40 H    0.966
                            17 C    0.104
    21   6 C    3.930 --    43 H    0.976    41 H    0.972    42 H    0.972
                             2 N    0.961
    22   1 H    0.991 --     1 C    0.976
    23   1 H    0.991 --     1 C    0.973
    24   1 H    0.990 --     1 C    0.971
    25   1 H    0.990 --     3 C    0.951
    26   1 H    0.991 --     3 C    0.951
    27   1 H    0.998 --     7 C    0.970
    28   1 H    0.996 --     8 C    0.969
    29   1 H    0.997 --     9 C    0.970
    30   1 H    0.996 --    10 C    0.969
    31   1 H    0.999 --    11 C    0.971
    32   1 H    0.994 --    12 C    0.966
    33   1 H    0.992 --    12 C    0.963
    34   1 H    0.997 --    13 C    0.960
    35   1 H    0.997 --    14 C    0.960
    36   1 H    0.998 --    16 C    0.968
    37   1 H    0.997 --    17 C    0.969
    38   1 H    0.997 --    18 C    0.970
    39   1 H    0.997 --    19 C    0.970
    40   1 H    0.999 --    20 C    0.966
    41   1 H    0.991 --    21 C    0.972
    42   1 H    0.990 --    21 C    0.972
    43   1 H    0.992 --    21 C    0.976
 ---------------------------------------------------------------------------

molecular dipole:
                 x           y           z       tot (Debye)
 q only:        0.617      -1.675       0.499
   full:        0.471      -1.739       0.586       4.815

           -------------------------------------------------
          | TOTAL ENERGY              -56.468284721993 Eh   |
          | GRADIENT NORM               0.000620951824 Eh/α |
          | HOMO-LUMO GAP               3.245337755604 eV   |
           -------------------------------------------------

 * finished run on 2024/12/20 at 06:51:59.135
