   * xtb version 6.7.1 (edcfbbe) compiled by 'conda@3ef47c1a292c' on 2024-11-25

   ID    Z sym.   atoms
    1    6 C      1-9, 11, 13, 14, 16, 17
    2    8 O      10
    3    7 N      12, 15
    4    1 H      18-34

          program call               : xtb C0650.xyz --opt --namespace C0650 --charge +1
          :  Hamiltonian                  GFN2-xTB          :
 * total energy  :   -48.1609362 Eh     change       -0.8769447E-09 Eh
 * total energy  :   -48.1678045 Eh     change       -0.6868222E-02 Eh
 * total energy  :   -48.1695607 Eh     change       -0.1756213E-02 Eh
 * total energy  :   -48.1699049 Eh     change       -0.3442117E-03 Eh
 * total energy  :   -48.1701014 Eh     change       -0.1965445E-03 Eh
 * total energy  :   -48.1702155 Eh     change       -0.1140936E-03 Eh
 * total energy  :   -48.1703063 Eh     change       -0.9073886E-04 Eh
 * total energy  :   -48.1704031 Eh     change       -0.9678103E-04 Eh
 * total energy  :   -48.1704995 Eh     change       -0.9647869E-04 Eh
 * total energy  :   -48.1706049 Eh     change       -0.1053841E-03 Eh
 * total energy  :   -48.1828370 Eh     change       -0.1023799E-04 Eh
 * total energy  :   -48.1828554 Eh     change       -0.1830684E-04 Eh
 * total energy  :   -48.1828709 Eh     change       -0.1553604E-04 Eh
 * total energy  :   -48.1828819 Eh     change       -0.1102714E-04 Eh
 * total energy  :   -48.1828907 Eh     change       -0.8818532E-05 Eh
 * total energy  :   -48.1828982 Eh     change       -0.7432693E-05 Eh
 * total energy  :   -48.1829056 Eh     change       -0.7403285E-05 Eh
 * total energy  :   -48.1829132 Eh     change       -0.7622473E-05 Eh
 * total energy  :   -48.1829177 Eh     change       -0.4472695E-05 Eh
   *** GEOMETRY OPTIMIZATION CONVERGED AFTER 104 ITERATIONS ***

 final structure:
================
34
 xtb: 6.7.1 (edcfbbe)
C           -1.15960184916783       -1.23624169785674        1.24929623775247
C           -0.83152414968879       -0.84441070689947        2.69479650922920
C            0.01916467245616        0.38405401865835        2.71094423720128
C            1.40548233176245        0.28935051797846        2.59883630540239
C            2.18678642760011        1.42121404409884        2.56864094723212
C            1.60421291390664        2.69592136004363        2.64340123342831
C            0.21116438551240        2.79281443354426        2.75689851111915
C           -0.55919773841375        1.65124230944052        2.78935398811510
C            2.49695255361341        3.83962138714266        2.60965675377535
O            3.70707847536964        3.77818481492989        2.60143423051764
C            1.84304811845909        5.25790922868526        2.59865860905107
N            2.86838174688999        6.20567562195764        2.28277016941323
C            2.98030781172881        6.93946518772015        1.13845800662220
C            4.21715441097396        7.50481655973995        1.14023770655465
N            4.84964049714912        7.09659110532857        2.27683928136045
C            4.02032777916326        6.30305793843880        2.94792341257900
C            6.19149228201708        7.44773564277420        2.65445499704741
H           -1.70343072498806       -0.43716121041644        0.75114011546108
H           -1.77352106583853       -2.13222613093966        1.23863741871193
H           -0.24775215846253       -1.43371867045871        0.69086493578685
H           -1.76117366499670       -0.66390088045065        3.23643819654723
H           -0.30265138801357       -1.66852639875591        3.17601966338982
H            1.86883468110723       -0.68398939074849        2.54032626763033
H            3.26086194757380        1.35184258082576        2.48559145071135
H           -0.27562143849545        3.75267976635245        2.83390961339590
H           -1.63178830102588        1.73619383318646        2.88063378082563
H            1.05093182096906        5.31865420392808        1.85331996487626
H            1.42979011886394        5.44728669345411        3.59326523436142
H            2.18989682715450        7.01388990594544        0.42004051844592
H            4.67999099015658        8.15230178725085        0.42386281238406
H            4.23611682526702        5.83728757981471        3.88907677897695
H            6.41919167167683        7.03357402393651        3.63394624618050
H            6.90073747124765        7.04752324867640        1.92829598575831
H            6.30114571836752        8.53211729276209        2.68702988016326

          :  Hamiltonian                  GFN2-xTB          :
         :: total energy             -48.182917665101 Eh    ::
         :: gradient norm              0.000473230434 Eh/a0 ::
         :: HOMO-LUMO gap              2.888104309124 eV    ::
         :: SCC energy               -48.946837188895 Eh    ::
         :: -> dispersion             -0.029859251339 Eh    ::
         :: repulsion energy           0.763919523794 Eh    ::

    * Orbital Energies and Occupations

         #    Occupation            Energy/Eh            Energy/eV
      -------------------------------------------------------------
         1        2.0000           -0.8813137             -23.9818
       ...           ...                  ...                  ...
        32        2.0000           -0.5942519             -16.1704
        33        2.0000           -0.5909855             -16.0815
        34        2.0000           -0.5885439             -16.0151
        35        2.0000           -0.5749529             -15.6453
        36        2.0000           -0.5734639             -15.6047
        37        2.0000           -0.5672656             -15.4361
        38        2.0000           -0.5540155             -15.0755
        39        2.0000           -0.5356801             -14.5766
        40        2.0000           -0.5303164             -14.4306
        41        2.0000           -0.5212542             -14.1840
        42        2.0000           -0.5198930             -14.1470
        43        2.0000           -0.5167744             -14.0621
        44        2.0000           -0.5100930             -13.8803 (HOMO)
        45                         -0.4039572             -10.9922 (LUMO)
        46                         -0.3905391             -10.6271
        47                         -0.3586105              -9.7583
        48                         -0.3341847              -9.0936
        49                         -0.3066600              -8.3446
        50                         -0.1994180              -5.4264
        51                         -0.1672434              -4.5509
        52                         -0.1174126              -3.1950
        53                         -0.0816786              -2.2226
        54                         -0.0405632              -1.1038
        55                         -0.0366341              -0.9969
       ...                                ...                  ...
        85                          0.5503192              14.9749
      -------------------------------------------------------------
                  HL-Gap            0.1061359 Eh            2.8881 eV

     #   Z          covCN         q      C6AA      α(0)
     1   6 C        3.754    -0.102    22.513     6.766
     2   6 C        3.807    -0.064    21.723     6.635
     3   6 C        2.971     0.043    27.022     8.527
     4   6 C        2.920    -0.029    28.715     8.787
     5   6 C        2.925    -0.011    28.296     8.723
     6   6 C        2.970    -0.023    28.576     8.769
     7   6 C        2.917    -0.029    28.714     8.787
     8   6 C        2.922    -0.030    28.741     8.792
     9   6 C        2.823     0.225    23.274     7.905
    10   8 O        0.857    -0.366    21.005     6.145
    11   6 C        3.743    -0.050    21.549     6.622
    12   7 N        2.872     0.071    19.997     6.642
    13   6 C        3.066    -0.008    28.151     8.700
    14   6 C        3.070    -0.009    28.167     8.702
    15   7 N        2.867     0.077    19.906     6.626
    16   6 C        3.094     0.059    26.569     8.448
    17   6 C        3.692    -0.085    22.313     6.759
    18   1 H        0.925     0.043     2.408     2.427
    19   1 H        0.925     0.057     2.236     2.338
    20   1 H        0.925     0.045     2.385     2.415
    21   1 H        0.924     0.055     2.257     2.349
    22   1 H        0.924     0.057     2.229     2.335
    23   1 H        0.926     0.063     2.163     2.300
    24   1 H        0.926     0.072     2.068     2.249
    25   1 H        0.926     0.040     2.447     2.446
    26   1 H        0.926     0.059     2.213     2.326
    27   1 H        0.925     0.099     1.794     2.095
    28   1 H        0.924     0.099     1.793     2.094
    29   1 H        0.926     0.102     1.764     2.077
    30   1 H        0.926     0.107     1.722     2.052
    31   1 H        0.926     0.122     1.599     1.977
    32   1 H        0.925     0.099     1.790     2.092
    33   1 H        0.924     0.107     1.723     2.053
    34   1 H        0.924     0.103     1.757     2.073

Wiberg/Mayer (AO) data.
largest (>0.10) Wiberg bond orders for each atom

     #   Z sym  total        # sym  WBO       # sym  WBO       # sym  WBO
 ---------------------------------------------------------------------------
     1   6 C    3.987 --    18 H    0.988    20 H    0.988     2 C    0.987
                            19 H    0.983
     2   6 C    3.992 --     3 C    1.027     1 C    0.987    21 H    0.970
                            22 H    0.968
     3   6 C    3.979 --     4 C    1.382     8 C    1.374     2 C    1.027
     4   6 C    3.989 --     5 C    1.486     3 C    1.382    23 H    0.965
     5   6 C    3.984 --     4 C    1.486     6 C    1.331    24 H    0.964
     6   6 C    3.980 --     7 C    1.338     5 C    1.331     9 C    1.101
     7   6 C    3.991 --     8 C    1.491     6 C    1.338    25 H    0.966
     8   6 C    3.990 --     7 C    1.491     3 C    1.374    26 H    0.966
     9   6 C    3.927 --    10 O    1.785     6 C    1.101    11 C    0.914
    10   8 O    2.099 --     9 C    1.785
    11   6 C    3.945 --    12 N    0.997    27 H    0.958    28 H    0.944
                             9 C    0.914
    12   7 N    3.707 --    16 C    1.341    13 C    1.212    11 C    0.997
    13   6 C    3.947 --    14 C    1.602    12 N    1.212    29 H    0.962
    14   6 C    3.949 --    13 C    1.602    15 N    1.219    30 H    0.962
    15   7 N    3.715 --    16 C    1.360    14 C    1.219    17 C    0.991
    16   6 C    3.945 --    15 N    1.360    12 N    1.341    31 H    0.952
    17   6 C    3.935 --    15 N    0.991    32 H    0.976    34 H    0.965
                            33 H    0.961
    18   1 H    0.998 --     1 C    0.988
    19   1 H    0.995 --     1 C    0.983
    20   1 H    0.998 --     1 C    0.988
    21   1 H    0.996 --     2 C    0.970
    22   1 H    0.995 --     2 C    0.968
    23   1 H    0.995 --     4 C    0.965
    24   1 H    0.995 --     5 C    0.964
    25   1 H    0.998 --     7 C    0.966
    26   1 H    0.996 --     8 C    0.966
    27   1 H    0.990 --    11 C    0.958
    28   1 H    0.989 --    11 C    0.944
    29   1 H    0.989 --    13 C    0.962
    30   1 H    0.988 --    14 C    0.962
    31   1 H    0.985 --    16 C    0.952
    32   1 H    0.990 --    17 C    0.976
    33   1 H    0.988 --    17 C    0.961
    34   1 H    0.989 --    17 C    0.965
 ---------------------------------------------------------------------------

molecular dipole:
                 x           y           z       tot (Debye)
 q only:        5.441      10.345       4.396
   full:        5.296      10.468       4.452      31.893

           -------------------------------------------------
          | TOTAL ENERGY              -48.182917665101 Eh   |
          | GRADIENT NORM               0.000473230434 Eh/α |
          | HOMO-LUMO GAP               2.888104309124 eV   |
           -------------------------------------------------

 * finished run on 2024/12/20 at 06:51:46.409
