   * xtb version 6.7.1 (edcfbbe) compiled by 'conda@3ef47c1a292c' on 2024-11-25

   ID    Z sym.   atoms
    1    6 C      1, 3, 4, 6, 8-22
    2    8 O      2
    3    7 N      5, 7
    4    1 H      23-45

          program call               : xtb C0653.xyz --opt --namespace C0653 --charge +1
          :  Hamiltonian                  GFN2-xTB          :
 * total energy  :   -61.9624807 Eh     change       -0.9542305E-09 Eh
 * total energy  :   -61.9684112 Eh     change       -0.5930482E-02 Eh
 * total energy  :   -61.9695428 Eh     change       -0.1131621E-02 Eh
 * total energy  :   -61.9697556 Eh     change       -0.2127458E-03 Eh
 * total energy  :   -61.9699624 Eh     change       -0.2068564E-03 Eh
 * total energy  :   -61.9701209 Eh     change       -0.1584270E-03 Eh
 * total energy  :   -61.9703056 Eh     change       -0.1847075E-03 Eh
 * total energy  :   -61.9705528 Eh     change       -0.2472124E-03 Eh
 * total energy  :   -61.9708377 Eh     change       -0.2848876E-03 Eh
 * total energy  :   -61.9711216 Eh     change       -0.2839312E-03 Eh
 * total energy  :   -61.9807918 Eh     change       -0.2784087E-04 Eh
 * total energy  :   -61.9808362 Eh     change       -0.4436793E-04 Eh
 * total energy  :   -61.9808577 Eh     change       -0.2151205E-04 Eh
 * total energy  :   -61.9809023 Eh     change       -0.4457601E-04 Eh
 * total energy  :   -61.9809181 Eh     change       -0.1583074E-04 Eh
 * total energy  :   -61.9809313 Eh     change       -0.1315065E-04 Eh
 * total energy  :   -61.9809391 Eh     change       -0.7787409E-05 Eh
 * total energy  :   -61.9809485 Eh     change       -0.9488956E-05 Eh
 * total energy  :   -61.9809528 Eh     change       -0.4293165E-05 Eh
   *** GEOMETRY OPTIMIZATION CONVERGED AFTER 102 ITERATIONS ***

 final structure:
================
45
 xtb: 6.7.1 (edcfbbe)
C           -1.40490804630098        0.66621798391939        1.79901832044241
O           -0.32460552444772       -0.21024469739744        2.03548342177678
C            0.93114337605187        0.39856329984251        1.88235241885322
C            2.00566469098567       -0.62567794520935        2.26468052833910
N            1.95774235089730       -1.77293948853815        1.39242511777384
C            2.66892390325445       -1.94643099325342        0.28295134194611
N            2.33329811226428       -3.07407945089223       -0.33694224435636
C            1.34381724068338       -3.68313767532021        0.40783626769937
C            1.09889564900847       -2.84505683038229        1.51162159230573
C            0.15105405902981       -3.18304484759634        2.47141299779357
C           -0.52163098152116       -4.36843775264058        2.29034600281998
C           -0.29045631218789       -5.21571683790113        1.19039859583558
C            0.64129115060626       -4.86851947820112        0.23005405663040
C           -1.06449933853719       -6.48659906707153        1.07817332898884
C            2.99511159410295       -3.62859030641992       -1.49326800065218
C            4.18852451064741       -4.50651324111095       -1.07145089944527
C            3.72840001871273       -5.65391968593555       -0.21395638817665
C            3.26307242041345       -6.82416600062966       -0.80096294414294
C            2.77126472826098       -7.85404986109656       -0.01886295010340
C            2.73368284271204       -7.72181284640881        1.35912059633458
C            3.20579691986924       -6.56422107010313        1.95286798814009
C            3.70142625630201       -5.53666165436988        1.16977762361435
H           -2.30908096712258        0.08254623235889        1.94837239199658
H           -1.38244688776190        1.05378735914637        0.77559127791512
H           -1.38958628053483        1.50700973613756        2.49927115852088
H            1.07460078890362        0.73237494609083        0.84160029228933
H            1.02584297698710        1.27508840679175        2.53974543194477
H            2.99253757001454       -0.16471567896742        2.20181581345973
H            1.82326854366002       -0.96552570179755        3.28574363011876
H            3.42219123092048       -1.26570099002291       -0.06799023639217
H           -0.06005454690319       -2.53566373423620        3.30492266639188
H           -1.26199771552798       -4.66800545764774        3.01592969613723
H            0.82583602321632       -5.51130800332962       -0.61448432031808
H           -0.73978466293683       -7.07207567200571        0.22350223295074
H           -0.93886700259654       -7.08289085209204        1.97972550516763
H           -2.12696849179317       -6.27231658642213        0.97327755604204
H            2.26984286269257       -4.22792217026381       -2.04594868396385
H            3.33787070794397       -2.80901064450839       -2.12847089816062
H            4.66550021132065       -4.87910006797234       -1.97812323528196
H            4.91175242224055       -3.89472417653947       -0.52907406158605
H            3.29426738999465       -6.93160048864277       -1.87585592853155
H            2.42002278797169       -8.76177906681125       -0.48522039540692
H            2.34973876118944       -8.52471585646743        1.96884059931513
H            3.19318040940785       -6.46202932968765        3.02718559150848
H            4.08366424788383       -4.64091375640306        1.64116714349250

          :  Hamiltonian                  GFN2-xTB          :
         :: total energy             -61.980952833674 Eh    ::
         :: gradient norm              0.000635917875 Eh/a0 ::
         :: HOMO-LUMO gap              2.656526671284 eV    ::
         :: SCC energy               -62.976301938319 Eh    ::
         :: -> dispersion             -0.049827837527 Eh    ::
         :: repulsion energy           0.995349104644 Eh    ::

    * Orbital Energies and Occupations

         #    Occupation            Energy/Eh            Energy/eV
      -------------------------------------------------------------
         1        2.0000           -0.8685131             -23.6334
       ...           ...                  ...                  ...
        45        2.0000           -0.5717614             -15.5584
        46        2.0000           -0.5709291             -15.5358
        47        2.0000           -0.5697965             -15.5050
        48        2.0000           -0.5668412             -15.4245
        49        2.0000           -0.5641344             -15.3509
        50        2.0000           -0.5537698             -15.0688
        51        2.0000           -0.5338970             -14.5281
        52        2.0000           -0.5244573             -14.2712
        53        2.0000           -0.5222821             -14.2120
        54        2.0000           -0.5207984             -14.1716
        55        2.0000           -0.5160721             -14.0430
        56        2.0000           -0.5039427             -13.7130
        57        2.0000           -0.5000099             -13.6060 (HOMO)
        58                         -0.4023843             -10.9494 (LUMO)
        59                         -0.3491281              -9.5003
        60                         -0.3409508              -9.2777
        61                         -0.3245884              -8.8325
        62                         -0.3223959              -8.7728
        63                         -0.2244008              -6.1063
        64                         -0.1954937              -5.3197
        65                         -0.1675063              -4.5581
        66                         -0.1218276              -3.3151
        67                         -0.0907589              -2.4697
        68                         -0.0595063              -1.6192
       ...                                ...                  ...
       111                          0.5644488              15.3594
      -------------------------------------------------------------
                  HL-Gap            0.0976256 Eh            2.6565 eV

     #   Z          covCN         q      C6AA      α(0)
     1   6 C        3.653     0.030    20.373     6.482
     2   8 O        1.701    -0.312    19.212     5.918
     3   6 C        3.704     0.079    19.411     6.299
     4   6 C        3.741    -0.023    21.062     6.548
     5   7 N        2.828     0.041    20.532     6.730
     6   6 C        3.073     0.060    26.589     8.455
     7   7 N        2.828     0.035    20.631     6.746
     8   6 C        3.116     0.040    26.936     8.501
     9   6 C        3.123     0.041    26.912     8.495
    10   6 C        2.907    -0.030    28.745     8.791
    11   6 C        2.932    -0.030    28.758     8.795
    12   6 C        2.970     0.037    27.168     8.550
    13   6 C        2.914    -0.046    29.141     8.852
    14   6 C        3.760    -0.124    22.930     6.827
    15   6 C        3.743    -0.016    20.940     6.528
    16   6 C        3.808    -0.072    21.875     6.658
    17   6 C        2.971     0.005    27.905     8.665
    18   6 C        2.924    -0.038    28.955     8.824
    19   6 C        2.919    -0.026    28.658     8.779
    20   6 C        2.921    -0.027    28.677     8.782
    21   6 C        2.919    -0.029    28.729     8.789
    22   6 C        2.924    -0.040    28.998     8.831
    23   1 H        0.925     0.074     2.041     2.234
    24   1 H        0.924     0.040     2.455     2.450
    25   1 H        0.924     0.046     2.371     2.408
    26   1 H        0.923     0.036     2.502     2.474
    27   1 H        0.923     0.055     2.254     2.348
    28   1 H        0.924     0.081     1.967     2.193
    29   1 H        0.924     0.102     1.766     2.078
    30   1 H        0.926     0.098     1.799     2.097
    31   1 H        0.926     0.081     1.971     2.196
    32   1 H        0.926     0.077     2.015     2.220
    33   1 H        0.926     0.065     2.140     2.288
    34   1 H        0.925     0.062     2.176     2.307
    35   1 H        0.925     0.074     2.040     2.234
    36   1 H        0.925     0.077     2.007     2.215
    37   1 H        0.924     0.086     1.917     2.165
    38   1 H        0.924     0.075     2.030     2.228
    39   1 H        0.925     0.073     2.048     2.238
    40   1 H        0.924     0.053     2.286     2.364
    41   1 H        0.926     0.039     2.458     2.452
    42   1 H        0.926     0.048     2.345     2.395
    43   1 H        0.926     0.047     2.353     2.399
    44   1 H        0.926     0.040     2.451     2.448
    45   1 H        0.925     0.018     2.762     2.599

Wiberg/Mayer (AO) data.
largest (>0.10) Wiberg bond orders for each atom

     #   Z sym  total        # sym  WBO       # sym  WBO       # sym  WBO
 ---------------------------------------------------------------------------
     1   6 C    3.938 --     2 O    0.981    24 H    0.978    23 H    0.978
                            25 H    0.978
     2   8 O    2.070 --     3 C    0.999     1 C    0.981
     3   6 C    3.960 --     2 O    0.999     4 C    0.983    26 H    0.964
                            27 H    0.960
     4   6 C    3.951 --     3 C    0.983     5 N    0.981    28 H    0.967
                            29 H    0.960
     5   7 N    3.686 --     6 C    1.364     9 C    1.128     4 C    0.981
                             7 N    0.106
     6   6 C    3.950 --     5 N    1.364     7 N    1.363    30 H    0.955
     7   7 N    3.680 --     6 C    1.363     8 C    1.127    15 C    0.974
                             5 N    0.106
     8   6 C    3.952 --    13 C    1.335     9 C    1.274     7 N    1.127
     9   6 C    3.950 --    10 C    1.323     8 C    1.274     5 N    1.128
    10   6 C    3.984 --    11 C    1.519     9 C    1.323    31 H    0.961
                            13 C    0.111
    11   6 C    3.987 --    10 C    1.519    12 C    1.329    32 H    0.965
    12   6 C    3.985 --    13 C    1.465    11 C    1.329    14 C    1.038
    13   6 C    3.984 --    12 C    1.465     8 C    1.335    33 H    0.960
                            10 C    0.111
    14   6 C    3.989 --    12 C    1.038    34 H    0.983    35 H    0.964
                            36 H    0.960
    15   6 C    3.944 --     7 N    0.974    16 C    0.969    38 H    0.966
                            37 H    0.964
    16   6 C    3.984 --    17 C    1.009    40 H    0.973    15 C    0.969
                            39 H    0.964
    17   6 C    3.988 --    22 C    1.415    18 C    1.411    16 C    1.009
                            20 C    0.110
    18   6 C    3.991 --    19 C    1.446    17 C    1.411    41 H    0.969
                            21 C    0.111
    19   6 C    3.991 --    18 C    1.446    20 C    1.437    42 H    0.970
                            22 C    0.111
    20   6 C    3.990 --    21 C    1.441    19 C    1.437    43 H    0.970
                            17 C    0.110
    21   6 C    3.992 --    22 C    1.442    20 C    1.441    44 H    0.971
                            18 C    0.111
    22   6 C    3.992 --    21 C    1.442    17 C    1.415    45 H    0.970
                            19 C    0.111
    23   1 H    0.994 --     1 C    0.978
    24   1 H    0.998 --     1 C    0.978
    25   1 H    0.998 --     1 C    0.978
    26   1 H    0.999 --     3 C    0.964
    27   1 H    0.996 --     3 C    0.960
    28   1 H    0.992 --     4 C    0.967
    29   1 H    0.989 --     4 C    0.960
    30   1 H    0.989 --     6 C    0.955
    31   1 H    0.993 --    10 C    0.961
    32   1 H    0.994 --    11 C    0.965
    33   1 H    0.995 --    13 C    0.960
    34   1 H    0.996 --    14 C    0.983
    35   1 H    0.992 --    14 C    0.964
    36   1 H    0.991 --    14 C    0.960
    37   1 H    0.992 --    15 C    0.964
    38   1 H    0.993 --    15 C    0.966
    39   1 H    0.993 --    16 C    0.964
    40   1 H    0.997 --    16 C    0.973
    41   1 H    0.998 --    18 C    0.969
    42   1 H    0.997 --    19 C    0.970
    43   1 H    0.997 --    20 C    0.970
    44   1 H    0.998 --    21 C    0.971
    45   1 H    1.000 --    22 C    0.970
 ---------------------------------------------------------------------------

molecular dipole:
                 x           y           z       tot (Debye)
 q only:        3.047      -5.453       1.323
   full:        3.288      -5.031       1.200      15.578

           -------------------------------------------------
          | TOTAL ENERGY              -61.980952833674 Eh   |
          | GRADIENT NORM               0.000635917875 Eh/α |
          | HOMO-LUMO GAP               2.656526671284 eV   |
           -------------------------------------------------

 * finished run on 2024/12/20 at 06:51:50.527
