   * xtb version 6.7.1 (edcfbbe) compiled by 'conda@3ef47c1a292c' on 2024-11-25

   ID    Z sym.   atoms
    1    6 C      1-3, 5, 7-9, 11, 12
    2    7 N      4, 6, 10
    3    1 H      13-32

          program call               : xtb C0656.xyz --opt --namespace C0656 --charge +1
          :  Hamiltonian                  GFN2-xTB          :
 * total energy  :   -37.8838190 Eh     change       -0.3696954E-10 Eh
 * total energy  :   -37.8925880 Eh     change       -0.8769018E-02 Eh
 * total energy  :   -37.8938607 Eh     change       -0.1272632E-02 Eh
 * total energy  :   -37.8939767 Eh     change       -0.1160187E-03 Eh
 * total energy  :   -37.8942068 Eh     change       -0.2301590E-03 Eh
 * total energy  :   -37.8943204 Eh     change       -0.1135110E-03 Eh
 * total energy  :   -37.8944329 Eh     change       -0.1125946E-03 Eh
 * total energy  :   -37.8944996 Eh     change       -0.6669339E-04 Eh
 * total energy  :   -37.8945366 Eh     change       -0.3693507E-04 Eh
 * total energy  :   -37.8945788 Eh     change       -0.4223581E-04 Eh
 * total energy  :   -37.8946137 Eh     change       -0.3487608E-04 Eh
 * total energy  :   -37.8946276 Eh     change       -0.1392925E-04 Eh
 * total energy  :   -37.8946427 Eh     change       -0.1511519E-04 Eh
 * total energy  :   -37.8946509 Eh     change       -0.8147582E-05 Eh
 * total energy  :   -37.8946587 Eh     change       -0.7850245E-05 Eh
 * total energy  :   -37.8946638 Eh     change       -0.5114871E-05 Eh
 * total energy  :   -37.8946615 Eh     change        0.2311857E-05 Eh
 * total energy  :   -37.8946664 Eh     change       -0.4851847E-05 Eh
   *** GEOMETRY OPTIMIZATION CONVERGED AFTER 18 ITERATIONS ***

 final structure:
================
32
 xtb: 6.7.1 (edcfbbe)
C           -0.06778961227650        0.31697648904665       -0.08313262821540
C            0.34477853146813        1.01102037055270        1.20936534259918
C            1.46872102093011        2.02628114993901        0.99355234070784
N            1.06838858931177        3.12467594932438        0.11490071927081
C           -0.04244951461667        3.83951479890834        0.31495189073409
N           -0.52331772558341        4.18369270683178        1.52035566830758
C            0.17776385002773        4.17061477084469        2.78143706768020
C           -1.76718251358574        4.93000726483088        1.39099787364861
C           -1.89587128841292        5.14264402843216       -0.12007240321014
N           -0.82283757109717        4.32418952687977       -0.66362596311778
C           -0.87410585771891        3.93876735903353       -2.05172825428584
C            1.92700111950856        3.35159488458174       -1.03451735415690
H           -0.48169130251458        1.02609257210000       -0.79696834247344
H           -0.82658587133276       -0.43251710023513        0.12172548458398
H            0.78359816111421       -0.18157448461261       -0.53982147452817
H           -0.52555197200572        1.49575173670712        1.65539508448560
H            0.70716030438075        0.26448158348998        1.91712463200975
H            1.83615677277356        2.39520152490590        1.95304195550485
H            2.29905777214712        1.52422477917340        0.49592223855104
H           -0.29372313230993        4.89332228510485        3.44382657072750
H            0.12741085175638        3.19153697937030        3.26163527813816
H            1.21933269945961        4.46125894829283        2.64747474261860
H           -1.69944728053323        5.87414548296079        1.93460636893623
H           -2.59800440250755        4.35076938921032        1.80637953150137
H           -1.75713114804619        6.18836796453830       -0.41265004815993
H           -2.85961174948973        4.80404534047604       -0.50572702016276
H           -0.33871355514065        3.00870455546883       -2.21637100793762
H           -1.91655072534851        3.78699002160257       -2.33548485508810
H           -0.45913455622973        4.71790160860215       -2.69491434510392
H            2.95237239755419        3.46419207089937       -0.67735401472530
H            1.90059250489340        2.51526494891109       -1.73488641458066
H            1.65020520342402        4.26815049382817       -1.54568866426004

          :  Hamiltonian                  GFN2-xTB          :
         :: total energy             -37.894666382854 Eh    ::
         :: gradient norm              0.000507828139 Eh/a0 ::
         :: HOMO-LUMO gap              4.163120608872 eV    ::
         :: SCC energy               -38.416319910870 Eh    ::
         :: -> dispersion             -0.026091682781 Eh    ::
         :: repulsion energy           0.521653528016 Eh    ::

    * Orbital Energies and Occupations

         #    Occupation            Energy/Eh            Energy/eV
      -------------------------------------------------------------
         1        2.0000           -0.8611536             -23.4332
       ...           ...                  ...                  ...
        23        2.0000           -0.6329673             -17.2239
        24        2.0000           -0.6268298             -17.0569
        25        2.0000           -0.6218749             -16.9221
        26        2.0000           -0.6192370             -16.8503
        27        2.0000           -0.6158338             -16.7577
        28        2.0000           -0.6087670             -16.5654
        29        2.0000           -0.6040836             -16.4380
        30        2.0000           -0.6018116             -16.3761
        31        2.0000           -0.5772869             -15.7088
        32        2.0000           -0.5655382             -15.3891
        33        2.0000           -0.5587090             -15.2032
        34        2.0000           -0.5277945             -14.3620
        35        2.0000           -0.5260494             -14.3145 (HOMO)
        36                         -0.3730576             -10.1514 (LUMO)
        37                         -0.2045292              -5.5655
        38                         -0.1494708              -4.0673
        39                         -0.1293151              -3.5188
        40                         -0.1085159              -2.9529
        41                         -0.0985532              -2.6818
        42                         -0.0478766              -1.3028
        43                         -0.0378084              -1.0288
        44                         -0.0286081              -0.7785
        45                         -0.0220992              -0.6013
        46                         -0.0104067              -0.2832
       ...                                ...                  ...
        68                          0.3852100              10.4821
      -------------------------------------------------------------
                  HL-Gap            0.1529919 Eh            4.1631 eV

     #   Z          covCN         q      C6AA      α(0)
     1   6 C        3.752    -0.111    22.683     6.792
     2   6 C        3.800    -0.066    21.759     6.641
     3   6 C        3.747    -0.023    21.045     6.543
     4   7 N        2.733    -0.066    22.529     7.049
     5   6 C        2.857     0.193    23.884     8.010
     6   7 N        2.780    -0.058    22.358     7.023
     7   6 C        3.689    -0.067    21.976     6.709
     8   6 C        3.799    -0.018    20.905     6.510
     9   6 C        3.799    -0.018    20.906     6.510
    10   7 N        2.781    -0.060    22.391     7.028
    11   6 C        3.689    -0.066    21.973     6.709
    12   6 C        3.698    -0.067    21.949     6.701
    13   1 H        0.925     0.031     2.578     2.511
    14   1 H        0.925     0.058     2.228     2.334
    15   1 H        0.925     0.050     2.317     2.381
    16   1 H        0.924     0.039     2.461     2.453
    17   1 H        0.924     0.063     2.167     2.302
    18   1 H        0.924     0.062     2.178     2.308
    19   1 H        0.924     0.082     1.960     2.189
    20   1 H        0.925     0.088     1.898     2.155
    21   1 H        0.924     0.081     1.970     2.195
    22   1 H        0.925     0.075     2.030     2.228
    23   1 H        0.924     0.083     1.947     2.182
    24   1 H        0.924     0.080     1.974     2.197
    25   1 H        0.924     0.080     1.984     2.203
    26   1 H        0.924     0.083     1.946     2.181
    27   1 H        0.925     0.082     1.954     2.186
    28   1 H        0.924     0.083     1.949     2.183
    29   1 H        0.924     0.077     2.011     2.218
    30   1 H        0.924     0.080     1.974     2.197
    31   1 H        0.924     0.074     2.042     2.235
    32   1 H        0.925     0.075     2.031     2.229

Wiberg/Mayer (AO) data.
largest (>0.10) Wiberg bond orders for each atom

     #   Z sym  total        # sym  WBO       # sym  WBO       # sym  WBO
 ---------------------------------------------------------------------------
     1   6 C    3.993 --     2 C    1.021    15 H    0.986    13 H    0.986
                            14 H    0.984
     2   6 C    3.992 --     1 C    1.021     3 C    1.001    16 H    0.974
                            17 H    0.971
     3   6 C    3.952 --     2 C    1.001    19 H    0.967    18 H    0.962
                             4 N    0.961
     4   7 N    3.478 --     5 C    1.276    12 C    0.986     3 C    0.961
     5   6 C    3.975 --     4 N    1.276    10 N    1.274     6 N    1.273
     6   7 N    3.511 --     5 C    1.273     7 C    0.993     8 C    0.978
                            10 N    0.105
     7   6 C    3.951 --     6 N    0.993    22 H    0.974    20 H    0.974
                            21 H    0.966
     8   6 C    3.962 --     9 C    1.003     6 N    0.978    23 H    0.966
                            24 H    0.966
     9   6 C    3.963 --     8 C    1.003    10 N    0.979    25 H    0.966
                            26 H    0.966
    10   7 N    3.513 --     5 C    1.274    11 C    0.994     9 C    0.979
                             6 N    0.105
    11   6 C    3.950 --    10 N    0.994    27 H    0.972    28 H    0.970
                            29 H    0.970
    12   6 C    3.954 --     4 N    0.986    32 H    0.978    31 H    0.973
                            30 H    0.971
    13   1 H    0.999 --     1 C    0.986
    14   1 H    0.997 --     1 C    0.984
    15   1 H    0.997 --     1 C    0.986
    16   1 H    0.998 --     2 C    0.974
    17   1 H    0.996 --     2 C    0.971
    18   1 H    0.996 --     3 C    0.962
    19   1 H    0.993 --     3 C    0.967
    20   1 H    0.992 --     7 C    0.974
    21   1 H    0.993 --     7 C    0.966
    22   1 H    0.994 --     7 C    0.974
    23   1 H    0.992 --     8 C    0.966
    24   1 H    0.993 --     8 C    0.966
    25   1 H    0.993 --     9 C    0.966
    26   1 H    0.992 --     9 C    0.966
    27   1 H    0.993 --    11 C    0.972
    28   1 H    0.993 --    11 C    0.970
    29   1 H    0.993 --    11 C    0.970
    30   1 H    0.993 --    12 C    0.971
    31   1 H    0.994 --    12 C    0.973
    32   1 H    0.994 --    12 C    0.978
 ---------------------------------------------------------------------------

molecular dipole:
                 x           y           z       tot (Debye)
 q only:       -0.251       7.087       0.615
   full:       -0.242       7.149       0.611      18.247

           -------------------------------------------------
          | TOTAL ENERGY              -37.894666382854 Eh   |
          | GRADIENT NORM               0.000507828139 Eh/α |
          | HOMO-LUMO GAP               4.163120608872 eV   |
           -------------------------------------------------

 * finished run on 2024/12/20 at 06:51:55.782
