   * xtb version 6.7.1 (edcfbbe) compiled by 'conda@3ef47c1a292c' on 2024-11-25

   ID    Z sym.   atoms
    1    6 C      1, 3, 5-7, 9
    2    7 N      2, 4, 8
    3    1 H      10-23

          program call               : xtb C0651.xyz --opt --namespace C0651 --charge +1
          :  Hamiltonian                  GFN2-xTB          :
 * total energy  :   -28.3912289 Eh     change       -0.6285816E-10 Eh
 * total energy  :   -28.3968703 Eh     change       -0.5641336E-02 Eh
 * total energy  :   -28.3975015 Eh     change       -0.6312346E-03 Eh
 * total energy  :   -28.3975502 Eh     change       -0.4868698E-04 Eh
 * total energy  :   -28.3975805 Eh     change       -0.3027255E-04 Eh
 * total energy  :   -28.3975927 Eh     change       -0.1227696E-04 Eh
 * total energy  :   -28.3976095 Eh     change       -0.1673776E-04 Eh
 * total energy  :   -28.3976519 Eh     change       -0.4238734E-04 Eh
 * total energy  :   -28.3977013 Eh     change       -0.4948756E-04 Eh
 * total energy  :   -28.3977830 Eh     change       -0.8164161E-04 Eh
 * total energy  :   -28.3980018 Eh     change       -0.1525061E-04 Eh
 * total energy  :   -28.3980329 Eh     change       -0.3105661E-04 Eh
 * total energy  :   -28.3980544 Eh     change       -0.2148871E-04 Eh
 * total energy  :   -28.3980709 Eh     change       -0.1655380E-04 Eh
 * total energy  :   -28.3980854 Eh     change       -0.1447683E-04 Eh
 * total energy  :   -28.3980924 Eh     change       -0.7024253E-05 Eh
 * total energy  :   -28.3981009 Eh     change       -0.8427711E-05 Eh
 * total energy  :   -28.3981069 Eh     change       -0.6012900E-05 Eh
 * total energy  :   -28.3981107 Eh     change       -0.3810464E-05 Eh
   *** GEOMETRY OPTIMIZATION CONVERGED AFTER 22 ITERATIONS ***

 final structure:
================
23
 xtb: 6.7.1 (edcfbbe)
C            0.67307653800430       -0.01776326398406        0.30349682003053
N            0.19964697186303        1.31196725747176        0.63395519796524
C           -0.39960438514578        2.21509173072292       -0.13781398084583
N           -0.72509026062116        2.12439943711608       -1.42929200191219
C           -0.47038321771793        1.07673435277378       -2.38832192936174
C           -1.27814743551504        3.38594066067284       -1.90898046376495
C           -1.38950793972244        4.24088278040772       -0.64182842066768
N           -0.75457358039148        3.40612912086181        0.36355499360759
C           -0.61984594428313        3.82680946779586        1.73538163959061
H            1.23002362368516       -0.01562920514264       -0.62972360744794
H           -0.14929305300187       -0.73307470013518        0.24159032664874
H            1.34384534771291       -0.34089086376788        1.09552895118153
H            0.26330960168989        1.55923262284064        1.60991471540244
H           -1.14841944389538        1.22059447467128       -3.22763884109182
H            0.55329829801533        1.11898005472492       -2.76754245243302
H           -0.66662395748678        0.09673274600236       -1.96310964445140
H           -2.24791294446286        3.20967955102516       -2.38022402382981
H           -0.60771246617533        3.82892555027439       -2.65176266768946
H           -2.42898832083591        4.44261641682461       -0.36566800164585
H           -0.86236544935544        5.19390998071998       -0.73204092649989
H            0.42850867087946        3.84600547766946        2.04152663710807
H           -1.01514669144687        4.83533027046204        1.82351650554892
H           -1.18778396179274        3.18064607999205        2.40935117455791

          :  Hamiltonian                  GFN2-xTB          :
         :: total energy             -28.398110683108 Eh    ::
         :: gradient norm              0.000313654683 Eh/a0 ::
         :: HOMO-LUMO gap              4.519952200807 eV    ::
         :: SCC energy               -28.785303347465 Eh    ::
         :: -> dispersion             -0.015460852996 Eh    ::
         :: repulsion energy           0.387192664357 Eh    ::

    * Orbital Energies and Occupations

         #    Occupation            Energy/Eh            Energy/eV
      -------------------------------------------------------------
         1        2.0000           -0.8714743             -23.7140
       ...           ...                  ...                  ...
        14        2.0000           -0.6799708             -18.5029
        15        2.0000           -0.6765438             -18.4097
        16        2.0000           -0.6679909             -18.1770
        17        2.0000           -0.6629632             -18.0401
        18        2.0000           -0.6513978             -17.7254
        19        2.0000           -0.6478792             -17.6297
        20        2.0000           -0.6291868             -17.1210
        21        2.0000           -0.6276198             -17.0784
        22        2.0000           -0.6243619             -16.9898
        23        2.0000           -0.6195351             -16.8584
        24        2.0000           -0.6073126             -16.5258
        25        2.0000           -0.5513741             -15.0037
        26        2.0000           -0.5306281             -14.4391 (HOMO)
        27                         -0.3645230              -9.9192 (LUMO)
        28                         -0.2123856              -5.7793
        29                         -0.1478171              -4.0223
        30                         -0.1373100              -3.7364
        31                         -0.1106429              -3.0107
        32                         -0.1020503              -2.7769
        33                         -0.0503709              -1.3707
        34                         -0.0198660              -0.5406
        35                         -0.0176373              -0.4799
        36                         -0.0153592              -0.4179
        37                          0.0069487               0.1891
       ...                                ...                  ...
        50                          0.3935973              10.7103
      -------------------------------------------------------------
                  HL-Gap            0.1661052 Eh            4.5200 eV

     #   Z          covCN         q      C6AA      α(0)
     1   6 C        3.685    -0.065    21.962     6.710
     2   7 N        2.689    -0.136    23.957     7.269
     3   6 C        2.846     0.196    23.822     7.999
     4   7 N        2.779    -0.050    22.196     6.997
     5   6 C        3.689    -0.071    22.066     6.723
     6   6 C        3.806    -0.021    20.951     6.516
     7   6 C        3.793    -0.019    20.919     6.513
     8   7 N        2.790    -0.064    22.477     7.041
     9   6 C        3.689    -0.072    22.080     6.725
    10   1 H        0.925     0.086     1.920     2.167
    11   1 H        0.924     0.077     2.005     2.215
    12   1 H        0.925     0.091     1.874     2.141
    13   1 H        0.860     0.208     1.066     1.617
    14   1 H        0.925     0.090     1.875     2.141
    15   1 H        0.924     0.076     2.024     2.225
    16   1 H        0.925     0.086     1.917     2.165
    17   1 H        0.924     0.087     1.911     2.162
    18   1 H        0.924     0.084     1.942     2.180
    19   1 H        0.924     0.083     1.945     2.181
    20   1 H        0.924     0.086     1.918     2.166
    21   1 H        0.924     0.077     2.009     2.217
    22   1 H        0.925     0.097     1.811     2.104
    23   1 H        0.924     0.074     2.038     2.233

Wiberg/Mayer (AO) data.
largest (>0.10) Wiberg bond orders for each atom

     #   Z sym  total        # sym  WBO       # sym  WBO       # sym  WBO
 ---------------------------------------------------------------------------
     1   6 C    3.943 --     2 N    0.992    12 H    0.979    10 H    0.974
                            11 H    0.971
     2   7 N    3.459 --     3 C    1.298     1 C    0.992    13 H    0.922
     3   6 C    3.977 --     2 N    1.298     4 N    1.287     8 N    1.268
     4   7 N    3.510 --     3 C    1.287     5 C    0.991     6 C    0.975
     5   6 C    3.947 --     4 N    0.991    14 H    0.975    16 H    0.972
                            15 H    0.970
     6   6 C    3.961 --     7 C    1.003     4 N    0.975    17 H    0.967
                            18 H    0.966
     7   6 C    3.960 --     6 C    1.003     8 N    0.978    20 H    0.967
                            19 H    0.966
     8   7 N    3.497 --     3 C    1.268     9 C    0.995     7 C    0.978
     9   6 C    3.952 --     8 N    0.995    22 H    0.975    21 H    0.971
                            23 H    0.970
    10   1 H    0.992 --     1 C    0.974
    11   1 H    0.994 --     1 C    0.971
    12   1 H    0.991 --     1 C    0.979
    13   1 H    0.957 --     2 N    0.922
    14   1 H    0.991 --     5 C    0.975
    15   1 H    0.994 --     5 C    0.970
    16   1 H    0.992 --     5 C    0.972
    17   1 H    0.992 --     6 C    0.967
    18   1 H    0.993 --     6 C    0.966
    19   1 H    0.993 --     7 C    0.966
    20   1 H    0.992 --     7 C    0.967
    21   1 H    0.994 --     9 C    0.971
    22   1 H    0.990 --     9 C    0.975
    23   1 H    0.994 --     9 C    0.970
 ---------------------------------------------------------------------------

molecular dipole:
                 x           y           z       tot (Debye)
 q only:       -0.867       4.321      -0.505
   full:       -0.858       4.338      -0.380      11.282

           -------------------------------------------------
          | TOTAL ENERGY              -28.398110683108 Eh   |
          | GRADIENT NORM               0.000313654683 Eh/α |
          | HOMO-LUMO GAP               4.519952200807 eV   |
           -------------------------------------------------

 * finished run on 2024/12/20 at 06:51:46.748
