   * xtb version 6.7.1 (edcfbbe) compiled by 'conda@3ef47c1a292c' on 2024-11-25

   ID    Z sym.   atoms
    1    6 C      1-10, 12, 13, 15-19
    2    7 N      11, 14
    3    1 H      20-50

          program call               : xtb C0654.xyz --opt --namespace C0654 --charge +1
          :  Hamiltonian                  GFN2-xTB          :
 * total energy  :   -57.6874859 Eh     change       -0.2564754E-08 Eh
 * total energy  :   -57.6926622 Eh     change       -0.5176310E-02 Eh
 * total energy  :   -57.6935825 Eh     change       -0.9202536E-03 Eh
 * total energy  :   -57.6937509 Eh     change       -0.1684635E-03 Eh
 * total energy  :   -57.6938723 Eh     change       -0.1214093E-03 Eh
 * total energy  :   -57.6939236 Eh     change       -0.5121537E-04 Eh
 * total energy  :   -57.6939734 Eh     change       -0.4982370E-04 Eh
 * total energy  :   -57.6940406 Eh     change       -0.6721849E-04 Eh
 * total energy  :   -57.6940761 Eh     change       -0.3545172E-04 Eh
 * total energy  :   -57.6941052 Eh     change       -0.2915986E-04 Eh
 * total energy  :   -57.6945352 Eh     change       -0.1068105E-04 Eh
 * total energy  :   -57.6945494 Eh     change       -0.1414330E-04 Eh
 * total energy  :   -57.6945586 Eh     change       -0.9295436E-05 Eh
 * total energy  :   -57.6945634 Eh     change       -0.4762699E-05 Eh
 * total energy  :   -57.6945723 Eh     change       -0.8853401E-05 Eh
 * total energy  :   -57.6945777 Eh     change       -0.5407329E-05 Eh
 * total energy  :   -57.6945857 Eh     change       -0.8012925E-05 Eh
 * total energy  :   -57.6945918 Eh     change       -0.6143695E-05 Eh
 * total energy  :   -57.6945947 Eh     change       -0.2856317E-05 Eh
   *** GEOMETRY OPTIMIZATION CONVERGED AFTER 36 ITERATIONS ***

 final structure:
================
50
 xtb: 6.7.1 (edcfbbe)
C            1.09087036523905       -0.08152596607988       -0.24330180829888
C            0.68901953367751       -0.89834557987987        0.97880970674544
C            1.12959878876260       -0.26565216450825        2.29988484200744
C            0.53065325674918        1.11306982664912        2.58724648542388
C           -0.99789781776611        1.15708959891604        2.63704270862002
C           -1.63642620381742        0.24220406833602        3.68367465232870
C           -1.20191048347580        0.50480412750686        5.12799124039238
C           -1.45339437986726        1.92936614847085        5.62932018460383
C           -2.91753264727459        2.36938999580529        5.61031839892571
C           -3.80052499310356        1.63812457332777        6.62808355471085
N           -3.43737406170315        1.99244115656063        7.98307713210712
C           -3.69481877267130        3.21932667786924        8.52712052065440
C           -3.15327033630783        3.23535546757972        9.77062389611494
N           -2.56553656443271        2.02012160384992        9.96999191542019
C           -2.75369923515436        1.26835236592758        8.87638119251676
C           -2.28805878417873       -0.12574427246373        8.73024209383000
C           -1.89471279312590        1.60562931370440       11.18638405022365
C           -2.76829508582154        0.69816275794122       12.01189575270162
C           -2.36235567712606       -0.45166852906428       12.51459593049925
H            0.56978203363919        0.87205886364141       -0.26994306810069
H            0.84631946054321       -0.62369325011292       -1.15342408965889
H            2.16149187905998        0.11004920645781       -0.23753525707846
H           -0.39229881452626       -1.04786833564574        0.97781634768335
H            1.15144923736467       -1.88566823929209        0.90869852719375
H            0.88132303284199       -0.94929275016069        3.11523982481525
H            2.21725290527862       -0.16162467709138        2.28761891562863
H            0.93831795371417        1.47309591149408        3.53511666372390
H            0.86225652451581        1.81013877054714        1.81638501849953
H           -1.30764444513070        2.18975784291596        2.81448038553325
H           -1.39290423569149        0.87376324086748        1.66062045572927
H           -2.72273996363387        0.33197794396940        3.60479908542233
H           -1.38949591364309       -0.79345047833051        3.44624582425451
H           -1.71293780080695       -0.21686032583970        5.77039094680104
H           -0.13298945838839        0.30565501467618        5.21503048460247
H           -1.05653714815768        2.02674078824197        6.64474604080551
H           -0.88928755137723        2.62074439511338        5.00394058986992
H           -2.96889176700850        3.44237730701801        5.80558562195273
H           -3.33642875341962        2.19668798467632        4.62031662229709
H           -4.84468695133996        1.92246024465990        6.47621842044285
H           -3.71044949182474        0.56056995373544        6.49864432506887
H           -4.23996663041157        3.97590912156548        8.00208696056195
H           -3.14195144761639        4.00883479746348       10.51038488148194
H           -2.93583036384019       -0.68342941280681        8.05937693716177
H           -1.27522465398763       -0.15749080884942        8.32620535081930
H           -2.28774370698644       -0.62187381926359        9.69819113691131
H           -0.95495015498586        1.10907871032858       10.93362778935701
H           -1.66675493084097        2.51011406463418       11.75724130777063
H           -3.76805769510784        1.06702418597914       12.19363588196380
H           -3.00638513194096       -1.05676442517005       13.12722339038973
H           -1.36384012489519       -0.82605299587417       12.35716222856878

          :  Hamiltonian                  GFN2-xTB          :
         :: total energy             -57.694594683566 Eh    ::
         :: gradient norm              0.000429655178 Eh/a0 ::
         :: HOMO-LUMO gap              2.456958250482 eV    ::
         :: SCC energy               -58.591426991104 Eh    ::
         :: -> dispersion             -0.042883547534 Eh    ::
         :: repulsion energy           0.896832307538 Eh    ::

    * Orbital Energies and Occupations

         #    Occupation            Energy/Eh            Energy/eV
      -------------------------------------------------------------
         1        2.0000           -0.8813105             -23.9817
       ...           ...                  ...                  ...
        42        2.0000           -0.5578045             -15.1786
        43        2.0000           -0.5521591             -15.0250
        44        2.0000           -0.5477973             -14.9063
        45        2.0000           -0.5457651             -14.8510
        46        2.0000           -0.5373916             -14.6232
        47        2.0000           -0.5319722             -14.4757
        48        2.0000           -0.5246302             -14.2759
        49        2.0000           -0.5128584             -13.9556
        50        2.0000           -0.5071509             -13.8003
        51        2.0000           -0.5031577             -13.6916
        52        2.0000           -0.4865756             -13.2404
        53        2.0000           -0.4827114             -13.1352
        54        2.0000           -0.4795758             -13.0499 (HOMO)
        55                         -0.3892843             -10.5930 (LUMO)
        56                         -0.3575041              -9.7282
        57                         -0.3434417              -9.3455
        58                         -0.1761276              -4.7927
        59                         -0.1223988              -3.3306
        60                         -0.0610500              -1.6613
        61                         -0.0552268              -1.5028
        62                         -0.0508235              -1.3830
        63                         -0.0275992              -0.7510
        64                         -0.0245853              -0.6690
        65                         -0.0217515              -0.5919
       ...                                ...                  ...
       107                          0.4890518              13.3078
      -------------------------------------------------------------
                  HL-Gap            0.0902916 Eh            2.4570 eV

     #   Z          covCN         q      C6AA      α(0)
     1   6 C        3.751    -0.104    22.543     6.771
     2   6 C        3.799    -0.053    21.530     6.607
     3   6 C        3.800    -0.058    21.620     6.620
     4   6 C        3.800    -0.059    21.632     6.622
     5   6 C        3.800    -0.060    21.658     6.626
     6   6 C        3.800    -0.061    21.674     6.629
     7   6 C        3.800    -0.062    21.691     6.631
     8   6 C        3.800    -0.063    21.705     6.633
     9   6 C        3.802    -0.070    21.837     6.653
    10   6 C        3.741    -0.022    21.046     6.545
    11   7 N        2.870     0.042    20.508     6.726
    12   6 C        3.056    -0.010    28.204     8.710
    13   6 C        3.045    -0.009    28.204     8.710
    14   7 N        2.876     0.035    20.629     6.746
    15   6 C        3.100     0.109    25.482     8.272
    16   6 C        3.754    -0.135    23.148     6.860
    17   6 C        3.745    -0.023    21.045     6.544
    18   6 C        2.886    -0.041    29.013     8.831
    19   6 C        2.837    -0.082    30.049     8.983
    20   1 H        0.925     0.034     2.527     2.486
    21   1 H        0.925     0.036     2.499     2.472
    22   1 H        0.925     0.037     2.493     2.469
    23   1 H        0.924     0.029     2.596     2.520
    24   1 H        0.924     0.031     2.573     2.508
    25   1 H        0.924     0.024     2.670     2.555
    26   1 H        0.924     0.033     2.538     2.491
    27   1 H        0.924     0.024     2.679     2.560
    28   1 H        0.924     0.040     2.455     2.450
    29   1 H        0.924     0.026     2.649     2.545
    30   1 H        0.924     0.043     2.414     2.430
    31   1 H        0.924     0.025     2.661     2.551
    32   1 H        0.924     0.044     2.393     2.419
    33   1 H        0.924     0.018     2.761     2.599
    34   1 H        0.924     0.046     2.377     2.411
    35   1 H        0.924     0.017     2.777     2.606
    36   1 H        0.925     0.060     2.198     2.319
    37   1 H        0.924     0.050     2.325     2.385
    38   1 H        0.925     0.076     2.020     2.223
    39   1 H        0.924     0.081     1.973     2.197
    40   1 H        0.925     0.083     1.946     2.182
    41   1 H        0.927     0.100     1.782     2.087
    42   1 H        0.926     0.099     1.792     2.093
    43   1 H        0.925     0.091     1.868     2.137
    44   1 H        0.924     0.103     1.754     2.071
    45   1 H        0.925     0.097     1.816     2.108
    46   1 H        0.924     0.086     1.914     2.164
    47   1 H        0.924     0.093     1.852     2.128
    48   1 H        0.926     0.058     2.222     2.331
    49   1 H        0.926     0.077     2.006     2.215
    50   1 H        0.926     0.064     2.158     2.297

Wiberg/Mayer (AO) data.
largest (>0.10) Wiberg bond orders for each atom

     #   Z sym  total        # sym  WBO       # sym  WBO       # sym  WBO
 ---------------------------------------------------------------------------
     1   6 C    3.997 --     2 C    1.020    22 H    0.987    21 H    0.987
                            20 H    0.986
     2   6 C    3.998 --     1 C    1.020     3 C    1.008    24 H    0.978
                            23 H    0.976
     3   6 C    3.997 --     2 C    1.008     4 C    1.007    26 H    0.977
                            25 H    0.976
     4   6 C    3.997 --     5 C    1.008     3 C    1.007    27 H    0.975
                            28 H    0.975
     5   6 C    3.996 --     4 C    1.008     6 C    1.008    29 H    0.975
                            30 H    0.973
     6   6 C    3.996 --     5 C    1.008     7 C    1.007    31 H    0.975
                            32 H    0.973
     7   6 C    3.996 --     8 C    1.007     6 C    1.007    33 H    0.974
                            34 H    0.973
     8   6 C    3.994 --     9 C    1.008     7 C    1.007    35 H    0.976
                            36 H    0.970
     9   6 C    3.984 --     8 C    1.008    10 C    0.985    37 H    0.974
                            38 H    0.964
    10   6 C    3.939 --     9 C    0.985    11 N    0.968    39 H    0.963
                            40 H    0.960
    11   7 N    3.695 --    15 C    1.333    12 C    1.208    10 C    0.968
    12   6 C    3.950 --    13 C    1.611    11 N    1.208    41 H    0.962
    13   6 C    3.950 --    12 C    1.611    14 N    1.210    42 H    0.962
    14   7 N    3.688 --    15 C    1.320    13 C    1.210    17 C    0.964
    15   6 C    3.952 --    11 N    1.333    14 N    1.320    16 C    1.045
    16   6 C    3.978 --    15 C    1.045    43 H    0.963    45 H    0.962
                            44 H    0.943
    17   6 C    3.942 --    18 C    0.998    14 N    0.964    46 H    0.959
                            47 H    0.953
    18   6 C    3.983 --    19 C    1.985    17 C    0.998    48 H    0.964
    19   6 C    3.985 --    18 C    1.985    50 H    0.972    49 H    0.971
    20   1 H    0.999 --     1 C    0.986
    21   1 H    0.999 --     1 C    0.987
    22   1 H    0.999 --     1 C    0.987
    23   1 H    0.999 --     2 C    0.976
    24   1 H    0.999 --     2 C    0.978
    25   1 H    0.999 --     3 C    0.976
    26   1 H    0.999 --     3 C    0.977
    27   1 H    0.999 --     4 C    0.975
    28   1 H    0.998 --     4 C    0.975
    29   1 H    0.999 --     5 C    0.975
    30   1 H    0.998 --     5 C    0.973
    31   1 H    0.999 --     6 C    0.975
    32   1 H    0.998 --     6 C    0.973
    33   1 H    1.000 --     7 C    0.974
    34   1 H    0.998 --     7 C    0.973
    35   1 H    1.000 --     8 C    0.976
    36   1 H    0.996 --     8 C    0.970
    37   1 H    0.998 --     9 C    0.974
    38   1 H    0.993 --     9 C    0.964
    39   1 H    0.993 --    10 C    0.963
    40   1 H    0.993 --    10 C    0.960
    41   1 H    0.990 --    12 C    0.962
    42   1 H    0.989 --    13 C    0.962
    43   1 H    0.991 --    16 C    0.963
    44   1 H    0.989 --    16 C    0.943
    45   1 H    0.991 --    16 C    0.962
    46   1 H    0.992 --    17 C    0.959
    47   1 H    0.991 --    17 C    0.953
    48   1 H    0.997 --    18 C    0.964
    49   1 H    0.993 --    19 C    0.971
    50   1 H    0.996 --    19 C    0.972
 ---------------------------------------------------------------------------

molecular dipole:
                 x           y           z       tot (Debye)
 q only:       -5.105       2.855      16.431
   full:       -5.153       2.961      16.518      44.619

           -------------------------------------------------
          | TOTAL ENERGY              -57.694594683566 Eh   |
          | GRADIENT NORM               0.000429655178 Eh/α |
          | HOMO-LUMO GAP               2.456958250482 eV   |
           -------------------------------------------------

 * finished run on 2024/12/20 at 06:51:52.436
