   * xtb version 6.7.1 (edcfbbe) compiled by 'conda@3ef47c1a292c' on 2024-11-25

   ID    Z sym.   atoms
    1    6 C      1-8, 10-33
    2   15 P      9
    3    1 H      34-101

          program call               : xtb C0662.xyz --opt --namespace C0662 --charge +1
          :  Hamiltonian                  GFN2-xTB          :
 * total energy  :  -105.3764541 Eh     change       -0.2561649E-09 Eh
 * total energy  :  -105.3834651 Eh     change       -0.7010991E-02 Eh
 * total energy  :  -105.3853037 Eh     change       -0.1838608E-02 Eh
 * total energy  :  -105.3856867 Eh     change       -0.3829902E-03 Eh
 * total energy  :  -105.3859745 Eh     change       -0.2877952E-03 Eh
 * total energy  :  -105.3861895 Eh     change       -0.2150056E-03 Eh
 * total energy  :  -105.3864511 Eh     change       -0.2616252E-03 Eh
 * total energy  :  -105.3867473 Eh     change       -0.2962012E-03 Eh
 * total energy  :  -105.3870308 Eh     change       -0.2834982E-03 Eh
 * total energy  :  -105.3873026 Eh     change       -0.2717807E-03 Eh
 * total energy  :  -105.3941202 Eh     change       -0.1857750E-04 Eh
 * total energy  :  -105.3941395 Eh     change       -0.1934522E-04 Eh
 * total energy  :  -105.3941559 Eh     change       -0.1636112E-04 Eh
 * total energy  :  -105.3941692 Eh     change       -0.1331553E-04 Eh
 * total energy  :  -105.3941809 Eh     change       -0.1169156E-04 Eh
 * total energy  :  -105.3941912 Eh     change       -0.1032628E-04 Eh
 * total energy  :  -105.3941967 Eh     change       -0.5466573E-05 Eh
 * total energy  :  -105.3942026 Eh     change       -0.5934347E-05 Eh
 * total energy  :  -105.3942063 Eh     change       -0.3696676E-05 Eh
   *** GEOMETRY OPTIMIZATION CONVERGED AFTER 96 ITERATIONS ***

 final structure:
================
101
 xtb: 6.7.1 (edcfbbe)
C            3.83499347946559       -0.47318643437174       -2.90238101261992
C            2.87472243606948        0.32654865520405       -3.77436997027562
C            2.22415991087219       -0.50845480868536       -4.87857418352280
C            1.36122876766326       -1.67148519591978       -4.38373130951876
C            0.20835014829145       -1.27415351877906       -3.45963064403652
C           -0.76893760141945       -0.25162015898863       -4.04406743863602
C           -1.45497589094340       -0.67979435127868       -5.34272202562798
C           -2.36653728427979       -1.91012811372252       -5.20318590537646
P           -4.14734979611120       -1.50764836330880       -5.07998006473555
C           -4.60886263205045       -0.47679904968469       -6.52520331360813
C           -3.94846252760897       -0.83100328496158       -7.85915328538698
C           -4.33563539868544       -2.19703040820138       -8.42435836890862
C           -5.80236853086731       -2.33125858004995       -8.84179696689396
C           -6.26017917950857       -1.33908488486731       -9.91409750254551
C           -5.45074351378348       -1.36655177575807      -11.21231231953333
C           -5.42583800289546       -2.71851492231134      -11.92739191592731
C           -6.80550638097482       -3.18790292141099      -12.37283059327221
C           -5.20997359534636       -3.01077772632341       -5.07826594858394
C           -4.49331388536718       -4.34547228124997       -4.86350794585464
C           -4.05577465183111       -4.57359770038612       -3.41659032674339
C           -5.19405470062172       -4.98347830906591       -2.47852838769440
C           -5.75651370613283       -6.38525671046167       -2.72687098143143
C           -4.74898297777626       -7.52816635257248       -2.58360327983512
C           -4.04332494457667       -7.60335085934725       -1.22865775460030
C           -5.00061154099838       -7.81143466649613       -0.06143603410544
C           -4.60864394889349       -0.42294697954272       -3.67138575145654
C           -4.77567209534860       -1.06729589219765       -2.29327543688615
C           -3.46410485443951       -1.25613829216402       -1.52959905574437
C           -2.93558370629298        0.02982071810626       -0.88876393762660
C           -3.72708183798177        0.50262974328999        0.33296142595408
C           -3.75263592543206       -0.47330135166363        1.51176263386555
C           -2.37839742554151       -0.89321330088509        2.03608648069416
C           -1.54503142312432        0.27681329228274        2.54495567806759
H            3.30932468925183       -1.22725340376586       -2.32179820097700
H            4.34854811329870        0.18741454348222       -2.20836054740629
H            4.58257930652633       -0.96956146721026       -3.51662432513306
H            2.10700809587714        0.78345831221136       -3.14675019686046
H            3.42728344160166        1.13930609732652       -4.25076538564219
H            1.62532872754943        0.15161972557893       -5.51073742494636
H            3.01415283609605       -0.92446254110075       -5.50765921769313
H            0.96819342552759       -2.20515025181910       -5.25287083317496
H            1.99452676111315       -2.37626494693527       -3.84361076717359
H           -0.32469269082895       -2.18456964605583       -3.17050749965097
H            0.61902919991835       -0.85039533380812       -2.54262203218362
H           -1.52242590522159       -0.02303839304665       -3.28982812059829
H           -0.22624276252004        0.67228255175269       -4.24637309422641
H           -2.02444630202191        0.17175117805041       -5.72389077843087
H           -0.68390316480070       -0.90351180574807       -6.08021162826866
H           -2.27957608140375       -2.54884046119190       -6.08687917194105
H           -2.07518428971659       -2.51233623400609       -4.34244840683716
H           -5.69789559385134       -0.52974200854591       -6.61217658253808
H           -4.35687423832051        0.55578557266245       -6.26187564166251
H           -4.22410212791949       -0.05970845086687       -8.57944924168193
H           -2.86332252618302       -0.79023055283228       -7.75117049031774
H           -3.71109506341203       -2.38625341215632       -9.29783402840255
H           -4.10098400269937       -2.97418795052782       -7.68983416051179
H           -5.95262288924101       -3.34634488156989       -9.21191548174675
H           -6.45682488640433       -2.21107805388381       -7.97313947533836
H           -7.30432790520263       -1.55505211195821      -10.14384537764038
H           -6.23115354173541       -0.32364475962588       -9.51123583575841
H           -5.88372120821640       -0.62655777152887      -11.88880682380466
H           -4.42314560047727       -1.05447076306383      -11.01191015223083
H           -4.78807791727827       -2.61920297539086      -12.80823323201293
H           -4.97241234138857       -3.47628543657367      -11.28513803620967
H           -7.28856843284481       -2.42507923308167      -12.97884589357098
H           -6.71893966166529       -4.09250380103837      -12.96950690417009
H           -7.44441656722229       -3.40738729142731      -11.52089678462778
H           -5.97238072169805       -2.86476632775023       -4.30881908425931
H           -5.72245552640639       -3.02110139506081       -6.04274854392580
H           -5.17543044116948       -5.14388344972561       -5.15799326524080
H           -3.62683195998240       -4.41002852861475       -5.52472801988788
H           -3.29249627816578       -5.35103829419592       -3.39697711058569
H           -3.59977842174638       -3.65617425220256       -3.03452108076084
H           -4.82662509672417       -4.92852128860069       -1.45326892644525
H           -6.01987243904159       -4.27119440360585       -2.56058784545727
H           -6.57399255118860       -6.54492094654553       -2.02281515140835
H           -6.18957882770102       -6.43645154000332       -3.72864773288736
H           -5.28675431688434       -8.46467053166647       -2.74561056168024
H           -3.99449696093610       -7.45418252021080       -3.37027392883778
H           -3.34453220620209       -8.44177302747540       -1.26226116129796
H           -3.45338506535593       -6.69961984293194       -1.06111424220326
H           -5.62267054301208       -8.68683506506536       -0.23204890327460
H           -4.44187074003196       -7.96498280004174        0.85838404423414
H           -5.64900223161526       -6.95010916396734        0.07854457113985
H           -3.87453686079442        0.38592870568150       -3.63096361605539
H           -5.56343194136894        0.01651974987767       -3.98408460721465
H           -5.43171892470473       -0.42689861007609       -1.70215719342593
H           -5.27966198191634       -2.02950535202787       -2.39205589977719
H           -3.61873445697689       -1.99753788323951       -0.74613573552194
H           -2.70557772039468       -1.65507581914981       -2.20684411849494
H           -1.89853958137810       -0.13316858067100       -0.59391102455920
H           -2.93776460264903        0.83945663942123       -1.62405798303886
H           -3.29325303004437        1.44632586405629        0.66583164784296
H           -4.75941384577840        0.71436110287559        0.04400174997637
H           -4.30160214099921        0.00587921765246        2.32507118830454
H           -4.31270255557888       -1.36995914579719        1.23552840612126
H           -2.53428964980069       -1.59595078185005        2.85732933338297
H           -1.82615818800253       -1.42519821874346        1.25843735880618
H           -2.09689239167287        0.83757495530112        3.29549497460246
H           -0.62640871795650       -0.08679668667998        2.99875021589260
H           -1.27674476096847        0.95366896462427        1.73758946191159

          :  Hamiltonian                  GFN2-xTB          :
         :: total energy            -105.394206329840 Eh    ::
         :: gradient norm              0.000359993205 Eh/a0 ::
         :: HOMO-LUMO gap              5.404650834050 eV    ::
         :: SCC energy              -106.950520044810 Eh    ::
         :: -> dispersion             -0.094028456144 Eh    ::
         :: repulsion energy           1.556313714970 Eh    ::

    * Orbital Energies and Occupations

         #    Occupation            Energy/Eh            Energy/eV
      -------------------------------------------------------------
         1        2.0000           -0.8355011             -22.7351
       ...           ...                  ...                  ...
        88        2.0000           -0.5177565             -14.0889
        89        2.0000           -0.5013741             -13.6431
        90        2.0000           -0.4994416             -13.5905
        91        2.0000           -0.4992421             -13.5851
        92        2.0000           -0.4979677             -13.5504
        93        2.0000           -0.4977520             -13.5445
        94        2.0000           -0.4959947             -13.4967
        95        2.0000           -0.4957169             -13.4891
        96        2.0000           -0.4947348             -13.4624
        97        2.0000           -0.4936481             -13.4328
        98        2.0000           -0.4925258             -13.4023
        99        2.0000           -0.4916934             -13.3797
       100        2.0000           -0.4914463             -13.3729 (HOMO)
       101                         -0.2928291              -7.9683 (LUMO)
       102                         -0.2756531              -7.5009
       103                         -0.2626664              -7.1475
       104                         -0.1885961              -5.1320
       105                         -0.1082642              -2.9460
       106                         -0.0709837              -1.9316
       107                         -0.0536919              -1.4610
       108                         -0.0502281              -1.3668
       109                         -0.0435083              -1.1839
       110                         -0.0379280              -1.0321
       111                         -0.0321667              -0.8753
       ...                                ...                  ...
       205                          0.8062532              21.9393
      -------------------------------------------------------------
                  HL-Gap            0.1986173 Eh            5.4047 eV

     #   Z          covCN         q      C6AA      α(0)
     1   6 C        3.751    -0.105    22.564     6.774
     2   6 C        3.799    -0.054    21.544     6.609
     3   6 C        3.800    -0.060    21.651     6.625
     4   6 C        3.800    -0.061    21.669     6.628
     5   6 C        3.800    -0.059    21.636     6.623
     6   6 C        3.800    -0.067    21.779     6.645
     7   6 C        3.854    -0.061    21.634     6.615
     8   6 C        3.749    -0.067    21.849     6.667
     9  15 P        3.893     0.175   152.672    22.196
    10   6 C        3.749    -0.077    22.038     6.695
    11   6 C        3.839    -0.065    21.715     6.629
    12   6 C        3.800    -0.064    21.723     6.636
    13   6 C        3.800    -0.059    21.629     6.622
    14   6 C        3.800    -0.060    21.663     6.627
    15   6 C        3.801    -0.061    21.666     6.627
    16   6 C        3.799    -0.054    21.545     6.609
    17   6 C        3.751    -0.105    22.564     6.774
    18   6 C        3.750    -0.075    21.989     6.688
    19   6 C        3.839    -0.063    21.674     6.623
    20   6 C        3.801    -0.065    21.755     6.641
    21   6 C        3.800    -0.059    21.633     6.622
    22   6 C        3.800    -0.061    21.670     6.628
    23   6 C        3.800    -0.061    21.664     6.627
    24   6 C        3.799    -0.054    21.542     6.608
    25   6 C        3.751    -0.105    22.565     6.774
    26   6 C        3.749    -0.073    21.965     6.684
    27   6 C        3.831    -0.064    21.702     6.628
    28   6 C        3.800    -0.062    21.697     6.632
    29   6 C        3.800    -0.060    21.648     6.625
    30   6 C        3.800    -0.061    21.668     6.628
    31   6 C        3.800    -0.060    21.657     6.626
    32   6 C        3.799    -0.054    21.542     6.608
    33   6 C        3.751    -0.105    22.563     6.774
    34   1 H        0.925     0.034     2.536     2.490
    35   1 H        0.925     0.038     2.472     2.459
    36   1 H        0.925     0.039     2.466     2.456
    37   1 H        0.924     0.028     2.611     2.527
    38   1 H        0.924     0.034     2.532     2.488
    39   1 H        0.924     0.024     2.666     2.554
    40   1 H        0.924     0.038     2.480     2.463
    41   1 H        0.924     0.023     2.681     2.561
    42   1 H        0.924     0.044     2.396     2.421
    43   1 H        0.924     0.019     2.743     2.590
    44   1 H        0.924     0.048     2.345     2.395
    45   1 H        0.924     0.037     2.483     2.464
    46   1 H        0.924     0.054     2.271     2.357
    47   1 H        0.924     0.045     2.388     2.416
    48   1 H        0.925     0.064     2.150     2.293
    49   1 H        0.928     0.087     1.905     2.158
    50   1 H        0.926     0.097     1.811     2.104
    51   1 H        0.927     0.085     1.925     2.170
    52   1 H        0.927     0.077     2.009     2.216
    53   1 H        0.924     0.068     2.111     2.272
    54   1 H        0.924     0.049     2.333     2.388
    55   1 H        0.924     0.057     2.234     2.337
    56   1 H        0.924     0.027     2.625     2.534
    57   1 H        0.924     0.046     2.368     2.406
    58   1 H        0.924     0.016     2.792     2.613
    59   1 H        0.924     0.044     2.391     2.418
    60   1 H        0.924     0.025     2.653     2.547
    61   1 H        0.924     0.039     2.457     2.451
    62   1 H        0.924     0.026     2.637     2.540
    63   1 H        0.924     0.035     2.518     2.481
    64   1 H        0.924     0.027     2.625     2.534
    65   1 H        0.925     0.039     2.456     2.451
    66   1 H        0.925     0.039     2.468     2.457
    67   1 H        0.925     0.033     2.548     2.496
    68   1 H        0.926     0.088     1.898     2.154
    69   1 H        0.927     0.090     1.878     2.143
    70   1 H        0.924     0.068     2.104     2.268
    71   1 H        0.924     0.043     2.408     2.427
    72   1 H        0.925     0.055     2.258     2.350
    73   1 H        0.924     0.032     2.553     2.499
    74   1 H        0.924     0.045     2.378     2.412
    75   1 H        0.924     0.020     2.727     2.582
    76   1 H        0.924     0.044     2.391     2.418
    77   1 H        0.924     0.027     2.636     2.539
    78   1 H        0.924     0.039     2.456     2.451
    79   1 H        0.924     0.026     2.642     2.542
    80   1 H        0.924     0.034     2.524     2.484
    81   1 H        0.924     0.026     2.639     2.540
    82   1 H        0.925     0.040     2.454     2.450
    83   1 H        0.925     0.038     2.480     2.462
    84   1 H        0.925     0.033     2.546     2.495
    85   1 H        0.926     0.091     1.869     2.138
    86   1 H        0.929     0.080     1.976     2.198
    87   1 H        0.924     0.065     2.141     2.288
    88   1 H        0.924     0.050     2.322     2.383
    89   1 H        0.925     0.054     2.272     2.357
    90   1 H        0.924     0.029     2.595     2.519
    91   1 H        0.924     0.046     2.373     2.409
    92   1 H        0.924     0.022     2.706     2.573
    93   1 H        0.924     0.044     2.399     2.422
    94   1 H        0.924     0.026     2.640     2.541
    95   1 H        0.924     0.039     2.460     2.453
    96   1 H        0.924     0.026     2.651     2.546
    97   1 H        0.924     0.034     2.528     2.487
    98   1 H        0.924     0.027     2.633     2.537
    99   1 H        0.925     0.039     2.457     2.451
   100   1 H        0.925     0.037     2.484     2.465
   101   1 H        0.925     0.033     2.544     2.494

Wiberg/Mayer (AO) data.
largest (>0.10) Wiberg bond orders for each atom

     #   Z sym  total        # sym  WBO       # sym  WBO       # sym  WBO
 ---------------------------------------------------------------------------
     1   6 C    3.996 --     2 C    1.020    36 H    0.987    35 H    0.987
                            34 H    0.986
     2   6 C    3.998 --     1 C    1.020     3 C    1.008    38 H    0.978
                            37 H    0.976
     3   6 C    3.997 --     2 C    1.008     4 C    1.007    40 H    0.976
                            39 H    0.976
     4   6 C    3.996 --     3 C    1.007     5 C    1.007    41 H    0.975
                            42 H    0.974
     5   6 C    3.996 --     4 C    1.007     6 C    1.007    44 H    0.973
                            43 H    0.972
     6   6 C    3.992 --     5 C    1.007     7 C    1.006    46 H    0.971
                            45 H    0.967
     7   6 C    3.988 --     6 C    1.006     8 C    0.980    48 H    0.969
                            47 H    0.962
     8   6 C    3.985 --     9 P    1.003     7 C    0.980    49 H    0.928
                            50 H    0.927
     9  15 P    4.556 --    10 C    1.008    26 C    1.005     8 C    1.003
                            18 C    0.992
    10   6 C    3.989 --     9 P    1.008    11 C    0.991    52 H    0.936
                            51 H    0.933
    11   6 C    3.986 --    12 C    1.008    10 C    0.991    54 H    0.969
                            53 H    0.965
    12   6 C    3.994 --    11 C    1.008    13 C    1.007    55 H    0.971
                            56 H    0.962
    13   6 C    3.996 --    12 C    1.007    14 C    1.006    57 H    0.973
                            58 H    0.970
    14   6 C    3.996 --    15 C    1.008    13 C    1.006    60 H    0.975
                            59 H    0.974
    15   6 C    3.996 --    16 C    1.008    14 C    1.008    61 H    0.976
                            62 H    0.976
    16   6 C    3.998 --    17 C    1.020    15 C    1.008    63 H    0.978
                            64 H    0.976
    17   6 C    3.996 --    16 C    1.020    65 H    0.987    66 H    0.987
                            67 H    0.986
    18   6 C    3.984 --     9 P    0.992    19 C    0.991    69 H    0.931
                            68 H    0.930
    19   6 C    3.988 --    20 C    1.007    18 C    0.991    71 H    0.968
                            70 H    0.964
    20   6 C    3.994 --    19 C    1.007    21 C    1.007    72 H    0.971
                            73 H    0.960
    21   6 C    3.996 --    20 C    1.007    22 C    1.007    74 H    0.973
                            75 H    0.972
    22   6 C    3.995 --    23 C    1.008    21 C    1.007    76 H    0.974
                            77 H    0.974
    23   6 C    3.997 --    24 C    1.008    22 C    1.008    78 H    0.976
                            79 H    0.975
    24   6 C    3.998 --    25 C    1.020    23 C    1.008    80 H    0.978
                            81 H    0.976
    25   6 C    3.996 --    24 C    1.020    82 H    0.987    83 H    0.987
                            84 H    0.986
    26   6 C    3.987 --     9 P    1.005    27 C    0.991    86 H    0.931
                            85 H    0.930
    27   6 C    3.985 --    28 C    1.007    26 C    0.991    87 H    0.965
                            88 H    0.962
    28   6 C    3.994 --    29 C    1.007    27 C    1.007    89 H    0.970
                            90 H    0.964
    29   6 C    3.995 --    30 C    1.007    28 C    1.007    91 H    0.973
                            92 H    0.972
    30   6 C    3.995 --    31 C    1.007    29 C    1.007    93 H    0.974
                            94 H    0.974
    31   6 C    3.997 --    32 C    1.008    30 C    1.007    95 H    0.976
                            96 H    0.975
    32   6 C    3.998 --    33 C    1.020    31 C    1.008    97 H    0.978
                            98 H    0.976
    33   6 C    3.996 --    32 C    1.020    99 H    0.987   100 H    0.987
                           101 H    0.986
    34   1 H    0.999 --     1 C    0.986
    35   1 H    0.999 --     1 C    0.987
    36   1 H    0.998 --     1 C    0.987
    37   1 H    0.999 --     2 C    0.976
    38   1 H    0.999 --     2 C    0.978
    39   1 H    0.999 --     3 C    0.976
    40   1 H    0.999 --     3 C    0.976
    41   1 H    0.999 --     4 C    0.975
    42   1 H    0.998 --     4 C    0.974
    43   1 H    1.000 --     5 C    0.972
    44   1 H    0.998 --     5 C    0.973
    45   1 H    0.999 --     6 C    0.967
    46   1 H    0.997 --     6 C    0.971
    47   1 H    0.998 --     7 C    0.962
    48   1 H    0.995 --     7 C    0.969
    49   1 H    0.992 --     8 C    0.928
    50   1 H    0.990 --     8 C    0.927
    51   1 H    0.993 --    10 C    0.933
    52   1 H    0.994 --    10 C    0.936
    53   1 H    0.995 --    11 C    0.965
    54   1 H    0.998 --    11 C    0.969
    55   1 H    0.997 --    12 C    0.971
    56   1 H    0.999 --    12 C    0.962
    57   1 H    0.998 --    13 C    0.973
    58   1 H    1.000 --    13 C    0.970
    59   1 H    0.998 --    14 C    0.974
    60   1 H    0.999 --    14 C    0.975
    61   1 H    0.998 --    15 C    0.976
    62   1 H    0.999 --    15 C    0.976
    63   1 H    0.999 --    16 C    0.978
    64   1 H    0.999 --    16 C    0.976
    65   1 H    0.998 --    17 C    0.987
    66   1 H    0.998 --    17 C    0.987
    67   1 H    0.999 --    17 C    0.986
    68   1 H    0.992 --    18 C    0.930
    69   1 H    0.992 --    18 C    0.931
    70   1 H    0.995 --    19 C    0.964
    71   1 H    0.998 --    19 C    0.968
    72   1 H    0.997 --    20 C    0.971
    73   1 H    0.999 --    20 C    0.960
    74   1 H    0.998 --    21 C    0.973
    75   1 H    1.000 --    21 C    0.972
    76   1 H    0.998 --    22 C    0.974
    77   1 H    0.999 --    22 C    0.974
    78   1 H    0.998 --    23 C    0.976
    79   1 H    0.999 --    23 C    0.975
    80   1 H    0.999 --    24 C    0.978
    81   1 H    0.999 --    24 C    0.976
    82   1 H    0.998 --    25 C    0.987
    83   1 H    0.999 --    25 C    0.987
    84   1 H    0.999 --    25 C    0.986
    85   1 H    0.991 --    26 C    0.930
    86   1 H    0.993 --    26 C    0.931
    87   1 H    0.995 --    27 C    0.965
    88   1 H    0.997 --    27 C    0.962
    89   1 H    0.997 --    28 C    0.970
    90   1 H    0.999 --    28 C    0.964
    91   1 H    0.998 --    29 C    0.973
    92   1 H    1.000 --    29 C    0.972
    93   1 H    0.998 --    30 C    0.974
    94   1 H    0.999 --    30 C    0.974
    95   1 H    0.998 --    31 C    0.976
    96   1 H    0.999 --    31 C    0.975
    97   1 H    0.999 --    32 C    0.978
    98   1 H    0.999 --    32 C    0.976
    99   1 H    0.998 --    33 C    0.987
   100   1 H    0.999 --    33 C    0.987
   101   1 H    0.999 --    33 C    0.986
 ---------------------------------------------------------------------------

molecular dipole:
                 x           y           z       tot (Debye)
 q only:       -7.280      -3.235      -9.220
   full:       -7.441      -3.122      -9.332      31.358

           -------------------------------------------------
          | TOTAL ENERGY             -105.394206329840 Eh   |
          | GRADIENT NORM               0.000359993205 Eh/α |
          | HOMO-LUMO GAP               5.404650834050 eV   |
           -------------------------------------------------

 * finished run on 2024/12/20 at 06:52:15.357
