   * xtb version 6.7.1 (edcfbbe) compiled by 'conda@3ef47c1a292c' on 2024-11-25

   ID    Z sym.   atoms
    1    6 C      1, 2, 4, 6, 8, 11-17
    2    8 O      3, 5
    3    7 N      7, 9, 10
    4    1 H      18-33

          program call               : xtb C0667.xyz --opt --namespace C0667 --charge +1
          :  Hamiltonian                  GFN2-xTB          :
 * total energy  :   -50.4185414 Eh     change       -0.3527347E-09 Eh
 * total energy  :   -50.4245135 Eh     change       -0.5972094E-02 Eh
 * total energy  :   -50.4254540 Eh     change       -0.9405183E-03 Eh
 * total energy  :   -50.4256775 Eh     change       -0.2235119E-03 Eh
 * total energy  :   -50.4258239 Eh     change       -0.1464495E-03 Eh
 * total energy  :   -50.4258968 Eh     change       -0.7291021E-04 Eh
 * total energy  :   -50.4259641 Eh     change       -0.6726182E-04 Eh
 * total energy  :   -50.4260229 Eh     change       -0.5878249E-04 Eh
 * total energy  :   -50.4260718 Eh     change       -0.4893099E-04 Eh
 * total energy  :   -50.4261142 Eh     change       -0.4239563E-04 Eh
 * total energy  :   -50.4262598 Eh     change       -0.3579973E-04 Eh
 * total energy  :   -50.4262888 Eh     change       -0.2901751E-04 Eh
 * total energy  :   -50.4263110 Eh     change       -0.2216432E-04 Eh
 * total energy  :   -50.4263257 Eh     change       -0.1469162E-04 Eh
 * total energy  :   -50.4263367 Eh     change       -0.1102213E-04 Eh
 * total energy  :   -50.4263450 Eh     change       -0.8270743E-05 Eh
 * total energy  :   -50.4263555 Eh     change       -0.1050606E-04 Eh
 * total energy  :   -50.4263644 Eh     change       -0.8898771E-05 Eh
 * total energy  :   -50.4263689 Eh     change       -0.4486433E-05 Eh
   *** GEOMETRY OPTIMIZATION CONVERGED AFTER 22 ITERATIONS ***

 final structure:
================
33
 xtb: 6.7.1 (edcfbbe)
C            0.77200910501428        0.06077093612243       -0.42533985891860
C            0.46661162454690        1.51703043295217       -0.73311521271755
O            1.31327526602106        2.00647328106368       -1.79135300670649
C            2.52810169371298        2.41809370320076       -1.45273504144707
O            2.97437897379253        2.49876433377087       -0.34910830308250
C            3.32862198931766        2.81053659435140       -2.71399665710506
N            2.81168375679461        2.16303774267951       -3.88837270662715
C            2.01552923084934        2.67486638186421       -4.84239547503492
N            1.65867316334631        3.95817718762652       -4.95447788977415
N            1.65693300328936        1.71756130377394       -5.71519749020097
C            2.21177474432345        0.51447355378925       -5.29044614866675
C            2.93477494544207        0.79593799471617       -4.12295269843330
C            3.59743668838303       -0.19556635891958       -3.42084208266596
C            3.51871445965679       -1.48027197934863       -3.92882349171430
C            2.80715741283077       -1.76138530228671       -5.09268363255152
C            2.14070301319980       -0.77294293310769       -5.79536982658068
C            0.83492431259714        1.92214558616582       -6.88171563214005
H            0.68544659964903       -0.54625719391136       -1.32401671172049
H            0.06685889461431       -0.30311812142262        0.31523255815285
H            1.77758850200448       -0.03752364733832       -0.02394723049927
H           -0.54899189331122        1.64104293226756       -1.11133902383911
H            0.61721197217307        2.13832710215631        0.15360920126177
H            3.30488251209347        3.89693840635852       -2.81979064261682
H            4.37010980948508        2.51598662485476       -2.55746268150698
H            1.85170528790579        4.61506769481698       -4.21901661934684
H            1.01906326638807        4.24230583436137       -5.67600923814834
H            4.14453093640143        0.01571103415015       -2.51686854250219
H            4.01815776612323       -2.28270484417646       -3.41040283971312
H            2.77130171306392       -2.77644978363785       -5.45405529152828
H            1.59122318624197       -1.00834357108427       -6.69179831181474
H           -0.16343462273720        2.26081424260800       -6.59801265300408
H            1.29279948448453        2.65098622440774       -7.55266313822267
H            0.74077320230078        0.97855460717446       -7.41191368058576

          :  Hamiltonian                  GFN2-xTB          :
         :: total energy             -50.426368868414 Eh    ::
         :: gradient norm              0.000662740419 Eh/a0 ::
         :: HOMO-LUMO gap              3.878165579866 eV    ::
         :: SCC energy               -51.135545003228 Eh    ::
         :: -> dispersion             -0.031485631181 Eh    ::
         :: repulsion energy           0.709176134814 Eh    ::

    * Orbital Energies and Occupations

         #    Occupation            Energy/Eh            Energy/eV
      -------------------------------------------------------------
         1        2.0000           -0.8833440             -24.0370
       ...           ...                  ...                  ...
        33        2.0000           -0.6211238             -16.9016
        34        2.0000           -0.6176364             -16.8067
        35        2.0000           -0.6088366             -16.5673
        36        2.0000           -0.6019209             -16.3791
        37        2.0000           -0.5879032             -15.9977
        38        2.0000           -0.5736812             -15.6107
        39        2.0000           -0.5730226             -15.5927
        40        2.0000           -0.5661688             -15.4062
        41        2.0000           -0.5641843             -15.3522
        42        2.0000           -0.5564368             -15.1414
        43        2.0000           -0.5503944             -14.9770
        44        2.0000           -0.5342495             -14.5377
        45        2.0000           -0.5308733             -14.4458 (HOMO)
        46                         -0.3883533             -10.5676 (LUMO)
        47                         -0.3592059              -9.7745
        48                         -0.3553324              -9.6691
        49                         -0.3432801              -9.3411
        50                         -0.2293779              -6.2417
        51                         -0.1965742              -5.3491
        52                         -0.1470134              -4.0004
        53                         -0.1387169              -3.7747
        54                         -0.1307499              -3.5579
        55                         -0.0694226              -1.8891
        56                         -0.0469702              -1.2781
       ...                                ...                  ...
        84                          0.5618529              15.2888
      -------------------------------------------------------------
                  HL-Gap            0.1425200 Eh            3.8782 eV

     #   Z          covCN         q      C6AA      α(0)
     1   6 C        3.750    -0.120    22.864     6.819
     2   6 C        3.697     0.071    19.543     6.323
     3   8 O        1.702    -0.268    18.440     5.798
     4   6 C        2.712     0.358    20.925     7.488
     5   8 O        0.856    -0.360    20.891     6.128
     6   6 C        3.739    -0.045    21.467     6.611
     7   7 N        2.819    -0.015    21.533     6.892
     8   6 C        2.992     0.195    23.843     8.010
     9   7 N        2.638    -0.238    26.219     7.605
    10   7 N        2.821    -0.016    21.551     6.895
    11   6 C        3.082     0.039    27.041     8.525
    12   6 C        3.092     0.038    27.036     8.522
    13   6 C        2.910    -0.035    28.865     8.810
    14   6 C        2.926    -0.022    28.547     8.762
    15   6 C        2.926    -0.022    28.550     8.763
    16   6 C        2.910    -0.035    28.875     8.811
    17   6 C        3.690    -0.072    22.074     6.724
    18   1 H        0.925     0.053     2.278     2.360
    19   1 H        0.925     0.072     2.062     2.246
    20   1 H        0.925     0.065     2.138     2.287
    21   1 H        0.924     0.069     2.092     2.262
    22   1 H        0.924     0.074     2.039     2.233
    23   1 H        0.924     0.093     1.849     2.126
    24   1 H        0.924     0.114     1.666     2.018
    25   1 H        0.860     0.219     1.012     1.576
    26   1 H        0.860     0.225     0.985     1.555
    27   1 H        0.926     0.067     2.116     2.275
    28   1 H        0.926     0.077     2.006     2.215
    29   1 H        0.926     0.077     2.007     2.215
    30   1 H        0.926     0.067     2.122     2.278
    31   1 H        0.924     0.082     1.957     2.187
    32   1 H        0.924     0.084     1.939     2.178
    33   1 H        0.925     0.103     1.755     2.072

Wiberg/Mayer (AO) data.
largest (>0.10) Wiberg bond orders for each atom

     #   Z sym  total        # sym  WBO       # sym  WBO       # sym  WBO
 ---------------------------------------------------------------------------
     1   6 C    3.988 --     2 C    1.015    18 H    0.986    20 H    0.984
                            19 H    0.979
     2   6 C    3.904 --     1 C    1.015    21 H    0.971    22 H    0.969
                             3 O    0.911
     3   8 O    2.318 --     4 C    1.162     2 C    0.911     5 O    0.189
     4   6 C    3.935 --     5 O    1.788     3 O    1.162     6 C    0.922
     5   8 O    2.094 --     4 C    1.788     3 O    0.189
     6   6 C    3.953 --     7 N    0.992    24 H    0.950    23 H    0.947
                             4 C    0.922
     7   7 N    3.601 --     8 C    1.262    12 C    1.077     6 C    0.992
     8   6 C    3.972 --     9 N    1.270    10 N    1.268     7 N    1.262
     9   7 N    3.362 --     8 C    1.270    25 H    0.928    26 H    0.927
    10   7 N    3.601 --     8 C    1.268    11 C    1.084    17 C    0.989
    11   6 C    3.948 --    16 C    1.367    12 C    1.289    10 N    1.084
    12   6 C    3.947 --    13 C    1.370    11 C    1.289     7 N    1.077
    13   6 C    3.986 --    14 C    1.463    12 C    1.370    27 H    0.964
                            16 C    0.114
    14   6 C    3.981 --    13 C    1.463    15 C    1.408    28 H    0.966
    15   6 C    3.982 --    16 C    1.464    14 C    1.408    29 H    0.966
    16   6 C    3.986 --    15 C    1.464    11 C    1.367    30 H    0.962
                            13 C    0.114
    17   6 C    3.943 --    10 N    0.989    33 H    0.971    32 H    0.970
                            31 H    0.970
    18   1 H    0.997 --     1 C    0.986
    19   1 H    0.994 --     1 C    0.979
    20   1 H    0.996 --     1 C    0.984
    21   1 H    0.995 --     2 C    0.971
    22   1 H    0.994 --     2 C    0.969
    23   1 H    0.991 --     6 C    0.947
    24   1 H    0.987 --     6 C    0.950
    25   1 H    0.951 --     9 N    0.928
    26   1 H    0.949 --     9 N    0.927
    27   1 H    0.995 --    13 C    0.964
    28   1 H    0.994 --    14 C    0.966
    29   1 H    0.994 --    15 C    0.966
    30   1 H    0.995 --    16 C    0.962
    31   1 H    0.993 --    17 C    0.970
    32   1 H    0.992 --    17 C    0.970
    33   1 H    0.989 --    17 C    0.971
 ---------------------------------------------------------------------------

molecular dipole:
                 x           y           z       tot (Debye)
 q only:        3.200       3.462      -9.223
   full:        3.056       3.840      -9.315      26.760

           -------------------------------------------------
          | TOTAL ENERGY              -50.426368868414 Eh   |
          | GRADIENT NORM               0.000662740419 Eh/α |
          | HOMO-LUMO GAP               3.878165579866 eV   |
           -------------------------------------------------

 * finished run on 2024/12/20 at 06:52:54.931
