   * xtb version 6.7.1 (edcfbbe) compiled by 'conda@3ef47c1a292c' on 2024-11-25

   ID    Z sym.   atoms
    1    6 C      1-3, 5, 7-14
    2    7 N      4, 6
    3    1 H      15-29

          program call               : xtb C0669.xyz --opt --namespace C0669 --charge +1
          :  Hamiltonian                  GFN2-xTB          :
 * total energy  :   -38.8009541 Eh     change       -0.1935092E-09 Eh
 * total energy  :   -38.8050007 Eh     change       -0.4046659E-02 Eh
 * total energy  :   -38.8055105 Eh     change       -0.5097355E-03 Eh
 * total energy  :   -38.8055985 Eh     change       -0.8803399E-04 Eh
 * total energy  :   -38.8056771 Eh     change       -0.7863076E-04 Eh
 * total energy  :   -38.8057518 Eh     change       -0.7469343E-04 Eh
 * total energy  :   -38.8058155 Eh     change       -0.6370722E-04 Eh
 * total energy  :   -38.8059042 Eh     change       -0.8861842E-04 Eh
 * total energy  :   -38.8060094 Eh     change       -0.1052799E-03 Eh
 * total energy  :   -38.8060955 Eh     change       -0.8605511E-04 Eh
 * total energy  :   -38.8063840 Eh     change       -0.6554672E-04 Eh
 * total energy  :   -38.8064270 Eh     change       -0.4300972E-04 Eh
 * total energy  :   -38.8064395 Eh     change       -0.1249031E-04 Eh
 * total energy  :   -38.8064494 Eh     change       -0.9907194E-05 Eh
 * total energy  :   -38.8064541 Eh     change       -0.4675893E-05 Eh
 * total energy  :   -38.8064599 Eh     change       -0.5825786E-05 Eh
 * total energy  :   -38.8064626 Eh     change       -0.2643454E-05 Eh
 * total energy  :   -38.8064657 Eh     change       -0.3146557E-05 Eh
 * total energy  :   -38.8064680 Eh     change       -0.2233094E-05 Eh
   *** GEOMETRY OPTIMIZATION CONVERGED AFTER 22 ITERATIONS ***

 final structure:
================
29
 xtb: 6.7.1 (edcfbbe)
C            1.04588964745740       -0.35883261351312       -0.35793646436534
C            0.26346085528162        0.18458373566902       -1.27037330831706
C           -1.22079692102644        0.34435478191783       -1.10983802510636
N           -1.63713497160138        1.71489512425415       -1.33798410948079
C           -0.92287702973239        2.80157923539342       -1.06546085418193
N           -1.57879886161129        3.90903056711461       -1.39329828376900
C           -2.80510413931667        3.53445745678630       -1.90244643810941
C           -2.84263108033182        2.12649371240138       -1.86771358397787
C           -3.95389952943045        1.42324621374742       -2.31892893774356
C           -5.00889717325794        2.16702878194329       -2.80413570143453
C           -4.96967649255919        3.56455640406531       -2.84285693786718
C           -3.87484706559479        4.27334475958157       -2.39519293239208
C           -1.12634129895135        5.26779940173344       -1.18904010322335
C           -1.71283906946011        5.85170896833793        0.09258215918487
H            0.66451609478932       -0.71385803509485        0.58496173261757
H            2.10069683310497       -0.48620841806112       -0.52375659545127
H            0.66006458219146        0.52369204293778       -2.21784417514509
H           -1.74032596585219       -0.28210246162266       -1.84111425200050
H           -1.53189052511262        0.03414533436267       -0.10664399781621
H            0.06370501162120        2.77987660939314       -0.64103774276849
H           -3.99585302152929        0.34690385131592       -2.29054513506630
H           -5.88943380089376        1.65977256779379       -3.16442057487990
H           -5.82058014877318        4.09943373736396       -3.23313020989504
H           -3.85326036938816        5.35009758994799       -2.42747582166750
H           -0.03589899883645        5.26250240184771       -1.13899494028548
H           -1.43482742379996        5.86118020925113       -2.05252825648342
H           -1.38655914840939        5.28416477018263        0.96056877080544
H           -1.37682920523869        6.87754828630142        0.20784417171937
H           -2.79929078373908        5.84662498464733        0.06062054710059

          :  Hamiltonian                  GFN2-xTB          :
         :: total energy             -38.806467951234 Eh    ::
         :: gradient norm              0.000305450901 Eh/a0 ::
         :: HOMO-LUMO gap              3.455146397356 eV    ::
         :: SCC energy               -39.472381597210 Eh    ::
         :: -> dispersion             -0.025438598861 Eh    ::
         :: repulsion energy           0.665913645976 Eh    ::

    * Orbital Energies and Occupations

         #    Occupation            Energy/Eh            Energy/eV
      -------------------------------------------------------------
         1        2.0000           -0.8816655             -23.9913
       ...           ...                  ...                  ...
        24        2.0000           -0.6332059             -17.2304
        25        2.0000           -0.6313762             -17.1806
        26        2.0000           -0.6159782             -16.7616
        27        2.0000           -0.6008622             -16.3503
        28        2.0000           -0.5980838             -16.2747
        29        2.0000           -0.5949540             -16.1895
        30        2.0000           -0.5868100             -15.9679
        31        2.0000           -0.5814555             -15.8222
        32        2.0000           -0.5746021             -15.6357
        33        2.0000           -0.5660149             -15.4020
        34        2.0000           -0.5559420             -15.1280
        35        2.0000           -0.5483530             -14.9214
        36        2.0000           -0.5428344             -14.7713 (HOMO)
        37                         -0.4158601             -11.3161 (LUMO)
        38                         -0.3658339              -9.9548
        39                         -0.3572836              -9.7222
        40                         -0.3442473              -9.3674
        41                         -0.2399893              -6.5304
        42                         -0.1775786              -4.8322
        43                         -0.1307097              -3.5568
        44                         -0.0696619              -1.8956
        45                         -0.0411408              -1.1195
        46                         -0.0376519              -1.0246
        47                         -0.0272161              -0.7406
       ...                                ...                  ...
        71                          0.5373384              14.6217
      -------------------------------------------------------------
                  HL-Gap            0.1269743 Eh            3.4551 eV

     #   Z          covCN         q      C6AA      α(0)
     1   6 C        2.837    -0.080    29.990     8.974
     2   6 C        2.886    -0.044    29.102     8.844
     3   6 C        3.745    -0.020    21.003     6.537
     4   7 N        2.828     0.033    20.667     6.752
     5   6 C        3.073     0.067    26.425     8.428
     6   7 N        2.827     0.033    20.668     6.752
     7   6 C        3.122     0.041    26.912     8.496
     8   6 C        3.119     0.039    26.965     8.505
     9   6 C        2.908    -0.032    28.802     8.800
    10   6 C        2.925    -0.017    28.432     8.744
    11   6 C        2.925    -0.017    28.443     8.746
    12   6 C        2.908    -0.032    28.798     8.799
    13   6 C        3.740    -0.015    20.929     6.528
    14   6 C        3.753    -0.122    22.907     6.825
    15   1 H        0.926     0.067     2.121     2.278
    16   1 H        0.926     0.077     2.007     2.216
    17   1 H        0.925     0.056     2.245     2.343
    18   1 H        0.924     0.093     1.850     2.127
    19   1 H        0.924     0.089     1.888     2.149
    20   1 H        0.926     0.106     1.733     2.059
    21   1 H        0.926     0.071     2.075     2.252
    22   1 H        0.926     0.081     1.964     2.192
    23   1 H        0.926     0.081     1.966     2.193
    24   1 H        0.926     0.073     2.052     2.240
    25   1 H        0.924     0.079     1.987     2.205
    26   1 H        0.924     0.087     1.906     2.159
    27   1 H        0.925     0.061     2.187     2.312
    28   1 H        0.925     0.081     1.964     2.192
    29   1 H        0.925     0.065     2.143     2.290

Wiberg/Mayer (AO) data.
largest (>0.10) Wiberg bond orders for each atom

     #   Z sym  total        # sym  WBO       # sym  WBO       # sym  WBO
 ---------------------------------------------------------------------------
     1   6 C    3.983 --     2 C    1.986    15 H    0.972    16 H    0.972
     2   6 C    3.982 --     1 C    1.986     3 C    1.009    17 H    0.963
     3   6 C    3.941 --     2 C    1.009     4 N    0.961    19 H    0.950
                            18 H    0.950
     4   7 N    3.683 --     5 C    1.371     8 C    1.129     3 C    0.961
                             6 N    0.104
     5   6 C    3.955 --     4 N    1.371     6 N    1.371    20 H    0.952
     6   7 N    3.684 --     5 C    1.371     7 C    1.129    13 C    0.967
                             4 N    0.104
     7   6 C    3.953 --    12 C    1.337     8 C    1.273     6 N    1.129
     8   6 C    3.953 --     9 C    1.337     7 C    1.273     4 N    1.129
     9   6 C    3.986 --    10 C    1.498     8 C    1.337    21 H    0.963
                            12 C    0.119
    10   6 C    3.985 --     9 C    1.498    11 C    1.375    22 H    0.966
    11   6 C    3.986 --    12 C    1.498    10 C    1.375    23 H    0.966
    12   6 C    3.986 --    11 C    1.498     7 C    1.337    24 H    0.963
                             9 C    0.119
    13   6 C    3.942 --    14 C    1.002    25 H    0.968     6 N    0.967
                            26 H    0.962
    14   6 C    3.982 --    13 C    1.002    27 H    0.985    29 H    0.984
                            28 H    0.977
    15   1 H    0.995 --     1 C    0.972
    16   1 H    0.993 --     1 C    0.972
    17   1 H    0.997 --     2 C    0.963
    18   1 H    0.991 --     3 C    0.950
    19   1 H    0.991 --     3 C    0.950
    20   1 H    0.988 --     5 C    0.952
    21   1 H    0.994 --     9 C    0.963
    22   1 H    0.993 --    10 C    0.966
    23   1 H    0.993 --    11 C    0.966
    24   1 H    0.994 --    12 C    0.963
    25   1 H    0.993 --    13 C    0.968
    26   1 H    0.992 --    13 C    0.962
    27   1 H    0.996 --    14 C    0.985
    28   1 H    0.992 --    14 C    0.977
    29   1 H    0.996 --    14 C    0.984
 ---------------------------------------------------------------------------

molecular dipole:
                 x           y           z       tot (Debye)
 q only:       -3.563       5.334      -2.595
   full:       -3.427       5.287      -2.570      17.295

           -------------------------------------------------
          | TOTAL ENERGY              -38.806467951234 Eh   |
          | GRADIENT NORM               0.000305450901 Eh/α |
          | HOMO-LUMO GAP               3.455146397356 eV   |
           -------------------------------------------------

 * finished run on 2024/12/20 at 06:52:56.634
