   * xtb version 6.7.1 (edcfbbe) compiled by 'conda@3ef47c1a292c' on 2024-11-25

   ID    Z sym.   atoms
    1    6 C      1-12, 15-20, 23-33, 35, 36, 38, 39, 41, 43-47
    2    8 O      13, 21, 22, 42
    3    7 N      14, 34, 37, 40
    4    1 H      48-120

          program call               : xtb C0663.xyz --opt --namespace C0663 --charge +1
          :  Hamiltonian                  GFN2-xTB          :
 * total energy  :  -148.4059534 Eh     change       -0.8177523E-08 Eh
 * total energy  :  -148.4166853 Eh     change       -0.1073194E-01 Eh
 * total energy  :  -148.4189355 Eh     change       -0.2250216E-02 Eh
 * total energy  :  -148.4195685 Eh     change       -0.6329202E-03 Eh
 * total energy  :  -148.4201143 Eh     change       -0.5458329E-03 Eh
 * total energy  :  -148.4204828 Eh     change       -0.3685446E-03 Eh
 * total energy  :  -148.4208618 Eh     change       -0.3789974E-03 Eh
 * total energy  :  -148.4212550 Eh     change       -0.3931622E-03 Eh
 * total energy  :  -148.4216352 Eh     change       -0.3801886E-03 Eh
 * total energy  :  -148.4219861 Eh     change       -0.3508686E-03 Eh
 * total energy  :  -148.4420607 Eh     change       -0.1020183E-04 Eh
 * total energy  :  -148.4420723 Eh     change       -0.1162591E-04 Eh
 * total energy  :  -148.4420853 Eh     change       -0.1295995E-04 Eh
 * total energy  :  -148.4420981 Eh     change       -0.1284878E-04 Eh
 * total energy  :  -148.4421125 Eh     change       -0.1437484E-04 Eh
 * total energy  :  -148.4421310 Eh     change       -0.1851418E-04 Eh
 * total energy  :  -148.4421372 Eh     change       -0.6230901E-05 Eh
 * total energy  :  -148.4421475 Eh     change       -0.1024811E-04 Eh
 * total energy  :  -148.4421516 Eh     change       -0.4125257E-05 Eh
   *** GEOMETRY OPTIMIZATION CONVERGED AFTER 223 ITERATIONS ***

 final structure:
================
120
 xtb: 6.7.1 (edcfbbe)
C            0.43867433411785        3.82074786856591        2.60335409609612
C            0.80587952204650        4.77532858363330        1.47316840873044
C            1.22004375301506        4.05894454187176        0.18718165275708
C            0.13776700755742        3.17876682246093       -0.44159890894506
C           -1.16777034444227        3.89741431528110       -0.79156872392009
C           -1.02514863757796        5.06284900166793       -1.77339637435175
C           -0.60986564627624        4.65208234106947       -3.18776933840387
C           -1.73844642224193        4.00043102536063       -3.99209445938529
C           -2.72784201753928        5.01265472359487       -4.57742402522993
C           -2.22317858031416        5.69698141969903       -5.84898852783237
C           -2.26215031050882        4.79442272888676       -7.09026472133733
C           -3.69782331979909        4.55744552428709       -7.51326513819275
O           -4.33524906944632        5.41333328659929       -8.09400019488495
N           -4.29724540448376        3.37771573370489       -7.21452601770427
C           -3.81596758398959        2.17607254321924       -6.58346493072575
C           -4.11113728758520        0.94263277581365       -7.44396038946384
C           -3.48388223654530        0.99772454814167       -8.83903576371110
C           -1.95961460983844        1.13441002172829       -8.86894016549832
C           -1.23747919741890        0.09054935227582       -8.01259757987175
C           -1.61207332040741       -1.32387718871084       -8.46493640395530
O           -1.47910023481021       -1.74698794836405       -9.58027087384246
O           -2.04814150423633       -2.04653426640545       -7.42779029014915
C           -2.37885153321043       -3.41368042515524       -7.67583653087182
C           -3.83036509630917       -3.56324677774082       -8.12536525598439
C           -4.16051330663199       -4.99521077079841       -8.54325880140121
C           -4.06829099579099       -5.99053597739120       -7.38805199642616
C           -4.55412481126854       -7.39241318254851       -7.76116122813264
C           -3.77546892691478       -8.06337779044594       -8.89559854919679
C           -2.26521549949849       -8.16691258777284       -8.67322693076003
C           -1.84653804496938       -8.92756065617821       -7.41298000550701
C           -2.32534247101036      -10.38010991529939       -7.34391924330207
C           -1.86684033373550      -11.26798728685030       -8.50137859811578
C           -0.34549023460606      -11.44032719996553       -8.59689283722010
N            0.17754656819058      -12.14843900128746       -7.45086344576450
C            0.61550003536405      -11.58726415628263       -6.29149246628886
C            0.95563484966482      -12.60309643223749       -5.44990704895741
N            0.71538970064777      -13.77065400741328       -6.10817812292432
C            0.24289328939418      -13.47041776785563       -7.31486658168958
C            0.94917233486382      -15.08751846538313       -5.58006460454922
N            0.19514387360573        0.24009902156827       -8.14765123225474
C            1.16591297747363       -0.18220284673234       -7.28996101490919
O            2.32596027421462       -0.19440257974817       -7.63980519776166
C            0.72506314134217       -0.55950261894312       -5.88974667951354
C            0.45124638075919        0.69675075011651       -5.05099745962859
C           -0.33889806714432        0.39382485305522       -3.77827177235549
C            0.42595110791851       -0.47862956884424       -2.78607288443726
C           -0.37735148339497       -0.70978610083525       -1.51179210103551
H           -0.45756115618336        3.25430234764295        2.36364187826886
H            0.25102251787697        4.37685751846232        3.51900656528822
H            1.25036960572660        3.12019031527733        2.78919355662522
H           -0.03432565675277        5.44203130985627        1.27257761712945
H            1.64327129493159        5.39803092474003        1.79729458576542
H            1.54498799684982        4.80553588667471       -0.54016365746898
H            2.08372971601427        3.42472967751124        0.40495130266672
H            0.55604131273773        2.72381997597680       -1.34265933608598
H           -0.09849897226003        2.36386962461479        0.24656162548133
H           -1.86170509772467        3.16000464385721       -1.20404035819181
H           -1.61982587262907        4.27687343343367        0.12650130666473
H           -1.98171125110324        5.58788909078512       -1.82252831156694
H           -0.29261692985354        5.76919076064527       -1.38109515577884
H           -0.26133845759697        5.53777100852867       -3.72217638362325
H            0.23415840380639        3.96293693592462       -3.12736546699592
H           -1.29677425398963        3.41719562725764       -4.80214123087118
H           -2.28029112911092        3.30321295871263       -3.35021919263554
H           -3.67565402161818        4.51727033507955       -4.79654767131881
H           -2.93198187296472        5.77897733265639       -3.82797737225365
H           -2.84236803211464        6.57166899705402       -6.05537180233255
H           -1.19863152893034        6.04159418150769       -5.69758433656182
H           -1.77892219291699        5.32369365310350       -7.91367303110971
H           -1.71661761782406        3.87065439593386       -6.90885707386591
H           -5.26559965541188        3.34467219096755       -7.50915466037658
H           -2.74725745425798        2.26258511440464       -6.40027262343197
H           -4.30886258472523        2.04867488866341       -5.60986809805361
H           -3.77181570809673        0.05312801477664       -6.91086192985508
H           -5.19354030500232        0.85479936619418       -7.56541854298700
H           -3.76716198972413        0.08979824048572       -9.37599475024168
H           -3.90476294949662        1.84517818401304       -9.38301712898780
H           -1.62827558320743        1.01798834061402       -9.90289754763477
H           -1.66038338357058        2.12791189594036       -8.53402892531742
H           -1.51347949492504        0.20041814942237       -6.96349719948090
H           -1.70550755813722       -3.80083108875535       -8.44828672055089
H           -2.19745996788901       -3.92303679345098       -6.72792073470320
H           -4.49203062209017       -3.24219091095025       -7.31841219389479
H           -3.98923154440006       -2.90040105889526       -8.97840217553487
H           -5.17610241232197       -5.01235387276893       -8.94319638486132
H           -3.48148646533464       -5.28779301735001       -9.34548052403294
H           -3.04049754957275       -6.04476138245755       -7.02760930867236
H           -4.68524673055632       -5.62741620562507       -6.56296858677833
H           -4.51581197975187       -8.02182380035404       -6.86912627956570
H           -5.60096404945561       -7.33101777851389       -8.06573926700491
H           -4.19292875816377       -9.06029824094017       -9.05336089512105
H           -3.93938024988291       -7.50357909858506       -9.81718517912416
H           -1.81924971281410       -8.63685796560064       -9.55299737213593
H           -1.84640622594904       -7.16173846735601       -8.60990518821302
H           -0.75642981933550       -8.88568081731381       -7.33841360133068
H           -2.24079140682550       -8.40849678477193       -6.53879330746879
H           -1.99794866630675      -10.81399630006523       -6.39428394509295
H           -3.41510019001524      -10.38787851662754       -7.33483428660197
H           -2.32925759904728      -12.25249183610169       -8.40073303322513
H           -2.20756635002055      -10.84061386364773       -9.44321644891121
H           -0.09657471009133      -12.00831726453485       -9.49545027486287
H            0.14042560623144      -10.46573595452235       -8.65076478519968
H            0.66526002308008      -10.52791543090135       -6.14385888140906
H            1.34351027284165      -12.57292652306384       -4.45217992053007
H           -0.03456639670296      -14.18324099701719       -8.06713707043421
H            0.64630853623971      -15.83797832113137       -6.30654384659009
H            2.00797117783840      -15.21818062589480       -5.35306308606953
H            0.37925790002381      -15.22893160749936       -4.66121931163392
H            0.52527483693896        0.41171715902410       -9.08968532402139
H           -0.16399781005034       -1.19070436694642       -5.92893666866390
H            1.53795574065955       -1.12959966356628       -5.44035669206350
H            1.40312202172125        1.16270246865489       -4.79196695125834
H           -0.10724612019681        1.41960446106380       -5.65073613367626
H           -0.59100390899241        1.33760044507735       -3.29072745461513
H           -1.27798164270428       -0.10037197403615       -4.04382421353131
H            0.65796858323634       -1.44217590680326       -3.24325669730558
H            1.37090280794940        0.00777999717073       -2.53577692314549
H           -1.31282670114247       -1.21894805921574       -1.73589788557963
H            0.18588209329762       -1.32017668713185       -0.80991565473115
H           -0.61079476504526        0.23728506686219       -1.03189418384010

          :  Hamiltonian                  GFN2-xTB          :
         :: total energy            -148.442151615542 Eh    ::
         :: gradient norm              0.000486099873 Eh/a0 ::
         :: HOMO-LUMO gap              0.357716729509 eV    ::
         :: SCC energy              -150.450845186151 Eh    ::
         :: -> dispersion             -0.113055555235 Eh    ::
         :: repulsion energy           2.008693570610 Eh    ::

    * Orbital Energies and Occupations

         #    Occupation            Energy/Eh            Energy/eV
      -------------------------------------------------------------
         1        2.0000           -0.8982317             -24.4421
       ...           ...                  ...                  ...
       124        2.0000           -0.4737864             -12.8924
       125        2.0000           -0.4699440             -12.7878
       126        2.0000           -0.4682563             -12.7419
       127        2.0000           -0.4597239             -12.5097
       128        2.0000           -0.4588138             -12.4850
       129        2.0000           -0.4578193             -12.4579
       130        2.0000           -0.4525274             -12.3139
       131        2.0000           -0.4463936             -12.1470
       132        2.0000           -0.4441348             -12.0855
       133        2.0000           -0.4434672             -12.0674
       134        2.0000           -0.4359794             -11.8636
       135        2.0000           -0.4346486             -11.8274
       136        1.9980           -0.4215036             -11.4697 (HOMO)
       137        0.0020           -0.4083578             -11.1120 (LUMO)
       138                         -0.3723483             -10.1321
       139                         -0.2985690              -8.1245
       140                         -0.2546715              -6.9300
       141                         -0.2381792              -6.4812
       142                         -0.1851381              -5.0379
       143                         -0.1299875              -3.5371
       144                         -0.0748100              -2.0357
       145                         -0.0648588              -1.7649
       146                         -0.0531378              -1.4460
       147                         -0.0502068              -1.3662
       ...                                ...                  ...
       261                          0.5992588              16.3067
      -------------------------------------------------------------
                  HL-Gap            0.0131458 Eh            0.3577 eV

     #   Z          covCN         q      C6AA      α(0)
     1   6 C        3.751    -0.101    22.489     6.763
     2   6 C        3.799    -0.053    21.522     6.605
     3   6 C        3.800    -0.057    21.608     6.618
     4   6 C        3.800    -0.055    21.559     6.611
     5   6 C        3.800    -0.056    21.578     6.614
     6   6 C        3.800    -0.059    21.642     6.624
     7   6 C        3.800    -0.059    21.640     6.623
     8   6 C        3.801    -0.056    21.582     6.614
     9   6 C        3.801    -0.061    21.674     6.628
    10   6 C        3.803    -0.055    21.554     6.610
    11   6 C        3.803    -0.083    22.078     6.689
    12   6 C        2.747     0.273    22.379     7.746
    13   8 O        0.861    -0.443    22.563     6.369
    14   7 N        2.687    -0.184    24.993     7.425
    15   6 C        3.733     0.004    20.599     6.478
    16   6 C        3.801    -0.070    21.845     6.654
    17   6 C        3.801    -0.063    21.710     6.634
    18   6 C        3.805    -0.069    21.810     6.648
    19   6 C        3.787     0.015    20.336     6.423
    20   6 C        2.719     0.352    21.018     7.505
    21   8 O        0.856    -0.395    21.577     6.228
    22   8 O        1.704    -0.272    18.514     5.809
    23   6 C        3.700     0.076    19.464     6.309
    24   6 C        3.800    -0.066    21.767     6.643
    25   6 C        3.802    -0.065    21.747     6.639
    26   6 C        3.801    -0.063    21.710     6.634
    27   6 C        3.800    -0.061    21.669     6.628
    28   6 C        3.800    -0.063    21.709     6.634
    29   6 C        3.800    -0.062    21.699     6.632
    30   6 C        3.800    -0.062    21.695     6.632
    31   6 C        3.800    -0.066    21.758     6.641
    32   6 C        3.801    -0.070    21.838     6.653
    33   6 C        3.742    -0.029    21.161     6.563
    34   7 N        2.868     0.072    19.985     6.640
    35   6 C        3.075    -0.004    28.043     8.682
    36   6 C        3.073    -0.011    28.202     8.707
    37   7 N        2.867     0.077    19.898     6.625
    38   6 C        3.102     0.044    26.895     8.498
    39   6 C        3.692    -0.086    22.340     6.763
    40   7 N        2.692    -0.191    25.135     7.446
    41   6 C        2.747     0.273    22.376     7.746
    42   8 O        0.860    -0.425    22.195     6.316
    43   6 C        3.804    -0.090    22.215     6.710
    44   6 C        3.803    -0.051    21.480     6.598
    45   6 C        3.803    -0.060    21.654     6.625
    46   6 C        3.800    -0.054    21.553     6.610
    47   6 C        3.752    -0.105    22.557     6.773
    48   1 H        0.925     0.033     2.545     2.495
    49   1 H        0.925     0.031     2.566     2.505
    50   1 H        0.925     0.032     2.558     2.501
    51   1 H        0.924     0.032     2.553     2.499
    52   1 H        0.924     0.028     2.621     2.532
    53   1 H        0.924     0.030     2.584     2.514
    54   1 H        0.924     0.028     2.621     2.532
    55   1 H        0.924     0.026     2.640     2.541
    56   1 H        0.924     0.028     2.620     2.531
    57   1 H        0.924     0.022     2.701     2.570
    58   1 H        0.924     0.032     2.553     2.499
    59   1 H        0.924     0.030     2.590     2.517
    60   1 H        0.924     0.035     2.515     2.480
    61   1 H        0.924     0.032     2.556     2.500
    62   1 H        0.924     0.032     2.565     2.505
    63   1 H        0.924     0.021     2.712     2.575
    64   1 H        0.924     0.028     2.610     2.526
    65   1 H        0.924     0.028     2.618     2.530
    66   1 H        0.924     0.040     2.455     2.450
    67   1 H        0.924     0.049     2.328     2.386
    68   1 H        0.924     0.041     2.436     2.441
    69   1 H        0.924     0.060     2.201     2.320
    70   1 H        0.925     0.032     2.557     2.501
    71   1 H        0.860     0.181     1.210     1.723
    72   1 H        0.925     0.057     2.232     2.336
    73   1 H        0.923     0.041     2.430     2.438
    74   1 H        0.924     0.041     2.436     2.441
    75   1 H        0.924     0.044     2.397     2.421
    76   1 H        0.924     0.039     2.467     2.456
    77   1 H        0.924     0.056     2.248     2.345
    78   1 H        0.924     0.060     2.200     2.320
    79   1 H        0.924     0.056     2.245     2.343
    80   1 H        0.924     0.075     2.033     2.230
    81   1 H        0.924     0.056     2.244     2.343
    82   1 H        0.924     0.054     2.276     2.359
    83   1 H        0.924     0.047     2.362     2.403
    84   1 H        0.924     0.053     2.279     2.361
    85   1 H        0.924     0.046     2.370     2.407
    86   1 H        0.924     0.041     2.435     2.440
    87   1 H        0.924     0.029     2.601     2.522
    88   1 H        0.924     0.037     2.486     2.465
    89   1 H        0.924     0.030     2.585     2.514
    90   1 H        0.924     0.039     2.463     2.454
    91   1 H        0.924     0.030     2.587     2.515
    92   1 H        0.924     0.043     2.416     2.430
    93   1 H        0.924     0.028     2.620     2.531
    94   1 H        0.924     0.044     2.390     2.418
    95   1 H        0.924     0.019     2.747     2.592
    96   1 H        0.924     0.049     2.332     2.388
    97   1 H        0.924     0.024     2.668     2.555
    98   1 H        0.925     0.062     2.179     2.309
    99   1 H        0.924     0.047     2.355     2.400
   100   1 H        0.925     0.079     1.984     2.203
   101   1 H        0.924     0.081     1.970     2.195
   102   1 H        0.924     0.097     1.817     2.108
   103   1 H        0.926     0.111     1.690     2.033
   104   1 H        0.926     0.109     1.705     2.042
   105   1 H        0.926     0.112     1.681     2.028
   106   1 H        0.925     0.099     1.790     2.092
   107   1 H        0.924     0.108     1.718     2.049
   108   1 H        0.924     0.107     1.720     2.051
   109   1 H        0.860     0.193     1.142     1.674
   110   1 H        0.924     0.044     2.397     2.421
   111   1 H        0.925     0.061     2.184     2.311
   112   1 H        0.924     0.046     2.373     2.409
   113   1 H        0.924     0.026     2.647     2.544
   114   1 H        0.924     0.043     2.415     2.430
   115   1 H        0.924     0.026     2.643     2.542
   116   1 H        0.924     0.028     2.608     2.526
   117   1 H        0.924     0.035     2.522     2.483
   118   1 H        0.925     0.030     2.588     2.516
   119   1 H        0.925     0.034     2.526     2.486
   120   1 H        0.925     0.040     2.446     2.446

Wiberg/Mayer (AO) data.
largest (>0.10) Wiberg bond orders for each atom

     #   Z sym  total        # sym  WBO       # sym  WBO       # sym  WBO
 ---------------------------------------------------------------------------
     1   6 C    3.997 --     2 C    1.020    50 H    0.988    49 H    0.988
                            48 H    0.986
     2   6 C    3.998 --     1 C    1.020     3 C    1.008    52 H    0.978
                            51 H    0.976
     3   6 C    3.997 --     2 C    1.008     4 C    1.007    54 H    0.977
                            53 H    0.975
     4   6 C    3.998 --     5 C    1.008     3 C    1.007    56 H    0.974
                            55 H    0.973
     5   6 C    3.997 --     6 C    1.008     4 C    1.008    58 H    0.975
                            57 H    0.973
     6   6 C    3.997 --     7 C    1.008     5 C    1.008    60 H    0.974
                            59 H    0.974
     7   6 C    3.997 --     6 C    1.008     8 C    1.007    61 H    0.974
                            62 H    0.974
     8   6 C    3.998 --     7 C    1.007     9 C    1.007    64 H    0.973
                            63 H    0.971
     9   6 C    3.997 --    10 C    1.009     8 C    1.007    65 H    0.976
                            66 H    0.973
    10   6 C    3.993 --     9 C    1.009    11 C    0.987    67 H    0.976
                            68 H    0.972
    11   6 C    3.996 --    10 C    0.987    12 C    0.973    69 H    0.966
                            70 H    0.963
    12   6 C    3.946 --    13 O    1.685    14 N    1.236    11 C    0.973
    13   8 O    1.996 --    12 C    1.685    14 N    0.195
    14   7 N    3.429 --    12 C    1.236    15 C    1.004    71 H    0.933
                            13 O    0.195
    15   6 C    3.976 --    14 N    1.004    16 C    0.996    73 H    0.964
                            72 H    0.959
    16   6 C    3.996 --    17 C    1.008    15 C    0.996    75 H    0.975
                            74 H    0.973
    17   6 C    3.994 --    16 C    1.008    18 C    1.006    76 H    0.976
                            77 H    0.974
    18   6 C    3.990 --    17 C    1.006    19 C    0.981    78 H    0.972
                            79 H    0.970
    19   6 C    3.972 --    40 N    0.986    18 C    0.981    80 H    0.952
                            20 C    0.924
    20   6 C    3.913 --    21 O    1.770    22 O    1.133    19 C    0.924
    21   8 O    2.058 --    20 C    1.770    22 O    0.177
    22   8 O    2.307 --    20 C    1.133    23 C    0.934    21 O    0.177
    23   6 C    3.923 --    24 C    0.998    82 H    0.970    81 H    0.968
                            22 O    0.934
    24   6 C    3.993 --    25 C    1.005    23 C    0.998    83 H    0.976
                            84 H    0.974
    25   6 C    3.995 --    26 C    1.009    24 C    1.005    85 H    0.975
                            86 H    0.974
    26   6 C    3.997 --    25 C    1.009    27 C    1.007    88 H    0.976
                            87 H    0.974
    27   6 C    3.997 --    28 C    1.007    26 C    1.007    90 H    0.976
                            89 H    0.976
    28   6 C    3.996 --    29 C    1.008    27 C    1.007    91 H    0.975
                            92 H    0.975
    29   6 C    3.996 --    28 C    1.008    30 C    1.007    93 H    0.975
                            94 H    0.973
    30   6 C    3.995 --    29 C    1.007    31 C    1.007    95 H    0.973
                            96 H    0.973
    31   6 C    3.993 --    32 C    1.008    30 C    1.007    97 H    0.975
                            98 H    0.969
    32   6 C    3.983 --    31 C    1.008    33 C    0.980    99 H    0.975
                           100 H    0.963
    33   6 C    3.934 --    32 C    0.980    34 N    0.967   101 H    0.965
                           102 H    0.960
    34   7 N    3.720 --    38 C    1.361    35 C    1.232    33 C    0.967
    35   6 C    3.950 --    36 C    1.587    34 N    1.232   103 H    0.959
    36   6 C    3.947 --    35 C    1.587    37 N    1.228   104 H    0.961
    37   7 N    3.721 --    38 C    1.360    36 C    1.228    39 C    0.991
    38   6 C    3.945 --    34 N    1.361    37 N    1.360   105 H    0.954
    39   6 C    3.934 --    37 N    0.991   106 H    0.976   108 H    0.963
                           107 H    0.962
    40   7 N    3.413 --    41 C    1.215    19 C    0.986   109 H    0.928
                            42 O    0.187
    41   6 C    3.944 --    42 O    1.707    40 N    1.215    43 C    0.970
    42   8 O    2.015 --    41 C    1.707    40 N    0.187
    43   6 C    3.996 --    44 C    0.986   111 H    0.973    41 C    0.970
                           110 H    0.965
    44   6 C    3.994 --    45 C    1.006    43 C    0.986   112 H    0.977
                           113 H    0.973
    45   6 C    3.996 --    46 C    1.009    44 C    1.006   115 H    0.977
                           114 H    0.972
    46   6 C    3.998 --    47 C    1.019    45 C    1.009   117 H    0.978
                           116 H    0.977
    47   6 C    3.996 --    46 C    1.019   118 H    0.988   119 H    0.987
                           120 H    0.985
    48   1 H    0.999 --     1 C    0.986
    49   1 H    0.999 --     1 C    0.988
    50   1 H    0.999 --     1 C    0.988
    51   1 H    0.999 --     2 C    0.976
    52   1 H    0.999 --     2 C    0.978
    53   1 H    0.999 --     3 C    0.975
    54   1 H    0.999 --     3 C    0.977
    55   1 H    0.999 --     4 C    0.973
    56   1 H    0.999 --     4 C    0.974
    57   1 H    1.000 --     5 C    0.973
    58   1 H    0.999 --     5 C    0.975
    59   1 H    0.999 --     6 C    0.974
    60   1 H    0.999 --     6 C    0.974
    61   1 H    0.999 --     7 C    0.974
    62   1 H    0.999 --     7 C    0.974
    63   1 H    1.000 --     8 C    0.971
    64   1 H    0.999 --     8 C    0.973
    65   1 H    0.999 --     9 C    0.976
    66   1 H    0.998 --     9 C    0.973
    67   1 H    0.997 --    10 C    0.976
    68   1 H    0.998 --    10 C    0.972
    69   1 H    0.996 --    11 C    0.966
    70   1 H    0.999 --    11 C    0.963
    71   1 H    0.967 --    14 N    0.933
    72   1 H    0.997 --    15 C    0.959
    73   1 H    0.998 --    15 C    0.964
    74   1 H    0.997 --    16 C    0.973
    75   1 H    0.998 --    16 C    0.975
    76   1 H    0.998 --    17 C    0.976
    77   1 H    0.996 --    17 C    0.974
    78   1 H    0.996 --    18 C    0.972
    79   1 H    0.996 --    18 C    0.970
    80   1 H    0.994 --    19 C    0.952
    81   1 H    0.997 --    23 C    0.968
    82   1 H    0.997 --    23 C    0.970
    83   1 H    0.998 --    24 C    0.976
    84   1 H    0.997 --    24 C    0.974
    85   1 H    0.998 --    25 C    0.975
    86   1 H    0.998 --    25 C    0.974
    87   1 H    0.999 --    26 C    0.974
    88   1 H    0.999 --    26 C    0.976
    89   1 H    0.999 --    27 C    0.976
    90   1 H    0.998 --    27 C    0.976
    91   1 H    0.999 --    28 C    0.975
    92   1 H    0.998 --    28 C    0.975
    93   1 H    0.999 --    29 C    0.975
    94   1 H    0.998 --    29 C    0.973
    95   1 H    1.000 --    30 C    0.973
    96   1 H    0.998 --    30 C    0.973
    97   1 H    0.999 --    31 C    0.975
    98   1 H    0.996 --    31 C    0.969
    99   1 H    0.998 --    32 C    0.975
   100   1 H    0.993 --    32 C    0.963
   101   1 H    0.993 --    33 C    0.965
   102   1 H    0.990 --    33 C    0.960
   103   1 H    0.987 --    35 C    0.959
   104   1 H    0.988 --    36 C    0.961
   105   1 H    0.988 --    38 C    0.954
   106   1 H    0.990 --    39 C    0.976
   107   1 H    0.988 --    39 C    0.962
   108   1 H    0.988 --    39 C    0.963
   109   1 H    0.962 --    40 N    0.928
   110   1 H    0.998 --    43 C    0.965
   111   1 H    0.996 --    43 C    0.973
   112   1 H    0.998 --    44 C    0.977
   113   1 H    0.999 --    44 C    0.973
   114   1 H    0.997 --    45 C    0.972
   115   1 H    0.999 --    45 C    0.977
   116   1 H    0.999 --    46 C    0.977
   117   1 H    0.999 --    46 C    0.978
   118   1 H    0.999 --    47 C    0.988
   119   1 H    0.999 --    47 C    0.987
   120   1 H    0.998 --    47 C    0.985
 ---------------------------------------------------------------------------

molecular dipole:
                 x           y           z       tot (Debye)
 q only:       -1.158     -25.020     -11.396
   full:       -1.177     -25.343     -11.339      70.633

           -------------------------------------------------
          | TOTAL ENERGY             -148.442151615542 Eh   |
          | GRADIENT NORM               0.000486099873 Eh/α |
          | HOMO-LUMO GAP               0.357716729509 eV   |
           -------------------------------------------------

 * finished run on 2024/12/20 at 06:52:49.802
